QMMM reactant CHA#2 frame 42436
 55680
  28.4089222  49.9096756  42.3239746  29.1630001  49.5189247  42.8705826
  28.6159630  50.8967590  42.3778572  27.4596863  49.8195000  42.6570168
  28.5440025  49.3639221  40.9256248  27.9421444  50.0026321  40.2791634
  30.0193272  49.3638992  40.3923683  30.4757805  50.3533401  40.4198456
  30.5835133  48.8329735  41.1591225  30.2181206  48.8429871  38.9669724
  31.2972717  48.8547897  38.8140450  30.0079041  47.7765656  38.8853836
  29.3831787  49.8241692  37.7181091  29.8639660  48.8493080  36.2309151
  30.9426117  48.8070183  36.0798111  29.3328114  47.8982162  36.2683372
  29.5532875  49.4728813  35.3926201  28.0050888  47.9934502  40.8704720
  28.1964226  47.0647507  41.7073326  27.1346722  47.7698135  39.8399200
  26.9413052  48.5530014  39.2321892  26.4978294  46.4513855  39.5261536
  25.7632275  46.1844063  40.2858772  25.6989269  46.6295815  38.2023926
  25.1483707  47.5703163  38.1998291  26.4593601  46.7975235  37.4397392
  24.7333660  45.5126534  37.8966255  25.2927532  44.5771446  37.8997154
  24.4121017  45.5645409  36.8563385  23.2643642  45.4204521  38.9966927
  22.3385429  46.9006500  38.3763084  22.8962421  47.7793617  38.7002640
  21.3328342  46.9815483  38.7887497  22.1398182  46.7756462  37.3118896
  27.5390530  45.3617401  39.2354698  28.6325493  45.5952110  38.7609558
  27.2139645  44.0895729  39.4768867  26.2810650  43.9885979  39.8505173
  27.9126358  42.8549805  39.0419655  28.7207527  43.1074219  38.3554382
  28.7076283  42.1260796  40.2033997  27.9470711  41.4821777  40.6450500
  29.6754398  41.0458031  39.6199646  30.5594463  41.5193977  39.1929512
  30.0657253  40.5147743  40.4881744  29.2007656  40.3421364  38.9361267
  29.3681660  42.9877815  41.2470665  28.6817760  43.8283195  41.3493767
  29.3003960  42.6276169  42.2736092  30.6419754  43.7176971  40.8726273
  31.5004559  43.0473747  40.9147491  30.5849895  44.2126770  39.9031639
  30.7363968  44.4228630  41.6984138  27.0039940  41.7994881  38.3714600
  25.9069519  41.5977020  38.8796959  27.3901005  41.2618027  37.2377243
  28.2525959  41.5921555  36.8289795  26.6049194  40.3578224  36.3387718
  25.9065990  39.8521767  37.0056839  25.7774677  41.1476593  35.2903442
  26.2818851  41.6012688  34.4371719  25.1026211  40.4220886  34.8362198
  24.8949776  42.1834564  35.8538628  24.4810333  41.7632561  36.7704773
  25.4849777  43.0444336  36.1680679  23.8681202  42.7726974  34.9818535
  24.2117004  43.6391792  34.4168205  23.4441128  42.0771332  34.2576218
  22.7853699  43.2333908  35.8539238  22.7866535  42.8260231  36.7781258
  21.9143963  44.2036209  35.6535873  21.8675194  44.9711189  34.6073036
  21.1132450  45.5850182  34.3347206  22.7378387  44.9795570  34.0948868
  20.9148006  44.3979111  36.4786110  20.8026085  43.9043503  37.3526306
  20.1252308  44.9367599  36.1525459  27.5137482  39.2669754  35.8213768
  28.6434669  39.4984970  35.4414597  26.9772339  38.0367775  35.6602592
  26.0064087  37.9037018  35.9049873  27.7014065  36.9502335  34.9749374
  28.7366638  36.8383293  35.2971458  27.2001362  36.0014420  35.1663055
  27.5559063  37.0527954  33.4913177  26.6643257  37.7073517  32.9827271
  28.3066692  36.2264137  32.7436523  28.9478817  35.6174316  33.2315979
  28.3903008  36.0801926  31.2807770  27.4342213  36.3608131  30.8388901
  29.4069405  37.0252724  30.7303963  30.3385029  36.7734947  31.2372494
  29.5459347  36.9492531  29.1734791  28.6737480  37.3569603  28.6624374
  30.3419952  37.4832764  28.6546230  29.7315617  35.9059677  28.9181252
  29.1541367  38.4583626  30.9994354  28.0862160  38.6508102  30.8964787
  29.2920609  38.6513062  32.0633240  29.9973469  39.4945717  30.3092098
  29.7994061  39.5642281  29.2395992  29.7958488  40.4607353  30.7718334
  31.0761051  39.3527641  30.3745232  28.6362286  34.6141472  30.9429989
  29.4262695  33.9983330  31.6076679  27.8681431  34.1126862  29.9670162
  27.2949448  34.7436371  29.4253101  27.7476768  32.7250748  29.5744286
  28.4830055  32.1865616  30.1722584  26.2936935  32.2576485  29.8461037
  25.6388931  33.1253052  29.7654362  25.8884506  31.5241184  29.1490936
  26.1982193  31.5342846  31.1450653  26.3000412  32.2648773  31.9475422
  25.1795502  31.1666775  31.2686691  27.1209965  30.3032494  31.4157219
  27.9982529  30.7670479  31.8667374  26.6411438  29.6682205  32.1604271
  27.2698174  29.5704727  30.1382809  28.2021770  29.3909454  29.7939320
  26.3981533  28.7812252  29.5384941  25.1764164  28.6658020  29.9532681
  24.7569008  29.2805042  30.6360931  24.5853462  28.0159550  29.4548378
  26.6894703  28.1832542  28.4637337  26.1698532  27.3486004  28.2325325
  27.6325378  28.1003246  28.1118145  28.1581345  32.5100975  28.1351395
  28.5354671  33.3521309  27.3319759  28.2958927  31.2393665  27.7336235
  27.8684845  30.6187286  28.4061050  28.7232723  30.8021355  26.3786049
  27.9078674  31.0841217  25.7124977  29.6115456  31.3130493  26.0070686
  29.0664558  29.3609886  26.1938763  29.0420036  28.5392933  27.0895538
  29.3243713  28.9733696  24.9499855  29.2929440  29.6614704  24.2113190
  29.5999050  27.5848503  24.5319138  30.4142361  27.2884197  25.1930523
  28.2975502  26.7532196  24.6408615  27.7744732  27.0084229  25.5624676
  27.5859585  26.9518127  23.8394279  28.5578175  25.6951027  24.6684017
  30.1818581  27.5153770  23.0725727  29.8669338  28.4201069  22.3037109
  30.8213177  26.3872795  22.6688805  31.1836662  25.7631741  23.3754902
  31.3198929  26.0733356  21.2666492  30.5531521  26.3169193  20.5312042
  32.6340332  26.9022121  20.9618092  32.4366074  27.9733849  21.0032120
  33.8919792  26.4618931  21.5817890  33.6917038  26.4647923  22.6532269
  34.1734123  25.4715500  21.2238579  34.6558380  27.1737671  21.2689610
  32.7669945  26.5899525  19.5502357  33.1139488  27.3943462  19.1575871
  31.6380215  24.5390835  21.1367702  31.7904968  23.8862171  22.1199169
  31.7765484  23.8762817  19.9429588  31.8366871  24.5313854  19.1765900
  32.0461655  22.4156437  19.7512035  32.1794090  21.8861408  20.6945858
  30.9010868  21.7281342  19.0294838  31.2211857  20.7617893  18.6398525
  29.6102753  21.4200745  19.7769566  29.8800392  20.7054443  20.5545387
  29.1199627  22.3064632  20.1794567  28.9543056  20.8282490  19.1385574
  30.4632721  22.4469585  17.9121513  31.1263046  22.2718544  17.2403412
  33.3292847  22.1749096  19.0642891  33.8178329  23.0031948  18.3409729
  33.9175224  21.0051441  19.2077885  33.4093819  20.3498650  19.7844162
  35.1463051  20.5268688  18.4692516  35.5350876  21.2794781  17.7832947
  36.3250465  20.4677830  19.4365730  37.0787582  20.0475597  18.7706623
  36.8223686  21.8215351  19.9392376  37.4541550  21.7939243  20.8270340
  37.3692551  22.2831936  19.1171150  35.9502258  22.4271660  20.1855469
  36.1098175  19.5227394  20.6005573  37.0998383  19.4155483  21.0438042
  35.3672523  19.9392357  21.2811623  35.7610168  18.5694523  20.2034569
  34.8993149  19.2232761  17.7337761  34.1051064  18.3725510  18.1442089
  35.6120567  19.0142536  16.6233234  36.1832275  19.7379169  16.2108021
  35.5035973  17.7375355  15.8658848  34.4545326  17.6397552  15.5865917
  36.2803078  17.9484177  14.5355177  37.2931709  18.2636261  14.7862167
  36.2758408  17.0373554  13.9371500  35.7748947  19.0708199  13.7105465
  35.6322632  19.9217281  14.3766632  36.4405174  19.3365269  12.8892984
  34.4869690  18.7364502  13.0439568  33.6170082  19.6375332  12.9083920
  34.3523979  17.6735344  12.4428759  35.9819641  16.4885387  16.5758953
  35.4718323  15.3276081  16.2288170  36.8969536  16.5712090  17.5178013
  37.4397011  17.4215221  17.4679222  37.3949165  15.4253082  18.3629627
  36.5444298  14.8204508  18.6774769  38.3908730  14.5730619  17.4719181
  38.9257393  13.8683748  18.1086540  37.8109703  13.9843054  16.7611580
  39.3786392  15.5013285  16.6754208  38.7841225  16.0381699  15.9361963
  39.8040771  16.2168770  17.3790493  40.4599762  14.7916622  15.8621941
  41.0114059  14.0740690  16.4697208  39.9580498  14.1352692  15.1513386
  41.3219070  15.8114014  15.2217674  41.2429352  16.7496948  15.5871010
  42.0932884  15.6102324  14.1742172  42.4510002  14.4199238  13.7196770
  42.9441223  14.2322617  12.8584471  41.8676109  13.6680431  14.0579557
  42.6653137  16.5929775  13.6161299  43.2281876  16.4115124  12.7973804
  42.6407852  17.5343533  13.9812460  38.2822800  15.8274431  19.5840359
  38.6135139  17.0280418  19.7743130  38.7507401  14.8858776  20.4146023
  38.4177399  13.9510536  20.2266827  39.5401268  15.1667366  21.5711060
  39.2124138  16.0867596  22.0551128  39.3802605  13.9599781  22.5651016
  38.3551559  13.6146345  22.6992531  39.8353539  13.0752869  22.1197681
  39.9794197  14.2006283  23.9616756  40.2922516  15.3545446  24.2977924
  39.9833832  13.1928205  24.7484722  40.9930267  15.3833160  21.2018871
  41.7646332  14.3875732  20.9939518  41.3888702  16.6789589  20.9981022
  40.7960968  17.4894772  21.1066513  42.8133736  16.9292145  20.9706821
  43.2450905  16.2677555  21.7218075  43.4514313  16.4219112  19.6793880
  43.0572128  15.4241600  19.4865532  43.1457596  17.2964859  18.4520874
  43.9483910  18.0153999  18.2876415  42.8934517  16.6760311  17.5921593
  42.1835938  17.7372780  18.7129135  44.8412666  16.3616428  19.7604694
  45.2069778  17.2469883  19.8238640  43.3255234  18.3471699  21.3408718
  42.6601028  19.3329697  21.0533543  44.4482231  18.4441700  22.0602074
  45.0485077  17.6393814  22.1700859  44.7469330  19.7082405  22.7315559
  43.9775085  20.0359764  23.4306107  45.9529686  19.4160271  23.5407200
  45.6279907  18.8033409  24.3816166  46.6926270  18.8343506  22.9905739
  46.5837402  20.6614990  24.2142868  46.9377518  21.3415508  23.4394932
  45.7910004  21.0295982  24.8655701  47.7798309  20.2731686  25.0961838
  47.9603996  19.1501522  25.6439095  48.6871948  21.1366959  25.3277969
  44.9409065  20.8860893  21.6970196  44.3506775  21.9653397  21.9089680
  45.7012367  20.5922394  20.6717663  46.0557404  19.6500359  20.5900536
  45.9558601  21.6039886  19.5670700  46.4056892  22.5000916  19.9945641
  47.0434456  21.0270882  18.5241261  47.1533241  21.8205204  17.7848759
  48.0042686  20.8847160  19.0187492  46.6155930  19.7950726  17.7493038
  45.5405884  19.8388405  17.5745201  46.9697609  19.7688332  16.7187805
  47.0044823  18.4688034  18.4600506  46.6607475  18.3434582  19.6418362
  47.4086380  17.4596577  17.8188801  44.7858467  22.0787029  18.7361794
  44.9011574  22.8493137  17.7806854  43.6100159  21.6402245  19.1424923
  43.5484009  20.9499454  19.8772182  42.2768021  22.0861111  18.6534252
  42.4692421  23.0137329  18.1143608  41.6239166  20.9317760  17.8632812
  41.4015503  20.0950184  18.5254669  40.6829185  21.3095989  17.4634399
  42.5413666  20.5314045  16.6879635  42.5281219  21.4375229  16.0822601
  43.5567665  20.2241993  16.9383507  41.9356613  19.4449215  15.7842283
  42.4046326  19.3712025  14.6529045  41.1580849  18.5089874  16.1396999
  41.3599777  22.5239525  19.8024063  40.7642899  23.6201096  19.7761116
  41.2442245  21.7794876  20.9194088  41.6795044  20.8681030  20.9228210
  40.5387268  22.1293964  22.1318588  39.4954910  22.2307148  21.8327084
  40.7521782  21.0638790  23.1529198  41.8165970  20.8637009  23.2755527
  40.2012520  21.5288467  24.5043049  39.1745529  21.8948860  24.5032673
  40.2211075  20.7076359  25.2207680  40.8553314  22.3176327  24.8759117
  39.8643837  19.8940353  22.7291946  38.8829079  20.2495613  22.4155064
  40.2306671  19.4465046  21.8052578  39.7039528  18.6768360  23.6990299
  39.4312019  18.9317837  24.7230949  38.9063568  17.9814548  23.4375248
  40.6222534  18.0896282  23.6989975  40.9149590  23.5612965  22.5649738
  40.0362816  24.4249191  22.7743320  42.2461205  23.7955685  22.7435169
  42.9356995  23.0679073  22.6206932  42.5929756  25.0993328  23.2307301
  42.0412369  25.3188286  24.1447945  44.1220970  25.0836220  23.5372810
  44.6385727  24.7338085  22.6434212  44.4763908  26.0711155  23.8329735
  44.5465736  24.0810947  24.6327553  44.4694862  23.0386047  24.3239384
  46.0343590  24.3926716  24.9169197  46.2859802  23.9322834  25.8723412
  46.6688576  23.9749241  24.1352577  46.1771965  25.4721622  24.8679829
  43.6674042  24.2266293  25.8935032  44.0566063  23.5693512  26.6710682
  43.4712105  25.2905750  26.0263176  42.6844063  23.8205223  25.6549892
  42.3283920  26.1990414  22.1551170  41.8872795  27.3222542  22.5560608
  42.4924393  25.9197273  20.8340836  42.7650871  24.9994717  20.5196114
  42.1395683  26.9177628  19.7840900  42.5503273  27.9014282  20.0116405
  42.8842812  26.4530087  18.5220108  43.9191475  26.1877670  18.7383614
  42.3435631  25.5624447  18.2016659  42.9022865  27.4661026  17.4265060
  43.4822845  27.1249714  16.5689888  41.8599510  27.7205925  17.2344990
  43.5670700  28.7959976  17.8707409  44.3518410  28.8852196  18.8145275
  43.1589241  29.8959370  17.2382278  42.7183571  29.9276180  16.3299351
  43.5129128  30.7815723  17.5705605  40.6196442  27.2219582  19.6366959
  40.3141327  28.4088993  19.5310192  39.7590942  26.2671471  19.8498573
  40.1080246  25.3216476  19.9160252  38.3230362  26.4218082  19.8057671
  38.1426048  27.0652637  18.9446583  37.5702095  25.0790634  19.5611553
  38.1886177  24.3388481  19.0534630  37.4211807  24.7759171  20.5974922
  36.2016869  25.2693558  18.8718586  35.5770645  24.4588261  19.2473431
  35.7711525  26.2272224  19.1638050  36.1767845  25.1535797  17.3700752
  35.1410751  25.2135162  17.0356808  36.7685509  25.9808331  16.9782066
  36.8501244  23.8723087  16.8088055  37.8977242  24.0602608  16.5736256
  36.7313194  23.0094852  17.4641819  36.2813263  23.6359844  15.5087843
  36.3443947  24.5017109  14.9924107  36.7604790  22.9279556  14.9710026
  35.3235550  23.3165207  15.5356188  37.8821106  27.2261925  21.0365486
  37.0177841  28.0877666  20.8832054  38.5494118  27.0095215  22.1907043
  39.2732430  26.3052464  22.1779461  38.3934288  27.6411057  23.5238037
  37.3323746  27.6233330  23.7727032  39.1335831  26.9813156  24.6996174
  40.1868858  26.8307114  24.4630108  38.8576393  27.5814991  26.0509567
  39.3455696  26.9984283  26.8320198  39.3692780  28.5434914  26.0809631
  37.7843361  27.7407837  26.1546135  38.6306686  25.7322235  24.7917728
  39.0625038  25.1481228  24.1641235  38.7803459  29.1443539  23.4282017
  37.9666901  29.9821110  23.7674561  39.9409294  29.4508495  22.8347054
  40.3634529  28.5552502  22.6360188  40.4861908  30.7329426  22.5439739
  40.3801231  31.1553249  23.5431938  41.8688049  30.6214790  21.9314137
  42.4819679  29.9680710  22.5520496  41.8653374  30.1882401  20.9312172
  42.7354851  31.9107285  21.7052441  42.2657204  32.5421486  20.9510994
  42.8065605  32.3122139  22.7161140  44.1380806  31.5580826  21.1821842
  44.5293579  30.7902794  21.8496361  44.0458221  31.2432899  20.1427174
  45.1458244  32.7658882  21.2351551  45.1552162  33.1463127  22.2565727
  46.1093979  32.3891373  20.8920994  44.7378197  33.7622528  20.2259808
  44.5635452  33.3972893  19.3004913  43.8670731  34.2233429  20.4480076
  45.4392738  34.4870567  20.1738071  39.5599823  31.5433540  21.6203461
  39.2641335  32.7114410  21.9698334  39.0350342  31.0330734  20.5395699
  39.3933563  30.1437168  20.2221565  38.0988617  31.7108021  19.5502033
  38.4934235  32.6929741  19.2898731  38.0554848  30.8184242  18.2071476
  37.8032494  29.8045559  18.5178699  37.2655220  31.2085266  17.5653667
  39.3584976  30.9019508  17.4124012  39.4570961  31.8813038  16.9441624
  40.2002525  30.7797432  18.0940323  39.5613022  29.8543053  16.3719273
  39.0680275  28.7607212  16.4835758  40.1461754  30.0869637  15.2317305
  40.1171112  29.4032364  14.4889164  40.5552177  30.9921494  15.0489082
  36.7451134  31.9112854  20.2068367  36.1003380  32.9103737  19.8849792
  36.2536278  31.0434246  21.1452541  36.7243042  30.1503048  21.1752548
  35.1027565  31.4154854  21.9403553  34.2906647  31.7624264  21.3014221
  34.7243080  30.0824184  22.6304226  34.3389473  29.4269791  21.8494015
  35.5700378  29.5389957  23.0517712  33.7285309  30.2576084  23.8508148
  34.2506409  30.7641144  24.6625729  32.4359131  30.9808083  23.4510040
  32.5758858  31.8334332  22.7865200  31.7957306  30.2148247  23.0133591
  31.9797153  31.2962341  24.3893452  33.3347473  29.0461006  24.6475582
  33.0195999  28.2390461  23.9861622  34.1797867  28.7367802  25.2626419
  32.5703964  29.1744804  25.4139652  35.4524765  32.5673256  22.9074402
  34.7008018  33.5179405  22.7901840  36.5466461  32.5200920  23.6824017
  37.1130142  31.6838589  23.6885891  36.9237785  33.6040611  24.6476955
  36.1504669  33.9101562  25.3522511  38.1445885  33.1479492  25.4885025
  38.8103333  32.5624924  24.8543663  38.6377182  34.0125542  25.9327774
  37.7496529  32.1994972  26.6353397  37.2626915  31.3663368  26.1285763
  39.0500526  31.8521481  27.3493996  39.5061722  32.7581749  27.7483578
  38.9063148  31.0270023  28.0469494  39.8353806  31.4720898  26.6960125
  36.7662926  32.7478371  27.7038231  36.4950867  31.9602661  28.4068642
  37.1918449  33.5661125  28.2847157  35.8534317  33.0881233  27.2149620
  37.2504539  34.9517136  23.9167862  36.8109970  35.9762497  24.2964535
  37.9247627  34.9552422  22.7759609  38.2916107  34.0577736  22.4929943
  38.1664619  36.1910820  22.0198917  38.5812721  36.9548111  22.6777306
  39.1657867  35.8792000  20.9063931  38.9762001  34.9203682  20.4239006
  39.1954384  36.7406197  20.2391720  40.5301170  35.7527390  21.5191154
  40.7860680  36.7189293  21.9539318  40.6736069  34.9671059  22.2609310
  41.6721916  35.4741173  20.5151215  41.5018730  34.8547249  19.3900986
  42.8585854  35.5711861  20.9825363  36.9201317  36.8261299  21.3632736
  36.7676201  38.0708771  21.3657360  35.9273262  35.9730835  21.0198193
  36.0491791  34.9710007  21.0526752  34.5407562  36.3731613  20.6018658
  34.7779808  37.1727333  19.9000702  33.7621460  35.3028107  19.8350544
  34.3818130  34.9693031  19.0026569  33.7500381  34.3729248  20.4036198
  32.4059448  35.7411385  19.3331337  31.7978878  34.9156799  18.9630241
  32.0285797  36.2142143  20.2397175  32.4594917  36.7630920  18.2296429
  32.8771210  37.6983986  18.6023216  33.0438995  36.4545250  17.3628330
  30.9668789  36.8408051  17.7977047  30.6879234  35.8412323  17.4643230
  30.3429890  36.9651337  18.6828041  30.7999706  37.8302689  16.6450787
  31.3579350  37.5813980  15.8408155  29.8292675  37.9202690  16.3810005
  31.0216370  38.7314224  17.0436878  33.6988678  36.9354820  21.7977505
  33.0117416  37.9841232  21.7184372  33.7878151  36.2617722  22.9715614
  34.4330864  35.4914017  23.0728073  33.2647514  36.8431244  24.2229519
  32.2027283  37.0692291  24.1276722  33.4683037  35.8211250  25.3944511
  34.4350891  35.3449402  25.2311306  33.3318634  36.5793724  26.7902069
  34.0255623  37.4176750  26.8544235  32.3049736  36.8841896  26.9919205
  33.6809540  35.9626427  27.6183853  32.4088326  34.7491531  25.1878719
  31.3788338  35.1049309  25.2129173  32.7400322  34.2833405  24.2597389
  32.5690155  33.6690369  26.2568893  32.6039238  33.9726562  27.3031693
  31.8822403  32.8558960  26.0218544  33.5456085  33.1916504  26.1764431
  33.8533134  38.2381058  24.5077343  33.0768318  39.2251968  24.6510010
  35.1255875  38.2949715  24.3550472  35.6989784  37.5689278  23.9498463
  35.9085045  39.5136757  24.7468891  35.4694595  39.8702583  25.6786556
  37.3560905  39.1323051  25.0395069  37.6544647  38.6124802  24.1290913
  38.2307777  40.3202515  24.9362125  39.2744598  40.0663490  25.1215763
  38.3236847  40.5559158  23.8760567  37.8809433  41.0682602  25.6476841
  37.5809021  38.2385368  26.2586937  37.4689941  38.9598999  27.0681438
  36.7287712  37.5670090  26.3637009  38.9197159  37.5256195  26.3447151
  39.2449989  37.2330627  27.3430614  38.9291954  36.6337280  25.7181835
  39.6498299  38.2094269  25.9117680  35.5901833  40.6569405  23.7648048
  35.2302628  41.7721519  24.1030884  35.7841759  40.3991814  22.4787521
  36.2951546  39.5564880  22.2577000  35.4029655  41.4541588  21.4494858
  36.0090675  42.3392487  21.6427746  35.7492294  40.8436356  20.0778370
  36.8346291  40.7531204  20.0352135  35.2700768  39.8789101  19.9110527
  35.2540779  41.8104134  18.9331932  35.5494843  41.3884888  17.9725590
  34.1678963  41.7205009  18.9180984  35.6716919  43.3195915  18.9020023
  36.5593948  43.6967735  19.7290611  35.1670761  44.0022392  17.9863300
  33.9152298  41.9018288  21.5215473  33.7108116  43.0922279  21.3975773
  32.9460678  40.9938698  21.7338448  33.2041779  40.0388908  21.9375515
  31.5238876  41.4064293  21.7038612  31.3264618  42.0494576  20.8461666
  30.5281429  40.2169800  21.6043625  30.8674297  39.3930664  22.2321796
  29.5490990  40.4613686  22.0164871  30.2851715  39.6567574  20.1754742
  31.2487392  39.4919243  19.6933250  29.9354267  38.6269531  20.2481251
  29.2869930  40.5404320  19.3816223  28.3472385  40.0496330  18.7664280
  29.2820168  41.8030434  19.4909973  31.1076279  42.2571907  22.8958645
  30.0234756  42.9690666  22.8384075  31.7631016  42.1370010  24.0767612
  32.6056747  41.5901070  23.9715271  31.3913307  42.6800346  25.3980942
  30.3980751  43.1250000  25.3385010  31.2113819  41.4785461  26.3214722
  32.1290894  40.8918304  26.3624916  31.1092510  41.7520370  27.3716507
  30.0320072  40.5533524  25.9840240  28.8955688  40.8986549  26.2491722
  30.2584782  39.4035568  25.3788166  29.4648685  38.8146057  25.1704407
  31.2011166  39.1498184  25.1196842  32.4367218  43.7389069  25.9148407
  32.1407280  44.5719070  26.7402706  33.5847473  43.8019257  25.2490196
  33.8633842  43.0363579  24.6520500  34.6448593  44.8388824  25.5651836
  35.4479218  44.7629471  24.8320885  34.0883980  46.3427773  25.3120842
  33.5486183  46.5508957  26.2358952  34.9481735  46.9803314  25.1061249
  33.2562675  46.5601501  24.0983124  33.5870399  46.1099968  22.8256931
  34.3925247  45.5859375  22.5147991  32.5849724  46.5253754  22.0278664
  32.5275078  46.4166222  20.9548931  31.6247787  47.1864700  22.7807236
  30.7150002  47.4221611  22.4107914  32.0516014  47.2066154  24.1010990
  31.5110874  47.5747490  24.9605904  35.4308205  44.7231865  26.8794670
  36.0029793  45.7185287  27.3550835  35.2927055  43.5567627  27.4818478
  34.6890945  42.9489212  26.9467945  35.7710266  43.1563492  28.8029861
  35.3711395  43.8428535  29.5492477  35.3426476  41.6680679  29.0587578
  36.0988922  40.9958992  28.6533184  35.1964760  41.3108826  30.6207790
  34.7323761  40.3418922  30.8045387  36.2116585  41.4121971  31.0045013
  34.5268784  42.0661354  31.0322800  34.0841866  41.2858734  28.5107269
  33.4350967  41.8944855  28.8711147  37.2841339  43.1893578  28.9297638
  37.9555359  42.8631935  27.9119091  37.7597504  43.5139236  30.1471882
  37.0819244  43.8886299  30.7954540  39.1699600  43.4479828  30.5832939
  39.8177872  43.0522346  29.8011150  39.7549629  44.9029808  30.8180695
  40.7990990  44.8267288  31.1215076  39.7479324  45.4440994  29.8718967
  39.0203209  45.7028122  31.9531898  37.9897423  45.8678322  31.6388969
  39.0953865  45.2211952  32.9281311  39.5493622  47.2213211  32.2327766
  40.6126099  47.2089996  32.4724731  39.4501038  47.9443321  31.4231453
  38.8295212  47.9939232  33.4598083  37.7986832  48.2641449  33.2307892
  38.7434349  47.2479134  34.2498474  39.6526337  49.1644669  33.9602394
  39.5204430  49.9629631  33.3560638  39.4136543  49.2587433  34.9370232
  40.6424904  48.9828300  33.8748245  39.2448425  42.5723267  31.8519917
  38.2630882  42.6617012  32.6576042  40.3522911  41.7685852  32.0563583
  41.6007881  41.7479668  31.1962452  41.9188042  42.7829018  31.0702248
  41.4811707  41.1599045  30.2863121  42.6639862  41.1005249  32.0284882
  43.1205292  41.8354263  32.6915016  43.3866501  40.6288567  31.3626099
  41.7484436  40.0514412  32.7562485  42.2061157  39.5194664  33.5902977
  41.5343208  39.2152367  32.0906563  40.3968353  40.7298622  33.0656738
  39.6523399  39.9555817  32.8804436  40.2624359  41.1728020  34.5230942
  39.6981888  40.5373497  35.4090271  40.7295952  42.4175911  34.8010406
  41.3596840  42.8268585  34.1260681  40.7121429  42.9706001  36.1094475
  41.1043053  42.2289047  36.8052979  41.6977539  44.1878738  36.2144623
  41.7642822  44.5505829  37.2401886  42.6596146  43.7441177  35.9575348
  41.5083466  45.4465714  35.3356705  40.4510574  45.5991211  35.1189346
  41.7910118  46.3776436  35.8268967  42.3704567  45.2489128  34.0073967
  42.5105591  44.0810547  33.5053291  42.7427826  46.2357941  33.3727798
  39.3427963  43.4162102  36.5170822  39.0705032  43.4529037  37.6951942
  38.3780022  43.7209854  35.6007233  38.6416550  43.5554695  34.6398926
  36.9279633  43.7282600  36.0098953  36.7767296  44.2603645  36.9490967
  36.2963486  44.4367599  34.8113976  36.6366653  43.9430389  33.9011612
  35.2143021  44.3394279  34.8997116  36.4741478  45.9698372  34.7784843
  36.9147568  46.6010437  35.8055305  35.9466934  46.5212822  33.8606873
  36.2814140  42.3404350  36.1917191  35.1082687  42.2210884  36.6899414
  37.0017090  41.2714539  35.8544922  37.7850533  41.3091125  35.2180519
  36.4302826  39.9200592  36.0506248  35.3521080  39.9403229  35.8917847
  37.0501251  38.9191933  35.1084595  38.1223984  38.8240166  35.2795563
  36.5437965  37.5449944  35.3041954  35.4572868  37.4676781  35.2640038
  37.1195946  36.9734612  34.5762520  36.8200111  37.1030846  36.2615471
  36.7426491  39.3187027  33.6615028  35.6623917  39.3140068  33.5161858
  37.2374344  40.2676315  33.4545784  37.1823311  38.6108017  32.9588966
  36.6057968  39.5993652  37.5347900  37.6927834  39.5044518  38.0933342
  35.4918365  39.3326073  38.1793022  34.6130409  39.3733406  37.6831627
  35.4851990  38.8387680  39.5920029  36.0140076  39.6085205  40.1540909
  34.0036545  38.8309441  40.1120987  33.4773064  38.2803421  39.3324203
  33.6985703  38.1262703  41.3886337  33.9391212  37.0631676  41.3823242
  34.1813774  38.6314812  42.2251472  32.6390076  38.2341461  41.6205559
  33.4235764  40.2823563  40.1457596  33.3823738  40.7437096  39.1590691
  32.4300957  40.2986336  40.5939140  34.0609398  40.9356117  40.7416801
  36.0511513  37.4115181  39.7158279  36.9646339  37.1563377  40.5302582
  35.5097809  36.4794121  38.9121933  34.8834801  36.7949333  38.1853523
  35.9804802  35.0523491  38.7246284  37.0673714  34.9963417  38.7849197
  35.6110535  34.1494827  39.9745560  36.1314964  33.2045593  39.8184967
  36.0822563  34.7065201  40.7843590  34.1537170  33.9163628  40.2772064
  33.9516983  34.0686607  41.3374367  33.7016907  34.8477325  39.9361458
  33.5325127  32.7083740  39.7939644  33.7174835  31.6169968  40.3473969
  32.7818832  32.7637215  38.7273483  32.3963432  31.9666500  38.2414017
  32.3986588  33.6030884  38.3166199  35.6214943  34.3754692  37.3938789
  34.8862877  34.9850464  36.6212616  36.0004539  33.1110229  37.1433640
  36.5704842  32.6226883  37.8191566  35.5577278  32.2855568  35.9827957
  34.6360970  32.7441902  35.6245308  36.6461716  32.4538002  34.8282852
  36.7108994  33.4826279  34.4741211  37.6375885  32.2698898  35.2422485
  36.4518356  31.4307899  33.6835747  36.5119171  30.3942413  34.0153198
  35.4182587  31.6087284  33.3866501  37.5091324  31.7944317  32.1641998
  36.5904503  33.1126099  31.3296127  36.4030762  33.9067726  32.0523109
  37.0794334  33.4702988  30.4234867  35.5860634  32.7174149  31.1775322
  35.4978447  30.7360916  36.2715988  36.4024734  30.3029175  37.0029602
  34.5954018  29.9961033  35.6154289  33.9584732  30.4833736  35.0014343
  34.4163589  28.5614510  35.7911682  35.3007736  28.1337166  36.2633476
  33.0170364  28.3474903  36.4915123  32.3522110  29.0204124  35.9499550
  32.7188835  27.2993889  36.4652328  32.9330330  28.7746964  37.9935226
  32.9331589  29.8646393  38.0047874  31.5368195  28.4748478  38.5942764
  31.6084137  27.4245853  38.8769913  31.3196754  29.1385021  39.4312439
  30.8312740  28.7581158  37.8132095  34.1074219  28.3206882  38.9148102
  35.0153961  28.8351021  38.6000557  33.9002037  28.5151958  39.9671059
  34.2816277  27.2511177  38.7974548  34.3175354  27.9399605  34.2663383
  33.5282593  28.4423256  33.4566116  35.2283592  26.9506874  33.9061737
  35.8615150  26.5625744  34.5907021  35.3036804  26.2211208  32.6051598
  34.7608833  26.7368507  31.8130150  36.7322235  26.1510258  32.2076111
  37.2408447  25.6724453  33.0444870  36.8660316  25.5743618  31.2923737
  37.4163513  27.5561485  31.9047699  37.3527298  28.2448425  32.7472420
  38.8916359  27.4012756  31.5688400  39.1493225  26.4266701  31.1543045
  39.3155708  28.2687416  31.0629940  39.4332085  27.2635918  32.5047035
  36.8237610  28.1634579  30.6017685  36.5604515  27.3859310  29.8846684
  35.9261246  28.7036171  30.9027348  37.5177269  28.9055252  30.2069988
  34.6555557  24.8650379  32.5696487  34.6167221  24.2295704  33.6065407
  34.2175522  24.2785435  31.4025784  33.9955063  24.9150505  30.6504803
  33.7412338  22.9384346  31.2985420  34.1913338  22.2852211  32.0460892
  32.2482872  22.8147202  31.6537094  32.0512581  23.3123150  32.6032753
  31.8096027  23.2846336  30.7734604  31.7825985  21.4870129  31.8018570
  31.9683342  21.2463093  32.7124405  33.9324265  22.3721066  29.8409863
  33.8644142  23.0691547  28.8735981  33.8958855  20.9968452  29.8369560
  33.9931831  20.4252186  30.6639290  33.6459541  20.2597618  28.6015797
  33.0611191  20.8782158  27.9207039  35.0424004  20.1827431  27.8811226
  35.5952187  19.2641869  28.0779629  34.7569504  20.1544304  26.8295422
  35.5760422  21.1082840  28.0972195  32.9817924  18.9278946  28.8099232
  33.0629425  18.3123722  29.8892841  32.1471443  18.5361900  27.7972641
  32.2771950  19.0143452  26.9171772  31.4112511  17.2409916  27.7848034
  30.5933762  17.3632278  28.4949036  30.6779613  17.2078114  26.4901066
  30.0777874  16.3050213  26.3766975  29.7187595  18.3776283  26.2355804
  28.8002319  18.1326752  26.7688675  30.2063236  19.3515377  26.2789783
  29.3476753  18.3239689  25.2120972  31.6436081  17.2928944  25.4402714
  32.1273232  16.4872437  25.2439289  32.3650284  16.0164700  27.9556293
  33.5671844  16.1078014  27.6516972  31.9264736  14.8855343  28.4854851
  30.5825272  14.6265564  28.9862003  30.0575638  14.0568027  28.2194576
  30.0600128  15.5543985  29.2189884  30.7069283  13.8422365  30.2804031
  29.8111191  13.2612276  30.4996300  30.7858295  14.4664106  31.1705055
  31.9334564  13.0498257  30.0495529  31.6909485  12.1071138  29.5590591
  32.5180016  12.6750345  30.8897552  32.7848282  13.8713112  29.0521202
  33.4661598  14.4216051  29.7010212  33.5789680  13.0359640  28.0270214
  34.1862297  12.0588236  28.5019665  33.6388893  13.3135986  26.7672195
  33.1011047  14.1070032  26.4487877  34.4803085  12.6412077  25.8009758
  34.5051613  11.5826960  26.0598888  33.7744293  12.7495079  24.4613705
  34.5239639  12.7182598  23.6705971  33.2039261  11.8282080  24.3437691
  32.8533630  13.9632730  24.2338200  31.9398651  13.8804913  23.2968998
  32.9380455  15.0311460  24.8517609  35.8395500  13.2152567  25.7164211
  36.8365707  12.5665751  25.3518009  35.8463097  14.5858173  26.0039043
  34.9477005  15.0335007  26.1142845  36.9798698  15.4286480  25.7357311
  37.5808258  14.9517326  24.9614544  36.4721680  16.7440262  25.1236115
  35.9382591  17.2595768  25.9218903  37.3404083  17.3728924  24.9266644
  35.7100830  16.7765064  23.8272648  34.8382454  16.1234131  23.8655529
  35.1369514  18.1973057  23.7433891  34.8616714  18.5287914  22.7421703
  34.2483749  18.3415051  24.3579960  35.7834129  19.0367107  23.9994946
  36.4109039  16.5103226  22.5168095  37.0090523  15.6107588  22.6620502
  35.7396011  16.5137520  21.6580639  37.0372887  17.3714657  22.2840576
  37.9819832  15.6141739  26.9098167  37.6809273  16.1839447  27.9486732
  39.2647972  15.2450905  26.7540417  39.5370865  14.8760166  25.8541832
  40.2101707  14.9245996  27.9033527  39.6851959  15.4348688  28.7109051
  40.1356812  13.3901634  28.2245522  40.6648445  12.8286629  27.4546127
  40.7774963  13.1221666  29.0638123  38.7955208  12.8180666  28.4683533
  37.8555145  13.3179836  29.4287548  38.0070190  14.0544529  30.1031132
  36.8248329  12.4186497  29.4232998  36.0048218  12.3264132  30.1200619
  37.0291481  11.5248289  28.4956570  36.3749847  10.7862749  28.2795391
  38.2415161  11.7182198  27.8402233  38.5766983  11.1386499  26.9927845
  41.6687393  15.4291277  27.6475391  42.4460373  15.3900728  28.5435143
  42.1474686  15.7461166  26.4419098  41.6301460  15.5518837  25.5964813
  43.6146889  15.9302092  26.2442837  44.1040535  14.9566555  26.2157345
  43.7066689  16.5962772  24.8871231  43.4909172  15.9288301  24.0528221
  43.1061745  17.5024433  24.8072891  44.7448845  16.8928146  24.7378922
  44.3214493  16.8765488  27.2019043  45.4890289  16.6187077  27.5608635
  43.6392365  17.9178581  27.6972847  42.6451683  17.8770695  27.5233326
  44.1956406  19.1346321  28.3774471  44.9746056  18.8579750  29.0879211
  44.6897278  20.1384792  27.2243233  45.3758392  19.5778370  26.5894737
  43.5321541  20.6457443  26.3222389  42.7384262  21.0487022  26.9513035
  43.7881851  21.3498154  25.5305099  43.0592308  19.7798538  25.8589058
  45.4697456  21.1995029  27.8900318  46.0126152  21.7724800  27.1383095
  44.8438072  21.8858509  28.4603195  46.1530800  20.8142853  28.6468391
  43.0529671  19.8860703  29.1249866  41.8785744  19.8266220  28.6936817
  43.4358330  20.7187157  30.0861359  44.4093018  20.7178459  30.3553162
  42.4332581  21.6097050  30.8073235  41.5178375  21.0301552  30.9266090
  42.9597664  22.0279961  32.1202850  43.8853836  22.6015968  32.0721626
  42.1923409  22.6968384  32.5099106  43.0781670  20.8699837  33.1230469
  41.9188690  20.5452919  33.8549309  41.0193367  21.1214008  33.6957207
  41.9241257  19.5012932  34.8121147  41.0627174  19.2794476  35.4246178
  43.0441513  18.7075138  34.9559822  42.9867668  17.9508114  35.7244301
  44.1944847  19.0740299  34.2638702  45.1415482  18.5654373  34.3678436
  44.2544823  20.1904564  33.4149323  45.1547050  20.4745502  32.8902473
  42.1866798  22.8667946  29.8788643  43.1270714  23.6125031  29.6038342
  40.8956223  23.3158741  29.6022625  39.6391907  22.6048164  29.8264484
  39.6330605  22.0815907  30.7826385  39.5710907  21.7814693  29.1154156
  38.5030670  23.6038475  29.5658035  38.3533859  24.1621780  30.4899044
  37.5077858  23.2099876  29.3599033  39.0938797  24.4847012  28.4741726
  38.5787888  25.4427319  28.5446224  39.0151901  23.9120178  27.5500832
  40.6515045  24.5111427  28.7967262  41.1036758  24.2599335  27.8372822
  41.3070831  25.8275871  29.4628010  41.2853317  26.9735088  28.9101849
  41.6870918  25.6913643  30.7415180  41.6751556  24.7801208  31.1769428
  42.3025322  26.7661362  31.4952793  41.5920181  27.5858841  31.6015053
  42.5826302  26.1895046  32.9112129  43.2658157  25.3750801  32.6702271
  43.2920113  26.8763523  33.3728676  41.6982918  25.7981663  33.4141083
  43.6679153  27.2438316  30.7864418  44.0552292  28.3879223  30.6367130
  44.3157997  26.3266315  30.0665283  44.0401077  25.3558941  30.1085300
  45.5311623  26.6731358  29.3073692  46.2605400  27.2189827  29.9058342
  46.2159920  25.4353027  28.8943119  46.5900536  24.9238453  29.7812119
  45.4354782  24.7632008  28.5376873  47.3355064  25.5125103  27.8970985
  46.8819008  25.6419811  26.9144573  48.0575905  26.2717934  28.1973991
  48.2736130  24.3124027  27.7453575  48.8635216  24.2483349  28.6596889
  47.7754440  23.3496761  27.6309624  49.2144089  24.4131260  26.5227489
  48.6565399  24.4107418  25.5863285  49.9292793  25.2292976  26.6272526
  50.1165810  23.1534805  26.3490906  50.7026749  22.9545059  27.1472149
  49.4882622  22.3658276  26.2789536  50.7022476  23.1525707  25.5262337
  45.2758865  27.5824604  28.1646385  46.2167320  28.2881851  27.6965733
  44.0247765  27.6996326  27.7100010  43.3371048  27.0917511  28.1315346
  43.6067963  28.6458511  26.6735859  44.3858185  28.7382641  25.9168262
  42.3750839  28.1451130  25.8215561  42.7941895  27.2891426  25.2926273
  41.6017456  27.8471050  26.5295410  42.0627823  28.8553295  25.0559444
  43.3126373  30.0523491  27.2335968  43.5385971  31.0805397  26.5960159
  42.8345451  30.1822014  28.4885521  42.8272743  29.4274330  29.1596508
  42.5743446  31.5204239  29.0556984  41.9524384  32.0785217  28.3557968
  41.9535599  31.4167385  30.4820156  42.7273903  31.1319370  31.1948891
  41.4844933  32.7212982  31.0503864  42.2819710  33.4464951  31.2123280
  40.6500511  33.0639000  30.4384823  41.0740814  32.5434189  32.0443764
  40.7858391  30.3416767  30.6483555  39.8733521  30.5898247  30.1062412
  41.2546158  29.4891834  30.1568241  40.5584717  30.1974030  31.7045650
  43.8841057  32.3033371  29.2311287  43.9220123  33.5303993  29.1498699
  45.0078735  31.5811253  29.3738422  44.8917694  30.5830421  29.2716198
  46.3343048  32.1282196  29.6124859  46.0581741  33.0348740  30.1508427
  47.2865715  31.0857124  30.3485031  47.2332840  30.0908165  29.9064121
  48.2526245  31.5708809  30.2090359  46.9551964  31.0743504  31.8359356
  47.0705719  32.1282043  32.0892715  45.9137688  30.7623844  31.9147148
  47.6523705  30.1778069  32.8289413  48.7223930  30.3777561  32.8852692
  47.2447090  30.3584213  33.8235741  47.5915451  28.7107430  32.3761978
  48.2214050  28.4347057  31.6364803  46.7930374  27.8173752  32.8785629
  45.8023262  28.0526409  33.6738892  45.3280411  27.2447948  34.0514336
  45.5221214  28.9659672  34.0016365  46.9838181  26.5279770  32.5323830
  46.4335976  25.8523769  33.0431900  47.8566628  26.2421112  32.1122322
  47.0133629  32.6171570  28.3026218  48.1973343  33.0164261  28.2154274
  46.2955704  32.5038109  27.1468449  45.3799057  32.0841560  27.0723648
  46.7728806  32.8543358  25.7959976  47.8304176  32.6073151  25.7027378
  46.0905113  32.0175018  24.7647324  45.0128288  32.1622162  24.6888256
  46.5769768  32.2789955  23.8250141  46.4116173  30.5504112  24.9433823
  46.1964417  30.1845932  25.9473629  45.7631073  30.0181313  24.2475281
  47.7987709  30.0521603  24.5114002  48.7617836  30.3221264  25.2396660
  47.8994484  29.4485130  23.4114304  46.4964333  34.3440132  25.5152950
  46.5845032  34.8554230  24.3550072  46.0544090  35.0827942  26.5109863
  45.9662132  34.5766602  27.3805561  45.5218887  36.4291611  26.4354973
  45.8242989  36.8009834  25.4565201  44.0294762  36.4661980  26.6730862
  43.8036652  36.4146080  27.7381916  43.7119751  37.4332733  26.2831421
  43.1018600  35.4329185  26.0235519  43.4757042  34.4624901  26.3500633
  41.6826477  35.5511055  26.6643562  41.0903969  34.6985207  26.3320293
  41.8034782  35.4106712  27.7384968  41.2388725  36.5359650  26.5186939
  43.1261368  35.3366623  24.5008106  44.1537018  35.1591530  24.1834774
  42.6525345  34.3764687  24.2962780  42.7279320  36.1774063  23.9327526
  46.2516594  37.2161446  27.4365425  46.7808456  36.7039757  28.4757195
  46.2730217  38.5205917  27.2467403  46.1172676  38.8414383  26.3018074
  47.0746498  39.5097084  27.9760780  48.0655365  39.1241302  28.2160263
  47.3304405  40.8321915  27.3225880  46.3725967  41.3432579  27.2253933
  47.8431625  41.4744415  28.0386410  47.8145866  40.6131592  26.0426273
  48.5590897  41.1970711  25.8802528  46.4298096  39.8217735  29.3151379
  45.4627419  40.5953484  29.4557190  47.0512466  39.4973450  30.4628792
  47.9674034  39.0874329  30.3500519  46.5919266  39.8131828  31.8768654
  47.5024643  39.7562256  32.4733353  46.1852684  40.8209076  31.9618111
  45.5386581  38.8704681  32.4722557  45.2980690  38.8139725  33.7110138
  44.8769493  38.0233650  31.6800880  44.9807358  38.2351379  30.6980076
  43.8573952  37.0397301  32.0416107  43.0948257  37.3921013  32.7361755
  43.1380386  36.4535522  30.7773762  43.8343163  36.0021477  30.0706005
  42.6236382  35.5322876  31.0508022  42.1609154  37.3489723  30.0894318
  42.4573059  38.2802505  29.1893520  43.4619522  38.4585800  28.8353977
  41.4561157  39.0676613  28.9149914  41.5080910  39.9031601  28.3498917
  40.3088531  38.7022820  29.5792465  39.0062790  39.2137451  29.7813282
  38.7759514  40.1424866  29.2805443  38.0964508  38.4160652  30.4329281
  37.0973969  38.8028870  30.5695343  38.4594421  37.1743774  31.0373154
  37.7469101  36.7773781  31.7451935  39.7189827  36.6679077  30.9191589
  40.0064354  35.7998238  31.4937897  40.6959877  37.4645844  30.1949825
  44.5679703  35.8682709  32.7742920  43.9389534  35.1421623  33.5412598
  45.8970184  35.7627144  32.7346039  46.4818192  36.4921684  32.3525085
  46.5855446  34.7188301  33.5470428  46.1524200  33.7302208  33.3948669
  48.0486031  34.6400146  33.0697784  48.3179436  33.6344719  33.3929558
  47.9843559  34.6070328  31.9821720  49.1180382  35.4561539  33.6390915
  49.1434822  35.3618698  34.7247047  50.0884819  35.0773888  33.3183403
  49.1500397  36.9278755  33.3759537  48.1542587  37.4821663  32.8928680
  50.2862892  37.6567612  33.4917450  50.3587189  38.6394234  33.2698441
  51.0961113  37.2858467  33.9678841  46.4333992  34.8586960  35.0822563
  46.6661263  33.8785095  35.7693443  46.0777931  36.0249138  35.5988731
  45.8783264  36.7867889  34.9665337  45.7503166  36.0442772  37.0677834
  46.3735886  35.3618393  37.6456337  46.0558205  37.4187813  37.6439056
  45.2433662  38.1023102  37.3972969  46.0313873  37.3125648  38.7284393
  47.4181175  37.9416695  37.2435379  48.6570892  37.4092522  37.7470131
  48.6391220  36.6117363  38.4750595  49.8982048  37.8687592  37.3806992
  50.7988777  37.4751740  37.8282204  49.9794121  38.9019470  36.4167366
  51.2026978  39.5172577  36.1586113  52.0134697  39.1052208  36.4659805
  48.8252983  39.4865685  35.9362297  48.9513855  40.3393974  35.2857018
  47.5494461  39.0540085  36.3311310  46.6542244  39.5318527  35.9614792
  44.2854233  35.7044868  37.4625130  44.0895309  35.5558205  38.6924019
  43.3846931  35.5435295  36.4421349  43.6696930  35.5899429  35.4742928
  41.9927979  35.4034195  36.7482300  41.6689949  36.1441345  37.4793930
  41.0710411  35.6170616  35.5083466  41.5855637  35.1354446  34.6768341
  39.6379356  35.1089783  35.6388016  39.2820206  35.1599197  36.6677971
  39.0988312  35.6272430  34.8457909  39.6020279  34.0476456  35.3930664
  41.0072937  37.1327477  35.1561584  40.7896843  37.2446060  34.0939751
  40.2409897  37.4820900  35.8481407  42.0365601  37.4453392  35.3322182
  41.8023834  33.9468575  37.2687416  42.3199120  33.0050774  36.6640739
  41.1269035  33.8073883  38.4458580  40.4637604  34.7545967  39.3139801
  39.9386215  35.5291977  38.7551193  41.2332153  35.1767960  39.9603462
  39.5517273  33.9734955  40.2637253  38.6263008  33.7529411  39.7317085
  39.5717583  34.7082138  41.0686417  40.2766838  32.5796738  40.3676720
  39.6006432  31.7297249  40.4607201  41.0595055  32.5446434  41.1253395
  40.8596268  32.4591904  38.9643402  41.8443108  31.9954338  39.0229187
  39.9074783  31.6091881  38.0598984  39.0218582  32.1412964  37.3730545
  40.1898232  30.3008022  38.0039215  41.0389748  30.0559998  38.4929085
  39.5833702  29.2336712  37.2097549  38.5682793  29.6025944  37.0628357
  40.0381699  29.1386147  35.7669640  39.5066757  28.3259735  35.2717514
  39.8035011  30.3458767  34.8883591  38.7188911  30.4507408  34.9151115
  40.3811760  31.1529388  35.3389626  40.2826843  30.1329079  33.9327812
  41.5085983  28.6201115  35.7367020  41.7857208  28.4766617  34.6923218
  42.1576843  29.3917065  36.1507416  41.7955894  27.7186718  36.2781410
  39.4476471  27.8713036  37.9782639  40.1329613  27.4748020  38.9543457
  38.5132866  27.0347481  37.4746895  37.8214531  27.4304810  36.8543129
  38.4020081  25.5871201  37.8140793  39.3485603  25.0530930  37.7306976
  37.6179848  25.3727779  39.1451492  36.6299400  25.8309155  39.1006012
  37.3539162  23.8705025  39.4708061  36.5397873  23.3425350  38.9742775
  38.2819633  23.3291283  39.2871056  37.2002258  23.8277359  40.5490685
  38.3030968  25.9712181  40.1650467  38.9349442  26.5289154  39.7053223
  37.5379982  24.9832420  36.7722473  36.6552200  25.6369553  36.2189255
  37.7189140  23.7023125  36.4160538  38.4709053  23.1680527  36.8273621
  37.0342789  23.0577526  35.3424835  36.6005249  23.8762665  34.7680359
  38.2248230  22.5683632  34.4474068  38.6885300  21.7277317  34.9635658
  37.8530655  22.3032436  33.4576530  39.3601837  23.9679947  33.9720116
  40.3052406  23.7108879  34.8806725  35.9308968  22.0821781  35.8724632
  36.2115974  20.9568424  36.2837372  34.6523705  22.5677891  35.7737045
  34.5192184  23.4126225  35.2364616  33.4121132  21.7816086  36.0124931
  33.3626289  21.4706078  37.0560112  32.2346535  22.7494431  35.6919098
  32.2361679  22.8027515  34.6032143  31.2743359  22.3858910  36.0576057
  32.3687248  24.1540298  36.2555733  32.4873772  24.1775017  37.3388405
  33.2589455  24.6832886  35.9157219  30.9975491  25.2827320  35.8939972
  30.6289101  25.1096382  34.1570854  31.3713951  25.7008629  33.6211090
  30.6714439  24.0630665  33.8554573  29.6159115  25.4438457  33.9329491
  33.3559875  20.5114384  35.1065102  33.3804550  20.5781879  33.8897667
  33.2102661  19.2816677  35.6851273  33.3938522  19.2758121  36.6782837
  32.6760597  18.1217289  35.0143700  33.3211212  17.7846527  34.2029686
  32.5710869  17.0146790  36.0689392  33.5986862  16.8597870  36.3977928
  31.8497257  17.3650513  36.8071671  32.0576668  15.7295570  35.3851013
  31.8709507  14.9928923  36.1664848  31.1149025  15.9252739  34.8742256
  32.8724709  15.0098181  34.3598289  33.9395828  15.4272394  34.0794945
  32.4211235  14.0117016  33.6910591  31.5005627  13.6343946  33.8651733
  33.1464577  13.5931902  33.1264000  31.2961502  18.3855953  34.4559135
  30.4172649  19.0125275  35.1731224  30.9630566  17.8577976  33.2597961
  31.6832924  17.4787769  32.6617126  29.5976982  17.9764500  32.7199440
  29.1938972  18.9374123  33.0386887  29.6790257  17.8669872  31.2042255
  30.5575428  18.4222984  30.8756828  29.8232765  16.8262444  30.9141407
  28.4673977  18.3459682  30.4187183  28.5775127  18.0194263  29.3846264
  27.6770248  17.7544231  30.8807659  28.2127380  19.9296360  30.4905815
  27.5131607  20.3533211  31.4669456  28.7147865  20.6489468  29.6560192
  28.5727024  16.8761692  33.2609901  28.9259529  15.6989336  33.3230171
  27.3227215  17.2141418  33.6799583  27.1157036  18.2014294  33.7300034
  26.1915283  16.2827873  33.8303032  26.4080162  15.6168098  34.6655884
  25.0336914  17.1331463  34.3113937  25.3180943  17.7338829  35.1753006
  24.6167355  17.7967129  33.5538139  23.8342037  16.2672100  34.8014030
  23.4280872  15.7062702  33.9596672  24.2441959  15.6530495  35.6031570
  22.5907421  17.2645569  35.5899429  21.0400944  16.3869171  35.2414131
  21.0745850  15.3128700  35.4239960  20.2905560  16.7637558  35.9373207
  20.8124619  16.4427147  34.1769104  25.9057274  15.4293127  32.6411438
  25.6406021  15.9496431  31.5303268  25.8748722  14.0827913  32.8511581
  26.0348091  13.6741858  33.7608643  25.4573097  13.1611986  31.8062134
  25.9589996  13.4923124  30.8969421  25.9275818  11.7861795  32.2596283
  26.9876442  11.6886845  32.4938545  25.4941368  11.5673122  33.2355042
  25.4644833  10.7164106  31.3305492  25.3582706   9.5240107  31.7570801
  25.0650826  10.9771833  30.1371574  23.9874725  13.2151451  31.5756855
  23.1635113  13.0418482  32.4938049  23.5834122  13.5352592  30.3610077
  24.2174129  13.7254715  29.5981369  22.1644459  13.5239344  29.9712563
  21.6654587  12.9734516  30.7688026  21.6021843  14.9676533  29.8354797
  22.2982960  15.4978895  29.1855736  20.1178665  15.1189623  29.3799744
  19.9851017  14.6701918  28.3955536  19.5199490  14.6156025  30.1397266
  19.8093948  16.1549301  29.2395287  21.6925068  15.6029100  31.1983910
  21.0629730  16.4905014  31.2614059  21.3171864  14.8132095  31.8492432
  22.7240601  15.8472157  31.4519958  21.8990822  12.7698717  28.6456566
  22.6894169  12.8919973  27.6877041  20.8123150  12.0036221  28.5456219
  20.3177643  11.8006544  29.4025497  20.3725796  11.2414646  27.3812675
  21.2068729  10.6191921  27.0574837  19.1832447  10.2888250  27.8300285
  19.3873882   9.8008366  28.7830753  17.8900242  10.9955482  28.0926952
  17.5975418  11.3960400  27.1220455  17.1211891  10.3573847  28.5282879
  18.1474571  11.8726778  28.6863880  18.8823948   9.3434372  26.7875633
  18.8932209   8.4544363  27.1497231  19.9852104  12.2812862  26.2423038
  19.2042007  13.2067270  26.4816399  20.5568390  12.0859556  25.0348034
  21.3460808  11.4643517  24.9308567  20.4918003  13.0254641  23.8687954
  21.0484924  12.6408129  23.0142574  19.4782867  13.3201799  23.5967102
  21.0941525  14.4196215  24.0970669  20.7946529  15.4451551  23.4854603
  22.0387344  14.4999046  25.0349121  22.1355610  13.6793461  25.6157799
  23.0463734  15.5045881  25.2383766  22.5130043  16.4272804  25.4669704
  23.6536503  15.1487417  26.0706577  23.9396114  15.6602430  23.9981174
  24.1382732  14.7213507  23.1854515  24.3994751  16.8816795  23.6927280
  24.2311115  17.6124134  24.3693218  25.2462177  17.2757587  22.6414242
  24.8230381  16.9284706  21.6988678  25.2927265  18.8485012  22.5751095
  24.2602940  19.1932545  22.5174236  25.5957623  19.0929775  23.5931988
  26.2562637  19.5125084  21.5669785  27.3131294  19.2957783  21.7224178
  25.9502907  19.0878086  20.1303768  26.6924610  19.5056667  19.4501781
  25.7016888  18.0303192  20.0408478  25.0546741  19.6656590  19.9021931
  26.2157860  21.0074024  21.6710320  26.1877060  21.5100288  22.6378155
  26.9228077  21.4945927  20.9995632  25.2572422  21.3080502  21.2480640
  26.6722317  16.7199001  22.8985748  27.1757774  16.9634724  23.9892902
  27.2060204  15.9114666  22.0039616  26.6748028  15.7562275  21.1590900
  28.6044903  15.4189529  22.1230221  28.7503624  15.0142918  23.1245556
  28.7146130  14.2230997  21.2172394  28.2582226  14.5871143  20.2967491
  29.7649822  14.0050507  21.0241680  28.0323849  12.8922424  21.6685162
  28.4604893  12.6386223  22.6383114  26.9552898  13.0262642  21.7685471
  28.3107395  11.7696972  20.6659069  27.9082890  12.0420380  19.6902218
  29.3898563  11.6193905  20.6340446  27.8197117  10.4825068  21.1578236
  28.2415791   9.9974232  22.0380630  26.8140526  10.7950258  21.4390411
  27.8633194   9.4783039  20.0896969  27.5161591   8.5719728  20.3692398
  27.3598614   9.7754717  19.2660904  28.8168831   9.2977505  19.8100224
  29.6652756  16.5366211  21.8764839  29.3549423  17.5557537  21.2425308
  30.9021664  16.3289738  22.3424892  31.0947227  15.5875349  23.0007381
  32.0461388  17.1375275  22.0273380  32.8558006  16.9772835  22.7392864
  32.4541397  16.6632462  20.5796356  31.7417030  17.0057163  19.8291378
  33.3904648  17.1779728  20.3640938  32.8000031  15.1715584  20.6168957
  33.5763435  15.0147552  21.3657665  31.9377403  14.5651407  20.8941345
  33.2318687  14.6835718  19.2074890  32.3533592  14.7779627  18.5691948
  33.9949074  15.3215027  18.7614918  33.6925240  13.1778708  19.4847088
  34.2320518  12.9241600  18.5722160  34.3295250  13.1765318  20.3692036
  32.5596428  12.2274342  19.6013889  32.7414169  11.2366362  19.5280190
  31.9088993  12.2956343  20.3707924  32.0546074  12.3338213  18.7332153
  31.9000874  18.6918888  21.9911594  32.0472755  19.3415756  20.9976616
  31.4422951  19.1974812  23.2099476  31.6441898  18.6307831  24.0212383
  31.2080688  20.5905266  23.4395065  31.5629272  21.1923218  22.6028366
  29.6734142  20.8264332  23.4366760  29.2273960  20.5003471  22.4970818
  29.2578964  20.1814880  24.2109432  29.3303318  22.5302086  23.9395962
  29.6948910  23.0569534  22.7671928  32.0793228  21.2166004  24.6187763
  32.3261871  20.5401764  25.5977249  32.4466591  22.5158997  24.6046982
  32.0034866  23.0825233  23.8957329  33.2538872  23.2342529  25.5557003
  33.2613449  22.7376385  26.5259686  34.6565590  23.5821877  25.0068684
  34.6201935  24.0498104  24.0229416  35.3983421  24.5565948  25.9327469
  36.4006042  24.6829834  25.5233612  34.8483353  25.4974365  25.9122868
  35.5728836  24.1632004  26.9341831  35.5390167  22.2794857  24.7813721
  35.9880524  21.9673176  25.7242489  34.9054909  21.4479370  24.4727097
  36.5475922  22.4288311  23.6842194  36.0764694  22.7928753  22.7711906
  37.3194122  23.1612873  23.9206543  36.9833183  21.4738827  23.3904171
  32.4710960  24.5237408  25.9477463  31.8604851  25.2670975  25.1706295
  32.4884987  24.8748989  27.3099937  33.0464287  24.2916718  27.9171715
  31.7341766  25.9880905  27.9310970  31.3069592  26.6500530  27.1778431
  30.4798336  25.3803596  28.6010723  30.7577896  24.7294388  29.4300117
  29.8389816  26.1659641  29.0013657  29.6979370  24.5391712  27.5335522
  29.4146938  25.2148323  26.7264862  30.3051128  23.6875629  27.2266254
  28.3490086  24.0174580  28.0071373  27.5392857  24.7461185  27.9683762
  27.9445591  23.2715740  27.3228989  28.2540188  23.2185764  29.2670326
  28.6239834  22.2791214  29.2925472  27.6787453  23.6592598  30.3850975
  26.9982414  24.7927170  30.4899902  26.8453999  25.0272770  31.4604149
  26.6521397  25.2502747  29.6587543  27.7465878  23.0555458  31.5437031
  27.1450367  23.2936382  32.3193016  27.9659863  22.0727196  31.4661198
  32.4603424  26.8037682  29.0066891  33.4483109  26.3635845  29.6116619
  31.8802109  27.9942284  29.3247814  31.0449162  28.2324047  28.8093567
  32.3249016  28.9281883  30.3540325  33.0251694  28.4654236  31.0494251
  33.0867920  30.0390205  29.6163921  34.0147285  29.6744556  29.1757908
  32.2731400  30.7539558  28.5454540  32.0021477  29.9296951  27.8857079
  31.3721294  31.2026062  28.9637756  32.9367294  31.4560604  28.0406818
  33.7122154  31.0401936  30.5947800  34.3324776  30.5044327  31.3133392
  34.2575073  31.7906609  30.0224533  32.9730721  31.6341286  31.1323757
  31.1099377  29.4824429  31.0204716  30.0637875  29.5620823  30.3899250
  31.3076458  29.9728222  32.2269325  32.2183266  29.6724129  32.5439682
  30.5229969  31.0214577  32.9578705  30.0361576  31.6470299  32.2097092
  29.5629768  30.4038563  34.0663872  28.7991695  29.7601128  33.6301575
  30.1848412  29.8745308  34.7883301  28.8487835  31.5530834  34.8509560
  29.6600342  31.9593315  35.4550552  28.5453243  32.4217148  34.2665787
  27.5483494  31.0785446  36.0296974  26.2084122  30.8149357  34.9142723
  25.3440971  30.5801048  35.5354881  25.9297829  31.7267704  34.3860435
  26.3674660  30.0077972  34.1991997  31.6192894  31.8493710  33.6855164
  32.5417519  31.3520088  34.3559685  31.6049194  33.1643143  33.3718948
  30.9415989  33.4908028  32.6837730  32.4324875  34.1192322  34.1084023
  32.9072685  33.6957397  34.9934654  33.5440636  34.6103325  33.1768379
  34.3433342  35.1499901  33.6848068  33.9260750  33.6506920  32.8286171
  33.0001144  35.4583321  31.9992447  32.1437721  34.9947166  31.5095139
  32.6516991  36.4097328  32.4011841  34.3774986  35.8274193  30.8348732
  33.9526711  37.4531593  30.1308346  34.7717552  37.6669998  29.4441910
  32.9899979  37.5128670  29.6230984  33.9560585  38.1772118  30.9455967
  31.6537704  35.2718506  34.6786308  30.5263195  35.6160164  34.2781219
  32.2122917  36.0288963  35.6625290  33.1149940  35.6844215  35.9567566
  31.5156345  36.9605064  36.5599785  30.4958172  37.0709419  36.1913643
  31.4894428  36.4476776  37.9792595  32.5367889  36.4636345  38.2807808
  30.5889263  37.1812897  38.9677734  30.7144260  38.2640343  38.9631996
  29.5767956  36.8612518  38.7202568  30.6964340  36.6733093  39.9261589
  31.1799831  35.0556755  38.0613708  30.2327023  34.9066467  38.0161057
  32.1818581  38.3484573  36.4533043  33.3820610  38.4481010  36.5125542
  31.4039326  39.3827705  36.1064224  30.4312859  39.1726570  35.9334755
  31.8963394  40.7516251  35.5666580  32.9751740  40.7916679  35.7170563
  31.7247066  40.8601227  34.0556183  30.6611290  40.9299202  33.8275070
  32.4487915  42.1339264  33.5370636  32.5075989  42.2739105  32.4576874
  32.1094475  43.0844765  33.9486465  33.5186005  42.1257973  33.7457466
  32.3820190  39.7117195  33.3203392  32.2773628  39.8929138  32.2506104
  33.4395294  39.6292992  33.5712929  31.7941475  38.7992516  33.4198799
  31.3746223  41.9640694  36.2968864  30.1346931  42.0494232  36.5333481
  32.2076225  42.9428902  36.7113037  33.1703339  42.6534691  36.8088913
  31.8304958  44.2735710  37.1060066  30.9353828  44.1787682  37.7207298
  33.0795364  44.9964256  37.6416435  33.2805862  44.4244690  38.5474854
  33.9867554  45.0693245  37.0418549  32.8390999  46.5282631  38.0057945
  32.8960915  47.0639229  37.0582085  31.8186188  46.6347771  38.3737221
  33.8618584  47.0501900  38.9891205  33.5869217  47.2000580  40.1767616
  35.0916443  47.3558464  38.5194130  35.7753372  47.3746796  39.2625885
  35.4401169  46.9387016  37.6681480  31.3297443  45.0418282  35.8400345
  32.1147003  45.5798912  35.0995293  30.0010338  45.1368904  35.6510811
  29.4416161  44.6775284  36.3554535  29.3503284  45.9092636  34.4721146
  29.9227581  46.7756157  34.1406670  29.3475208  44.8110313  33.3192444
  30.4138222  44.6162186  33.2045746  28.7679005  43.3531570  33.5204086
  28.9837227  43.0303688  34.5389023  27.6790447  43.3133736  33.4904633
  29.1237030  42.6592712  32.7588081  28.8861809  45.3313560  32.0653725
  29.5545349  45.9574928  31.7775249  27.9013195  46.3161354  34.7438240
  27.1365948  45.5377617  35.3387527  27.5465450  47.5678864  34.4070091
  28.2136555  48.1026039  33.8692894  26.1755676  48.1211014  34.5434418
  25.7600136  47.5932274  35.4017982  26.2446976  49.5745239  34.8173904
  25.3033638  49.9747353  35.1939850  27.0043106  49.6330643  35.5969162
  26.5794849  50.4483757  33.5571213  27.3503323  49.9254684  32.7380676
  26.1656437  51.6393700  33.5121078  25.2583466  47.7973671  33.3077545
  24.0987034  48.2234993  33.2567215  25.7150230  46.9692230  32.3526382
  26.6662579  46.6300964  32.3682594  24.9305058  46.8339920  31.0678558
  24.7272129  47.8061142  30.6186848  25.8161545  46.1308594  30.0092831
  26.1037025  45.1550674  30.4007568  25.0526505  45.8194542  28.7586498
  24.4578152  46.6366653  28.3506832  25.6376247  45.2766418  28.0161800
  24.4999485  44.9471474  29.1075096  26.9475880  47.0422134  29.5406532
  27.7115688  46.5364838  28.9501705  26.6027889  47.8721924  28.9239273
  27.4392586  47.3906059  30.4489365  23.7345009  46.0250893  31.4523201
  23.8253441  45.1339607  32.2493858  22.5541172  46.2629128  30.8695621
  22.2596455  47.4025803  30.0784569  22.5351257  47.3065605  29.0282230
  22.7921028  48.2686081  30.4716282  20.7763138  47.7870712  30.3075581
  20.3759708  48.3379669  29.4564743  20.6688023  48.3640480  31.2260590
  20.2203865  46.3488007  30.4610920  19.9760666  45.9511871  29.4760475
  19.2667751  46.3169785  30.9880867  21.2953110  45.5642815  31.1559906
  21.0568600  45.5110626  32.2182541  21.4499836  44.0448341  30.8571014
  22.0577660  43.6797943  29.9153175  20.7872429  43.1882820  31.7027073
  20.2758961  43.6335564  32.4512749  20.8409214  41.6816406  31.5414162
  21.8630981  41.4160767  31.8111172  19.9595795  41.0150681  32.5181770
  18.9764957  41.4802818  32.4459305  19.8392639  39.9627609  32.2607307
  20.4675026  41.0532494  34.0319595  21.3946877  40.4808693  34.0035553
  20.5459671  42.1189995  34.2467155  19.4635715  40.4675713  35.0531273
  18.3309231  40.7668991  35.0867195  19.8498535  39.5938683  36.0070610
  20.8306675  39.4012718  36.1520195  19.2589016  39.4480324  36.8130455
  20.5529537  41.1449852  30.1089993  21.1494522  40.1036072  29.6821461
  19.7537823  41.8325348  29.3014183  19.3301678  42.6993828  29.6001263
  19.3316078  41.4646263  27.9526768  19.2646561  40.4012756  27.7226562
  17.9944839  42.0597878  27.7754345  17.5161057  41.7013969  26.8639469
  17.4113655  41.7234650  28.6327324  17.7967834  43.5942993  27.7585545
  17.2079792  44.1117439  26.8122444  18.3735352  44.2257843  28.7013702
  20.3097496  42.0198479  26.8988991  20.4421864  41.5157776  25.7798233
  21.0405712  43.0475769  27.2504616  20.8838310  43.4078140  28.1809254
  22.0570221  43.7188072  26.4708652  21.7678642  43.5916939  25.4276333
  22.0373402  45.2080269  26.6293678  22.2416229  45.4845428  27.6637306
  22.7794971  45.5805359  25.9232960  20.7293510  45.8936386  26.2814217
  19.9821663  45.7748871  27.0660954  21.0062866  46.9398994  26.1519718
  20.1670513  45.4603004  24.9176502  20.6398182  45.6962547  23.8301468
  19.0913734  44.7511444  24.9621391  18.5951004  44.7007065  25.8403587
  18.7289104  44.3078918  24.1301231  23.4218388  43.0741386  26.5682964
  24.2760067  43.2475357  25.6940403  23.6515026  42.2089996  27.5995140
  22.9145088  42.0011635  28.2581120  24.7224617  41.2634926  27.6195507
  25.5701580  41.9203148  27.4243641  25.0804100  40.6459389  28.9616318
  24.1619377  40.1729546  29.3091869  26.1370335  39.5714493  28.8763618
  27.0457554  40.0840569  28.5608406  26.2028503  39.0014458  29.8031101
  25.9011860  38.7904129  28.1535492  25.3814201  41.6994133  30.0560341
  26.3449574  42.1775360  29.8796959  24.6025410  42.4601860  30.0043430
  25.3865452  41.0187874  31.4530811  26.3168011  40.4568062  31.5361919
  25.5072041  41.7215767  32.2774773  24.4797993  40.4214439  31.5484371
  24.7126827  40.2114296  26.4682655  23.7278709  39.5325470  26.2101746
  25.8132210  40.1584969  25.7059269  26.5848236  40.7287140  26.0214996
  25.9536724  39.2455826  24.5781116  24.9868240  38.9374313  24.1801796
  26.5866776  39.9579239  23.3212433  27.3934612  40.6194954  23.6367168
  27.1357174  39.2144165  22.7434425  25.5751648  40.6607132  22.3916035
  24.7733879  39.9971237  22.0677109  25.2091732  41.5019684  22.9801941
  26.2840958  41.1634865  21.0841541  27.1698914  41.7446251  21.3405628
  26.6523209  40.2585869  20.6007481  25.3601856  41.9032898  20.2103882
  24.3699741  41.7103157  20.2587929  25.6885662  42.7628593  19.1913891
  26.8716717  43.1303787  18.8147316  27.1250095  43.8413048  18.1435299
  27.6131573  42.4669342  18.9883404  24.6821213  43.3433838  18.6064701
  23.7346363  43.2320290  18.9380894  24.9470177  44.1328850  18.0349674
  26.7039490  37.9693451  24.9194107  27.9228878  37.8800507  24.7530613
  25.9356632  36.9975700  25.4400387  24.9715614  37.2451935  25.6111832
  26.3181934  35.5719681  25.6307945  27.2238655  35.4991302  26.2329235
  25.1445961  34.8636818  26.4423695  24.3155022  34.7132263  25.7509460
  25.5595970  33.9234161  26.8053703  24.6979084  35.5734444  27.7490234
  25.5329723  35.7184868  28.8395367  24.8724403  36.5976028  29.6123428
  25.2969074  37.0005684  30.5200043  23.7422791  37.0185699  29.0827389
  23.2084045  37.8003540  29.4347248  23.5467529  36.2895279  27.8961010
  22.7497845  36.4330215  27.1815033  26.6874218  34.8333397  24.3044186
  25.8088303  34.8075333  23.4310265  27.9536285  34.4745636  24.0962563
  28.7293491  34.7167664  24.6960030  28.3742676  33.9236298  22.8206577
  27.7689552  34.3837929  22.0396633  29.8932400  34.1988068  22.4584827
  30.4912758  33.8496017  23.3002148  30.3443718  33.4976387  21.2499142
  31.3024731  33.8801880  20.8980618  30.3902912  32.4416389  21.5161114
  29.5332680  33.6397934  20.5357666  29.9480038  35.7544327  22.1725674
  29.4357662  36.0102692  21.2450638  29.3766518  36.3488579  22.8855305
  30.9735603  36.1168289  22.2433281  28.1130772  32.4385185  22.7029419
  28.5872746  31.5623493  23.4392338  27.5367870  32.0399857  21.5917721
  26.9752655  32.6598053  21.0255356  27.3321190  30.6084671  21.2302303
  27.9486904  29.9969711  21.8890285  25.8991680  30.0549526  21.5297298
  25.2240353  30.6089954  20.8775539  25.7704544  29.0085831  21.2528820
  25.4962959  30.1385632  22.9829426  25.5745258  29.1314678  23.9385490
  25.9008942  28.1530933  23.6181316  25.3013096  29.3519726  25.3101959
  25.4714260  28.5004768  25.9523926  24.7880821  30.5560055  25.7501354
  24.5028572  30.7185802  27.0914021  24.1897316  29.9086533  27.5007553
  24.6619358  31.5467701  24.7218399  24.3017406  32.5218506  25.0148830
  24.8892727  31.3045349  23.3635197  24.6971989  32.1008453  22.6596737
  27.8125839  30.3919029  19.8029118  27.4161453  31.0880451  18.8840179
  28.6481171  29.3583336  19.6401024  28.9414921  28.7007828  20.3483810
  29.4403267  29.0845737  18.4262085  29.0015984  29.5404987  17.5386562
  30.9224968  29.6200142  18.6805115  31.1904564  29.1309738  19.6170692
  31.5354061  29.2363453  17.8648891  31.1187172  31.1531124  18.8444786
  30.2392235  31.5011253  19.3862133  32.4029884  31.4037514  19.6961670
  32.8129005  32.4000702  19.5305786  32.1370697  31.2295513  20.7387829
  33.1901131  30.7005215  19.4241447  31.4346218  31.8490238  17.5290489
  32.0788078  31.1845131  16.9532375  30.4746170  31.9162846  17.0172215
  31.7698936  32.8524666  17.7913342  29.4037590  27.6514320  17.9885788
  28.9099274  26.7813873  18.6759892  29.7416306  27.3305550  16.7425976
  30.1130753  28.0666256  16.1592197  29.5843334  26.0101414  16.1247387
  29.6958065  26.0922260  15.0435658  30.7968521  25.0938530  16.4472523
  30.8892231  25.0223083  17.5309715  30.6378212  24.1550560  15.9167147
  32.1800728  25.6768265  15.9723949  32.2812157  26.5115185  16.6660519
  32.9662399  24.9882984  16.2821865  32.1799355  26.0226955  14.4887438
  32.3195305  27.2309742  14.1341496  31.9921532  25.1019096  13.6438227
  28.2522411  25.2598228  16.2220039  27.2270260  25.7986298  15.7137413
  28.2205334  24.0341473  16.7833576  29.0451107  23.6620541  17.2324886
  26.9966488  23.3280716  17.0953503  26.3482342  23.8104954  16.3639641
  27.1597233  21.8261127  16.7268887  28.0083542  21.4016914  17.2633533
  26.3381443  21.2282066  17.1213818  27.2612991  21.6514664  15.1762486
  26.3710423  22.0793571  14.7153244  28.1261673  22.2163391  14.8283653
  27.2659950  20.1860962  14.6695805  26.3760033  19.6536121  15.0049562
  27.2873554  20.2260456  13.5805216  28.5320396  19.5290604  15.2730532
  29.3898125  20.2014961  15.2603827  28.3493481  19.3214455  16.3273869
  28.8633537  18.1906319  14.6229429  29.6711521  17.7201633  15.0053425
  28.1467457  17.5154934  14.8482533  28.8595066  18.2499390  13.6146936
  26.4655037  23.5801945  18.5006027  25.3079987  23.2209225  18.7331028
  27.2334576  24.1833458  19.3623352  28.2068863  24.3977318  19.1992970
  26.7542191  24.5336647  20.6676083  26.2274265  23.7322979  21.1856842
  27.9863243  24.9658222  21.4767227  28.4763279  25.8527832  21.0751114
  27.6888676  25.1488876  22.5092487  28.8233509  24.2718410  21.4000797
  25.6593323  25.6011200  20.6064796  25.0599785  25.9954815  21.6217175
  25.3202419  26.1539669  19.4075718  25.9828243  25.8907089  18.6921768
  24.2239361  27.1059742  19.1469231  24.4602127  28.0803986  19.5744343
  24.0799389  27.3837318  17.6492767  24.0269337  26.3972111  17.1887684
  22.7724781  28.1015816  17.1439495  21.9258804  27.5305309  17.5251083
  22.6823864  29.1607990  17.3848724  22.6596088  27.9005241  16.0786171
  25.3477688  28.1867924  17.1761189  25.4568157  29.0977936  17.7645721
  26.3018646  27.6633244  17.2376308  25.2412376  28.4937057  16.1356602
  22.9925308  26.6536636  19.7853432  22.3150196  27.5574131  20.3267784
  22.6458435  25.3391361  19.8442078  23.2009754  24.6814041  19.3157063
  21.4072514  24.8430977  20.5742893  20.5240536  25.3429413  20.1765137
  21.2025127  23.3236446  20.2090778  20.2054195  23.0356522  20.5421906
  21.1924477  23.1657734  18.6540527  20.8998375  22.1303329  18.4798336
  20.5419674  23.9339428  18.2358513  22.1988945  23.3116207  18.2617607
  22.2544613  22.3672085  20.7297020  22.0788383  22.3062553  21.8037338
  22.0528202  21.3835583  20.3055820  23.2215996  22.7717628  20.4312458
  21.3655109  25.0938168  22.0604782  20.3120956  24.9191685  22.7089787
  22.4862099  25.5771046  22.6455078  23.2257195  25.8569107  22.0170708
  22.5602589  25.7359428  24.0819321  21.9100628  24.9958515  24.5484219
  24.0057640  25.3430195  24.6156216  24.6529236  26.1258106  24.2199955
  24.0950203  25.4111023  25.6998272  24.3723202  23.8719749  24.2658081
  24.4303474  23.7469349  23.1845551  25.7185993  23.5245152  24.9542656
  25.9411278  22.5289135  24.5704021  26.5670853  24.1717319  24.7322712
  25.5452328  23.5517120  26.0300465  23.3226776  22.7898884  24.6111984
  22.4713402  22.7690182  23.9308357  23.7525444  21.7882519  24.6048641
  22.9568462  22.9984875  25.6165619  22.2324944  27.1779671  24.5558662
  22.4294682  27.5108814  25.7172966  21.8992825  28.0799179  23.6534519
  21.8310795  27.7618160  22.6972828  21.5902214  29.4765167  23.9898586
  22.4958878  29.8560562  24.4629498  21.3470192  30.3841763  22.7432480
  21.2007771  31.4106693  23.0794411  22.3067932  30.3308487  22.2293491
  20.0282459  29.9680691  21.9100037  19.8730392  28.8931141  21.8179092
  19.1421890  30.3658905  22.4047260  19.9781513  30.6049671  20.4712391
  19.8461952  31.6707649  20.6577034  20.8474312  30.2202225  19.9379234
  18.7292557  30.1546898  19.8029060  17.8848419  30.6989670  19.9069653
  18.4709778  28.9869328  19.2068558  19.2312298  27.9460506  19.3542156
  20.0756264  27.9644089  19.9080715  18.8567162  27.0542297  19.0635357
  17.3546600  28.8625755  18.5025425  16.6921654  29.6222992  18.4391365
  17.1509762  28.0224648  17.9802151  20.3567829  29.6444283  24.8819084
  19.6683502  28.6392879  25.0979443  20.0473881  30.7879086  25.5065594
  21.0100403  31.8787804  25.7240257  21.0370274  32.4603081  24.8025055
  22.0258446  31.5596294  25.9572353  20.5841999  32.5977478  27.0069542
  20.9769821  33.6144104  26.9921951  21.0349216  32.0664368  27.8452015
  19.0709534  32.4047508  27.0324783  18.5928516  33.1086121  26.3512287
  18.6749973  32.4497299  28.0470219  18.9572048  30.9862499  26.4090805
  18.9844627  30.2357559  27.1990967  17.5413265  30.8807545  25.8110695
  16.6166325  30.5155373  26.4970493  17.4331303  31.3536301  24.5752106
  18.2181110  31.7761497  24.1004658  16.1694565  31.2313557  23.7918625
  16.3947906  31.5260944  22.7669449  15.7540646  29.7434902  23.6306534
  16.5272007  29.0420189  23.3171253  15.3930092  29.2377834  24.5261993
  14.5360107  29.6026440  22.6826077  14.2119942  30.4772663  21.8479061
  13.9343882  28.4648571  22.7508430  15.0739861  32.2118874  24.2958260
  14.0181799  31.7693367  24.6838322  15.4385777  33.4698448  24.4120522
  16.2941628  33.8384399  24.0219021  14.6075583  34.4256248  25.0835571
  14.4787674  34.1157341  26.1206131  15.4741488  35.7542496  25.1415577
  15.6415977  36.0593224  24.1086044  14.9725962  36.5124016  25.7430115
  16.8015175  35.6069794  25.8867607  17.3344612  34.7566376  25.4613304
  17.6140690  36.8328209  25.7388496  17.0781593  37.6224670  26.2654991
  18.5757542  36.7495232  26.2451344  17.8006725  37.0332718  24.6838150
  16.6203728  35.3347893  27.3898144  15.9714212  36.1261444  27.7649364
  17.5653210  35.3856506  27.9307251  16.2085171  34.3327065  27.5094261
  13.2431583  34.5654144  24.3757038  13.1428995  34.4487495  23.1636868
  12.1962109  34.8686943  25.1069736  12.2684813  34.8718681  26.1143799
  10.8274565  35.1183853  24.6172600  10.7748137  35.6002731  23.6409855
  10.1680756  33.7709084  24.3844986  10.6512489  33.2880554  23.5350914
  10.1994944  33.1421013  25.2742825   8.8994246  33.9536705  23.9557343
   8.6056767  33.0653305  23.7408810  10.0941620  36.1695213  25.4895554
   9.6335135  35.9130287  26.6436214   9.9904604  37.4767685  25.1131210
  10.5694189  37.7774620  24.3420906   9.4363899  38.6413002  25.7193317
  10.0418434  38.7287178  26.6214867   9.5113983  39.8285179  24.7702885
  10.5431080  39.9400520  24.4367676   8.7820435  39.5673180  24.0035324
   9.0786180  41.1632080  25.3373413   8.1551208  41.0594826  25.9069862
  10.1396914  41.7406464  26.2494392  10.3514757  41.0470581  27.0631847
   9.8786602  42.6712685  26.7533321  11.0104799  41.9162636  25.6177902
   8.8486300  42.1995392  24.2231998   8.2576303  43.0156517  24.6388702
   9.7727928  42.6220589  23.8288631   8.3272486  41.7502518  23.3779774
   8.0263367  38.3602524  26.2711525   7.7692580  38.8707428  27.3940105
   7.2158237  37.3910179  25.7965775   7.5924168  36.9064980  24.9943810
   5.8286104  37.1501541  26.2124195   5.2998643  38.0731430  26.4503651
   4.9850602  36.3843613  25.0904732   4.0339723  36.0754585  25.5241909
   4.6837068  37.3264999  23.9404125   5.5525293  37.6943855  23.3946018
   4.1541691  36.7393532  23.1901131   4.1041632  38.1943626  24.2551212
   5.6198874  35.1871376  24.5399303   5.7315111  34.5577965  25.2562199
   5.7786689  36.3905106  27.5216160   4.6209679  36.1613083  28.0065041
   6.8789334  35.9300003  28.1038265   7.7276301  36.0474815  27.5690250
   6.9097233  35.2748108  29.3637924   5.9834013  34.7225113  29.5218887
   8.0755768  34.3185196  29.4287281   9.0656385  34.7354698  29.2442589
   8.0523081  33.9023705  30.4358940   8.0149698  33.1247787  28.4723148
   7.1327806  32.5134048  28.6622200   7.9685478  33.5329781  27.4626961
   9.1784639  32.1002769  28.5162659   9.1938448  31.6585407  29.5126286
   9.0216026  31.2270565  27.8830357  10.4969988  32.8456383  28.2980194
  10.4684401  33.4186401  27.3712234  10.6985273  33.4664574  29.1709862
  11.6142168  31.8619099  28.2960987  11.4783564  31.0986366  28.9434433
  11.6171656  31.3440170  27.4289856  12.4878864  32.3425255  28.4567566
   7.0165944  36.1292763  30.5586014   6.9383354  35.6696854  31.6929798
   7.2474208  37.4527245  30.3752899   7.3251090  37.7733650  29.4206905
   7.2061586  38.5051575  31.4374390   7.7086153  38.0641060  32.2983170
   8.0987358  39.7184525  30.9466057   7.6231160  40.1616707  30.0717087
   8.0060272  40.4324379  31.7649765   9.5654440  39.4728813  30.5681610
  10.2299366  38.5208435  30.8610344  10.1587315  40.4014549  29.8055210
   9.5951977  41.1793594  29.4934425  11.0550604  40.1672707  29.4032135
   5.7655039  38.9210434  31.7461262   4.8288560  38.5634918  31.0369911
   5.5583577  39.7139702  32.8447723   6.3666353  40.1549187  33.2599258
   4.2414312  40.1320419  33.4555626   3.3585141  39.6637459  33.0205269
   4.2460771  39.6407814  34.9216843   3.4351287  40.1744080  35.4173698
   3.9856784  38.1206131  35.1655960   3.0083857  37.9022331  34.7351227
   4.7665138  37.4399490  34.8263206   3.9245281  37.9001999  36.2313309
   5.4287205  39.8417320  35.5928459   5.4389906  40.7153473  35.9907036
   4.0021567  41.6255722  33.3709030   4.8073897  42.4490089  33.8558350
   2.7982140  42.0501404  32.9923859   2.1918166  41.3268471  32.6329041
   2.1770430  43.3262024  33.4460869   2.9590859  44.0698776  33.2929420
   0.9838100  43.5922737  32.4869537   0.4159403  42.6623077  32.4589386
   0.2887061  44.3195419  32.9064980   1.5032213  43.9818230  31.1010571
   1.8355184  43.0411110  30.6620350   0.6193523  44.3368301  30.5711040
   2.4283609  45.1065369  31.1357555   3.4826267  45.0211449  30.3962822
   2.2867215  46.0632858  31.9073162   1.9799927  43.4024582  34.9609337
   2.2107179  42.3654099  35.6628342   1.5276699  44.5714264  35.4171524
   1.2564605  45.2499504  34.7199097   1.5072604  44.8969002  36.8938065
   2.0829263  44.1065178  37.3754883   2.2508233  46.2142067  37.0131645
   3.1596730  46.2972641  36.4171829   1.6703614  47.0932159  36.7329750
   2.6619012  46.4797211  38.4857559   1.7571326  46.4461555  39.0926895
   3.6998711  45.4591179  39.1268501   3.3962443  44.4315643  38.9267540
   4.7553449  45.5265846  38.8631935   3.7329969  45.6162338  40.2049599
   3.2128413  47.8853264  38.6781731   2.5274930  48.7143288  38.5016785
   3.6825845  47.9072838  39.6615143   4.0194445  48.0268250  37.9588203
   0.1660013  44.8838921  37.5686760  -0.0812840  43.8730812  38.2595520
  -0.7516114  45.6721878  37.2413864  33.5030823  47.6672516  48.2487144
  33.3301315  48.0937881  47.3496819  32.6950188  47.0681190  48.3390808
  33.5311089  48.4147949  48.9273109  34.7624664  46.9938469  48.1790428
  35.5217857  47.6852570  47.8136826  35.2502365  46.4453011  49.5783844
  35.1843796  47.2059975  50.3562660  34.6079521  45.6014099  49.8302116
  36.6142120  45.8530197  49.5097122  36.6573296  45.2111778  48.6297836
  37.3624535  46.5836258  49.2023849  37.3072395  45.0685120  50.9594612
  37.3347702  46.4434586  52.1153908  37.5198364  47.3982277  51.6231728
  36.3436279  46.4794159  52.5675545  38.0495338  46.2294464  52.9100037
  34.5953217  45.9296532  47.0567551  33.8152580  45.0089417  47.1318398
  35.4378242  45.9645500  46.0267334  36.1908112  46.6337318  46.0995941
  35.3615112  45.0989761  44.8403625  34.3473549  45.1708908  44.4474068
  36.4641953  45.5206375  43.8504105  36.4523659  46.5713577  43.5606728
  37.3937950  45.3992386  44.4064751  36.5780182  44.4513550  42.7124786
  37.5036697  44.7370949  42.2128601  36.8770485  43.4973030  43.1466026
  35.2255592  44.5266418  41.5893211  36.0984764  44.1081924  40.0750885
  36.4209518  43.0670319  40.0848312  35.3751717  44.1865044  39.2634277
  36.8968239  44.8366280  39.9332352  35.4881287  43.6262207  45.2719955
  36.1292839  43.3285255  46.2480431  34.6973495  42.6856155  44.6632805
  34.1290016  42.9725723  43.8792305  34.7052193  41.2710152  45.0247765
  35.0627060  41.1749268  46.0499954  33.2781677  40.7394104  45.1726837
  33.4001732  39.6899490  45.4407234  32.4738960  41.4877663  46.3483582
  32.2494431  42.4793625  45.9553528  31.5742588  40.9496765  46.6470451
  33.0381737  41.6514435  47.2664566  32.4321060  40.7246475  43.8998718
  31.9563122  41.7052383  43.8870964  32.9915848  40.7519150  42.9648094
  31.3200417  39.7389793  43.7946663  31.8475380  38.7905807  43.8965912
  30.7325134  39.7585526  44.7125626  30.7295704  39.8126488  42.8814240
  35.5374718  40.3712273  44.0810280  35.6208801  40.6604729  42.8614769
  36.4145775  39.4368515  44.5028839  36.3969727  39.2840309  45.5010986
  37.4339066  38.6942711  43.7233429  37.1273155  38.7031288  42.6773872
  38.7304611  39.4125366  43.7275658  39.1830482  39.3760452  44.7184906
  39.2655144  38.8217850  42.9840355  38.8002281  40.8404465  43.2502518
  38.3670998  40.8820267  42.2508583  38.4169960  41.5468712  43.9865913
  40.2310753  41.4503479  43.1318054  40.6271324  41.7020454  44.1156197
  40.8720245  40.6696968  42.7220802  40.2874756  42.6806755  42.2632904
  40.7176399  43.5133858  42.6396561  39.9053116  42.8174515  40.9930801
  39.4353256  41.8555946  40.2244377  39.2266998  40.9138069  40.5237885
  39.2214317  42.1731682  39.2898216  40.0335350  43.9791985  40.4271088
  39.8481598  44.1515121  39.4493332  40.3250847  44.7744064  40.9773331
  37.6375809  37.2713737  44.1666679  37.4890671  37.0222855  45.3226280
  37.9663429  36.3452568  43.2314873  38.0281410  36.5536995  42.2451630
  38.1999016  34.9248810  43.5761452  37.4878654  34.5515747  44.3121834
  38.0495033  34.3632545  42.6541595  39.5574722  34.5912437  44.1666336
  40.5335464  35.0478745  43.5503998  39.5780182  33.8240395  45.2144318
  38.7049713  33.6964264  45.7059669  40.6962738  33.0862274  45.7222481
  41.5818253  33.5802269  45.3224220  40.7173271  33.1410980  47.2989540
  39.7708435  32.7656555  47.6879425  41.8693008  32.3199692  47.8897743
  41.6783180  31.2653370  47.6913643  42.8434334  32.6748695  47.5533028
  41.8951530  32.2828331  48.9788361  40.6647224  34.6099434  47.8917007
  41.5034752  35.1576157  47.4619865  39.7364006  35.1104774  47.6164093
  40.8499680  34.6706123  49.4565735  41.8761368  34.3786926  49.6798782
  40.7664261  35.7002487  49.8043747  39.9957695  34.1921158  49.9356194
  40.6526833  31.5961075  45.2419167  39.5761566  31.0341454  45.0634270
  41.8241081  30.9917564  45.0741425  42.6508675  31.5662937  44.9936638
  42.0743484  29.5808067  44.7648315  41.1106911  29.0761013  44.6959877
  42.8450432  29.5291405  43.4272308  43.5477180  30.3535309  43.3058701
  43.4047890  28.5965691  43.3557968  41.9167786  29.5691738  42.2890015
  41.4646263  30.5501804  42.1431084  42.4617920  29.4057312  41.3592987
  40.8503799  28.4729614  42.2635498  40.0203705  28.7393341  42.9179420
  40.3699951  28.6125393  41.2951241  41.3463478  27.1802139  42.6938324
  41.2099495  26.9011879  43.6548996  41.9968109  26.2401028  41.9617271
  42.3937683  26.4154758  40.7404633  43.0999107  25.8123131  40.3434067
  42.1149521  27.2970486  40.3340263  42.1879158  25.0805511  42.4875908
  42.5876656  24.4704247  41.7889824  41.8631516  24.7963772  43.4007568
  42.9438705  28.9551601  45.8596916  43.8676338  29.5819588  46.3521919
  42.7858849  27.6342907  45.9867783  41.8685951  27.2307987  45.8607826
  43.8442612  26.7404270  46.3977890  44.7750015  26.9932632  45.8899574
  44.0324516  26.6916523  47.4703140  43.6626625  25.2392902  45.9433250
  42.5500870  24.8720722  45.5368080  44.6767464  24.3608818  46.0376625
  45.5918617  24.7109909  46.2827873  44.5886955  22.9062099  45.8098106
  43.5362129  22.6917057  45.9951935  44.9419403  22.6273785  44.3466377
  45.7648048  23.2080135  43.9296646  44.9950714  21.5412064  44.2724457
  44.1445122  23.0051613  43.7067223  45.5080910  22.1734715  46.7766457
  46.5664711  22.6627884  47.1797485  45.1394577  20.8874493  47.0680428
  44.2459030  20.6500607  46.6614647  45.8343201  19.9211826  47.8888512
  46.9165459  20.0168190  47.8008652  45.4638748  20.2207527  49.3683815
  45.5413933  21.2871494  49.5802536  44.0811386  19.6206322  49.6782036
  43.8756866  19.9145699  50.7075157  43.3681870  20.1020927  49.0088768
  44.0823326  18.5349998  49.7756767  46.3937035  19.5830021  50.1814270
  46.4122238  20.0442848  51.0231361  45.6157494  18.4861031  47.5318375
  44.6801186  18.2588539  46.7193222  46.4095306  17.5444851  47.9494972
  47.2091484  17.7581940  48.5283241  46.3162270  16.0754070  47.6154022
  45.3733521  15.9187260  47.0914383  47.3913460  15.6107712  46.6111221
  47.2020073  14.5464411  46.4716415  47.2708130  16.2319107  45.2210960
  47.3629494  17.3116989  45.3379860  48.0644417  15.7459888  44.6535263
  46.2820435  15.9598103  44.8517647  48.6312294  15.7835979  47.1436729
  48.7188454  14.9992352  47.6902084  46.4251595  15.0752592  48.7950287
  46.7963676  15.3496437  49.9069710  45.9218712  13.8216524  48.5558701
  45.4186745  13.6030464  47.7078705  45.9330788  12.6909695  49.4939041
  46.5049858  12.9126558  50.3949509  44.5428085  12.3637047  50.0258636
  44.6416359  11.5777044  50.7745590  43.7323380  13.4392529  50.7614594
  44.3037376  13.8456020  51.5960197  43.5427895  14.2719040  50.0840607
  42.8314743  12.9296131  51.1032448  43.5661850  11.9780645  48.9646530
  43.3482666  12.7790756  48.2582588  43.8380051  11.0610151  48.4419365
  42.5800438  11.7403421  49.3635445  46.5306931  11.4403486  48.9398613
  46.5869789  11.2648010  47.7571602  46.9571762  10.5123110  49.7728348
  47.0495987  10.7287035  50.7550430  47.3556900   9.2123852  49.2391434
  47.6476021   9.3293934  48.1954994  48.5294952   8.6364498  50.0605774
  48.2462692   8.6046658  51.1126595  48.7523155   7.6586614  49.6335182
  49.8582993   9.4911842  50.0440140  49.7837982  10.2691593  50.8038177
  50.6413956   8.8324099  50.4193573  50.1662254  10.2031679  48.6902199
  50.6579094   9.5471821  47.7226028  50.1026917  11.4463911  48.6628189
  46.2777138   8.1871834  49.4379234  46.3981552   7.1274219  48.8983994
  45.1771202   8.4470863  50.1883087  45.0644913   9.3687134  50.5858269
  44.1031761   7.4305406  50.4458847  44.1271553   6.5693417  49.7781563
  44.3354607   6.8915315  51.8787498  44.1345711   7.6738873  52.6106377
  43.6771202   6.0667295  52.1514931  45.7712975   6.3599987  52.1180382
  45.9953079   5.6536293  51.3186874  46.4856834   7.1701908  51.9719582
  46.0561600   5.7392964  53.4200401  45.3245430   4.9318528  53.3904305
  47.1143990   5.4788566  53.4399185  45.7699089   6.6330466  54.5912361
  46.2181435   7.5379076  54.6116295  45.0968437   6.3471956  55.7274017
  44.6546402   5.1814971  56.0581741  44.7753601   4.2697554  55.6407394
  44.1625328   5.0997658  56.9363861  44.7919197   7.2761664  56.5751915
  45.0659904   8.2257967  56.3673668  44.2403984   7.0784612  57.3978958
  42.6913490   7.9792442  50.1728630  42.4714355   9.1491795  50.4423714
  41.7798080   7.1274576  49.6755486  42.0026932   6.1544032  49.5219688
  40.3093796   7.3987308  49.5684052  40.2382889   8.4609432  49.3344154
  39.6646614   6.7259269  48.3338852  40.3908157   6.8629136  47.5326118
  39.5898132   5.6554546  48.5251617  38.2905121   7.2992120  47.9311142
  37.8477554   8.2989178  48.5285683  37.6563263   6.6579366  47.0690231
  39.6527672   7.0840378  50.9161186  39.1584511   5.9907765  51.1717377
  39.7020988   8.0489759  51.8449554  40.3239517   8.8329697  51.7080154
  39.1704330   7.9763861  53.2252541  38.2322960   7.4217801  53.2048950
  40.1611786   6.9894257  54.0238800  40.1302414   5.9856725  53.6000595
  41.5985794   7.4125800  54.2559586  42.2789268   6.6857853  54.6998024
  42.0464172   7.6682491  53.2956581  41.6412506   8.3512869  54.8083229
  39.6734238   6.9674172  55.3191566  38.7439804   6.7272234  55.3130569
  39.0242004   9.3240852  53.8809319  39.7957687  10.2391109  53.6646004
  38.0787926   9.4130716  54.7517090  37.4833488   8.6097145  54.8937225
  37.7860870  10.6588469  55.4587364  37.6141205  11.4328594  54.7107887
  36.5059166  10.3108530  56.2143860  35.7957306  10.1306868  55.4073715
  36.6515160   9.5114107  56.9408798  36.0636292  11.6334620  56.8872910
  36.7339439  11.8987617  57.7048454  36.0514412  12.4292088  56.1424828
  34.5975227  11.6035290  57.2969589  34.3495941  12.4029388  58.1863060
  33.7431068  10.8142681  56.8106728  38.8797760  11.1376324  56.4632683
  39.0728226  12.3894997  56.5450478  39.6929474  10.2370291  56.8951874
  39.4621544   9.3000898  56.5968933  40.9142609  10.4047947  57.7331390
  40.6339493  11.0969439  58.5271530  41.3801575   9.1196060  58.4011269
  40.6941986   8.8320265  59.1979065  41.3657570   8.3591042  57.6204033
  42.8048096   9.1565027  58.9058952  43.4431343   9.1425524  58.0224648
  42.9394989  10.0084352  59.5723572  43.1699219   7.9378629  59.7165070
  43.9591331   7.1353197  59.2345047  42.6685028   7.7951245  60.8486252
  42.0018158  11.1949511  56.9770699  42.7056656  11.9911280  57.5788879
  41.9755516  11.1403198  55.6203995  41.2683868  10.5623827  55.1891212
  42.8197098  12.0047112  54.8226280  43.6908188  12.3046017  55.4051590
  43.4591370  11.1632986  53.6731415  42.6866570  10.6893244  53.0675659
  43.8930054  11.9432659  53.0474319  44.4843330  10.1035261  54.1399879
  44.0309181   9.1468325  54.3993111  45.0125542   9.7752457  53.2448235
  45.5419922  10.5168715  55.1426315  45.8701172   9.7072496  55.9961891
  46.1317558  11.6262913  55.1386375  42.1289864  13.2343464  54.2550812
  42.5202255  14.3547812  54.4889221  40.9854813  13.0136843  53.5518646
  40.6498871  12.0615511  53.5215874  40.3607826  14.0970783  52.7415581
  41.0652924  14.5652256  52.0540848  39.1737213  13.4663191  51.9266014
  38.6138840  12.8599396  52.6386337  38.3704758  14.4701157  51.1580582
  37.5769119  14.1210899  50.4973450  37.7711525  15.0645294  51.8476830
  38.9277573  15.0672359  50.4362679  39.6924133  12.4841881  50.8917046
  40.0150566  12.9899130  49.9816246  40.4574738  11.9052372  51.4090042
  38.5501328  11.4613943  50.4962730  37.9874077  11.0604200  51.3392792
  37.7594795  11.8758488  49.8708191  39.0155373  10.5389290  50.1490479
  39.9219818  15.2148962  53.6275101  40.3462372  16.3406181  53.3087730
  39.2606201  15.0099955  54.7758980  39.3418007  14.0694408  55.1348801
  38.8335419  16.2105865  55.5309334  38.4006004  16.9503632  54.8575935
  37.7715569  15.7233419  56.5159111  37.0836563  15.0473337  56.0080681
  38.2513618  15.0059366  57.1816559  36.9923515  16.7904873  57.3302879
  36.7693291  17.5881424  56.6216927  35.6971169  16.2170048  57.8224907
  35.8909607  15.4907646  58.6118584  35.1257744  17.0232830  58.2824745
  35.1151390  15.7323885  57.0385628  37.6487694  17.3938560  58.5733833
  36.9335899  17.7253876  59.3261833  38.2593956  16.7206192  59.1750412
  38.3054581  18.2010860  58.2489738  39.9794426  16.9305458  56.2877388
  40.0016823  18.1462002  56.4427681  40.9879608  16.1556396  56.6331406
  41.0529518  15.2620907  56.1668243  42.2000275  16.7114906  57.2262993
  41.9882507  17.4455280  58.0037575  42.9856644  15.5867119  57.9437027
  43.1422462  14.7185736  57.3034515  43.9010162  16.0041332  58.3632202
  42.0090141  14.9702988  59.0897064  41.1976280  14.4218988  58.6111565
  42.5865936  14.2252188  59.6368446  41.3242340  15.8593731  60.1119080
  41.8092079  16.8481731  60.6234932  40.1159477  15.5541077  60.4794006
  39.6354408  14.7235088  60.1642456  39.6182747  16.0916214  61.1747437
  43.0301857  17.6050224  56.3173523  43.3158302  18.7539959  56.6920166
  43.4259720  17.1040821  55.1026802  43.1662636  16.1408463  54.9451027
  44.2632866  17.8096466  54.0986366  45.0776939  18.3021164  54.6299667
  44.8221092  16.8019962  52.9812660  44.1171265  15.9873276  52.8156929
  44.9929962  17.3413200  52.0495834  46.1735344  16.2211323  53.2652473
  46.4852180  15.8135414  52.3035698  46.8425560  17.0087605  53.6118774
  46.3507538  15.0460758  54.3191605  45.9242630  15.2693014  55.2971077
  45.8501816  14.1558695  53.9382935  47.8095131  14.7485409  54.6536407
  48.1643333  14.4054775  53.6817818  48.1827354  15.6919260  55.0521774
  47.8993149  13.6080322  55.5931740  47.3813171  12.8549404  55.1634865
  48.8322678  13.3635740  55.8930702  47.4383469  13.8198147  56.4665337
  43.3924904  18.9154034  53.6140556  43.9445992  20.0388184  53.5779495
  42.0614281  18.7623672  53.4003830  41.5730743  17.8819637  53.4809952
  41.1870041  19.9410934  53.1490288  41.5177345  20.4219265  52.2284164
  39.7529640  19.5982647  52.9327164  39.3069458  19.1862106  53.8379135
  38.7989044  20.7135181  52.2791328  37.9078255  20.2373295  51.8700790
  38.5435829  21.3895493  53.0951576  39.3762054  21.3478813  51.6065216
  39.4972878  18.5095940  52.0460358  39.8741798  17.7699280  52.5281639
  41.2161026  21.0608597  54.2383766  41.2437325  22.2724667  53.9436493
  41.2299995  20.6591568  55.5280571  40.9813385  19.6875496  55.6474152
  41.3959770  21.6313076  56.6296196  40.6933098  22.4457817  56.4535866
  40.8575020  21.0520496  57.9534721  39.7727127  20.9458179  57.9464912
  41.3557243  20.1136036  58.1967773  41.0196266  22.0288372  59.0890579
  42.0363617  22.4100094  59.1842384  40.4400787  22.9445286  58.9718781
  40.4882660  21.4560680  60.3876762  39.3983536  21.4512367  60.4003906
  40.7846069  20.4107780  60.4751511  40.9528313  22.1786060  61.6683769
  40.6045876  23.2103558  61.6202049  40.5258675  21.7159767  62.5581932
  42.4383202  22.0490322  61.7830963  42.9586143  22.4991913  61.0436630
  42.7892723  22.5161839  62.6069336  42.7345390  21.0880413  61.8771667
  42.7591057  22.3484154  56.7766342  42.8015099  23.5429993  57.0983543
  43.8404427  21.6038284  56.5435524  43.6459846  20.6205997  56.4188728
  45.2120934  22.1343117  56.5630684  45.2594032  22.6086655  57.5433006
  46.1540527  20.9452076  56.5456619  45.9411316  20.4731655  55.5865250
  47.1925774  21.2762070  56.5472031  46.0600929  19.9931030  57.7347069
  46.7147980  20.3175697  58.5435257  45.0516281  19.8727627  58.1304512
  46.5803146  18.6011028  57.5156784  47.2408028  18.3207703  56.5028839
  46.2575188  17.5809402  58.3500328  46.4778976  16.6891670  57.9301720
  45.8607712  17.6915035  59.2722397  45.3767052  23.1935349  55.5454865
  46.0267296  24.2197075  55.8890038  44.7255898  23.0790615  54.3475952
  44.1427650  22.2544155  54.3668747  44.6519661  24.0299759  53.2158699
  45.6165543  24.4638653  52.9524155  44.2680740  23.2482262  51.9560471
  45.0336990  22.5111580  51.7138748  43.3820343  22.6521072  52.1743965
  44.1268692  24.1440334  50.7288475  43.6256142  25.0806370  50.9730339
  45.4728203  24.4655762  50.1803741  45.9538994  23.5218239  49.9234924
  45.3330612  25.2118015  49.3982506  46.0187073  24.9799957  50.9712486
  43.2893524  23.4265957  49.7012100  42.2633972  23.3723793  50.0653114
  43.4213829  24.0609264  48.8246880  43.6906700  22.4393616  49.4722977
  43.7964935  25.2016182  53.5756187  44.2633362  26.3314190  53.2946396
  42.5817413  25.0164261  54.1769943  42.1918297  24.1024151  54.3576927
  41.5805244  26.0709934  54.4638557  41.5107079  26.7323837  53.6002655
  40.1728897  25.4148731  54.7291107  40.3082619  24.4034786  55.1123238
  39.4943390  25.9639797  55.3819160  39.4607697  25.1750965  53.3972588
  40.0435562  24.5285664  52.7411652  38.2311287  24.3258495  53.7530098
  37.5804329  24.8669510  54.4399643  37.6777573  24.0297947  52.8618202
  38.6147308  23.4440632  54.2662392  38.9889069  26.3910313  52.6898956
  39.8799820  26.8947296  52.3152313  38.4651680  25.9295864  51.8527184
  38.3716011  26.9949169  53.3549957  42.1807365  27.0337620  55.5563202
  42.2020988  28.2663002  55.3093681  42.7304688  26.5187836  56.6814728
  42.6247559  25.5372238  56.8947029  43.4530602  27.3734741  57.6589317
  42.6873894  28.0219154  58.0848083  43.8117218  26.6000500  58.9735870
  44.5480423  25.8855057  58.6056747  44.2232704  27.3907928  59.6008453
  42.6372147  25.8249893  59.6753120  42.0496979  26.6825275  60.0032501
  42.0902672  25.2176323  58.9541550  43.0090866  25.0235920  60.8637199
  42.2964630  25.1255093  61.8928413  43.9691849  24.2370205  60.8065605
  44.7079926  28.0865841  57.1175117  45.0657082  29.1365948  57.6132507
  45.4020500  27.4919682  56.1119690  44.9518967  26.6773014  55.7198257
  46.4396744  28.1595078  55.4021873  47.0525589  28.8123112  56.0237389
  47.4126282  27.1494350  54.7141113  47.6263733  26.3193874  55.3874855
  46.9687881  26.7968788  53.7830849  48.8028183  27.6702976  54.3982964
  49.4807892  26.8647480  54.1162567  48.6256714  28.3097897  53.5335617
  49.4622154  28.5420303  55.4386787  49.0451813  29.5351410  55.2715988
  49.1277237  28.1905289  56.4147224  51.0061150  28.7719746  55.2966385
  51.1784439  29.0710373  54.2627296  51.4519463  29.4312992  56.0413704
  51.6675110  27.4292946  55.3356438  51.3265800  26.8715153  54.5657387
  52.6704483  27.5399971  55.2912674  51.3648834  27.0347424  56.2147598
  45.9723930  29.3116989  54.4971085  46.5589981  30.3973618  54.5005379
  44.8747101  29.0686932  53.7355728  44.4878922  28.1357670  53.7465553
  44.1114388  29.9337559  52.8677483  44.8049049  30.2395401  52.0843582
  42.9027214  29.3197002  52.1334724  42.4452896  28.6260967  52.8389969
  41.8555756  30.2894001  51.6162148  40.9694061  29.7999477  51.2121849
  41.4748116  30.8929958  52.4401054  42.3717918  30.8435211  50.8322639
  43.4641876  28.4916954  50.9318771  43.9240646  29.1521244  50.1967278
  44.3353462  27.9053154  51.2240028  42.4590187  27.5548248  50.2251854
  42.1381264  26.8059063  50.9492378  41.5689583  28.0524120  49.8400879
  43.1142044  27.0586853  49.5091705  43.6719322  31.2107372  53.6697540
  43.9035187  32.3759689  53.2209511  43.1556892  31.0240955  54.8908386
  43.2793732  30.0690536  55.1953011  42.5804787  31.9596577  55.8437996
  41.9403915  32.6817665  55.3369026  41.6088829  31.1373882  56.7519417
  42.1674194  30.2401218  57.0184937  41.1904030  31.9273777  57.9942894
  40.6185074  31.3573055  58.7264442  42.0830803  32.2014923  58.5565033
  40.6541214  32.8341599  57.7145615  40.4092674  30.6735725  55.9398041
  39.7072906  31.4553318  55.6496582  40.8340530  30.2418957  55.0335388
  39.5895653  29.5445614  56.6924744  38.8094940  29.0555573  56.1089783
  40.2579536  28.7247448  56.9556427  39.1623573  29.8787479  57.6379471
  43.6697845  32.8566933  56.5963097  43.6427841  34.0832253  56.4729576
  44.7850914  32.1776962  56.9060478  44.8062592  31.2297039  56.5582542
  45.9643478  32.8316307  57.4971313  45.6432648  33.4729576  58.3179283
  46.9275665  31.7432041  58.1378326  46.3056183  31.1453266  58.8040352
  47.2655830  31.0900269  57.3333435  48.1478043  32.2455177  58.8762321
  48.7417336  31.3964634  59.2145424  48.8560448  32.7036362  58.1858559
  47.7215958  33.2685814  59.9068413  48.1248207  34.4742393  59.8851547
  46.7561073  32.8776474  60.6709061  46.7140427  33.6979065  56.4727402
  46.9642792  34.8407974  56.7029533  47.0003967  33.1567459  55.2903519
  46.6112862  32.2503967  55.0730362  47.6741524  33.8722610  54.2100372
  48.6020699  34.2441521  54.6445084  47.9540138  32.9656563  53.0620193
  47.0982933  32.2964058  52.9728851  48.0878868  33.5410118  52.1459656
  49.1456757  31.9504833  53.2332153  48.9893150  31.4578018  54.1928596
  49.0531616  31.1505222  52.4986305  50.5652504  32.4663010  53.0789948
  51.0921440  32.8792725  54.1707382  51.0317230  32.5688820  51.9201927
  46.9105682  35.1043549  53.7605438  47.4594765  36.1789780  53.5232315
  45.6237297  35.0167274  53.5886688  45.1636124  34.1497498  53.8268776
  44.7654228  36.0765076  53.0846558  45.5095291  36.7140312  52.6071892
  43.6851044  35.4696388  52.1221466  43.0730362  34.7959366  52.7218170
  43.0694695  36.3020554  51.7812996  44.2733574  34.9394875  50.8191147
  44.6885033  35.6596489  49.9453850  44.2851219  33.6639938  50.7200546
  44.7641640  33.3422966  49.8911209  44.0470886  33.1222649  51.5385742
  44.0997009  37.0034752  54.1461182  43.5090714  37.9933128  53.7100716
  44.1937599  36.6159706  55.4021797  44.5057182  35.6569252  55.4571381
  43.5460243  37.2238617  56.6492195  43.7314262  36.6550865  57.5603867
  44.2072754  38.5811348  56.8880615  43.7029419  39.2754517  56.2160034
  43.8302956  38.8983040  57.8603745  45.7275238  38.6749229  56.6894073
  46.7374115  37.8592720  57.1405334  46.6511726  37.1673317  57.8712044
  47.8976364  38.2794952  56.6770515  48.8471031  37.8692970  56.9879341
  47.7109375  39.3437843  55.9021873  48.4140244  39.8868980  55.4217796
  46.3347816  39.5687981  55.7899513  45.8541832  40.3377609  55.2033272
  42.0035973  37.0742760  56.6646500  41.2813950  37.9335442  57.0880547
  41.4799309  35.9990845  56.1403122  42.0908699  35.2579613  55.8279114
  40.0328484  35.9793205  55.6335526  39.8228111  36.9091339  55.1049385
  39.8045731  34.8953972  54.5808640  40.0115852  33.9152031  55.0103607
  38.4529419  34.9998779  53.8796005  38.5452309  34.4309082  52.9544754
  37.7857666  34.5039330  54.5845985  38.2213287  36.0509377  53.7071800
  40.7524185  35.0828400  53.5934944  40.3937340  35.7744370  53.0325699
  39.0297623  35.8314362  56.7805061  39.0607033  34.7644310  57.4335861
  38.0446281  36.8078423  56.9053841  38.0780067  37.5516319  56.2229156
  36.8462219  36.7407341  57.6787491  37.1458435  36.0424004  58.4601936
  36.4650269  37.9859200  58.4079437  35.7024269  37.7965965  59.1633873
  37.2809219  38.2538567  59.0792274  36.0216484  39.2347794  57.5433617
  36.8980751  39.7398376  57.1372871  35.2635040  38.8618126  56.8547211
  35.3828125  40.2778091  58.4366341  34.5306931  39.9382057  59.0254135
  36.1405716  40.7116470  59.0890808  34.7015343  41.5078087  57.8258934
  33.9547729  41.2534752  57.0737228  34.2180786  42.0108528  58.6633415
  35.7427940  42.3876915  57.2261696  36.3625832  42.8794518  57.8539734
  36.1240120  41.8122139  56.4888725  35.3439827  43.2146187  56.8051682
  35.6197548  36.0691223  56.8410339  35.5155220  36.4395218  55.6540871
  34.7157860  35.2337952  57.4213295  35.0446548  34.5674706  58.6147079
  34.9388809  35.3109818  59.4047089  36.0522461  34.1709366  58.4897194
  34.0351257  33.4050369  58.7254791  33.6778946  33.3287888  59.7524529
  34.6143990  32.5699692  58.3315201  32.8749046  33.7562866  57.7647476
  32.2028275  34.4586601  58.2577820  32.2750969  32.9642754  57.3163643
  33.5361824  34.6439629  56.7889404  33.8953819  34.0392036  55.9562607
  32.5018501  35.6408691  56.1719284  32.0915375  35.4085007  55.0429153
  32.0812683  36.6046181  56.9848557  32.2951546  36.5180473  57.9681435
  31.2644558  37.7713814  56.4811020  30.2881222  37.3380547  56.2640762
  31.2129650  38.8586693  57.5303345  31.0522938  38.3650627  58.4887924
  32.2058830  39.3083458  57.5279846  30.1261044  39.9134521  57.3627396
  30.4737148  40.6366997  56.6250534  29.2175846  39.5331039  56.8958054
  29.5420990  40.4921455  58.6458626  30.2580185  40.4592209  59.6840210
  28.3966618  40.9701920  58.6450272  31.8373928  38.3895264  55.1858559
  31.0788746  39.0373039  54.5052528  33.1298370  38.3086090  54.9092102
  33.6358414  37.5134850  55.2723122  33.7760544  38.7786446  53.6449509
  33.2966080  39.7258606  53.3979454  35.1808167  39.2328033  53.7828560
  35.7439804  38.4900513  54.3478966  35.7146187  39.3272514  52.8372116
  35.3630981  40.5318947  54.6135101  36.5259094  40.8893509  54.9308434
  34.4194794  41.2752304  54.7117882  33.4981232  37.8842926  52.4032898
  33.4664993  38.2516327  51.2070122  33.2603149  36.5464478  52.6637115
  33.2983818  36.2737427  53.6354523  33.0710716  35.5194855  51.6211281
  33.8910103  35.6994591  50.9258537  33.2207642  34.1651649  52.3286552
  32.3837509  33.9935951  53.0054626  33.2060204  33.0604057  51.3111839
  33.3464737  32.0791893  51.7646065  32.2707481  33.0482407  50.7515259
  33.9739037  33.2345810  50.5574455  34.5445595  33.9572716  53.0985527
  34.9044838  34.8813629  53.5508957  34.5134964  33.2707367  53.9446068
  35.2923393  33.6310616  52.3757019  31.7497387  35.7044144  50.9519272
  30.7250347  35.7912369  51.6405334  31.6973248  35.7266846  49.5941391
  32.6172142  35.7795982  49.1804962  30.4665184  35.6559525  48.7266388
  29.7166748  36.3112144  49.1698837  30.7427063  36.1478500  47.3303375
  31.6164398  35.6586113  46.8998299  29.6078854  35.9502983  46.3812561
  29.6626511  34.8876381  46.1449089  28.7291031  36.3991051  46.8443069
  29.9064121  36.4987869  45.4878693  31.1297894  37.6043777  47.2580299
  31.9724102  37.8244514  47.9135132  31.4222603  37.8849716  46.2461891
  30.3873367  38.2696991  47.6987267  30.0045815  34.2615356  48.6246033
  28.8010693  34.0038261  48.9288216  30.7824707  33.2607956  48.2017822
  31.6982937  33.5724792  47.9115715  30.3922176  31.8461514  48.0370522
  29.8125286  31.5960484  48.9255943  29.4668808  31.4892921  46.8612061
  29.1341019  30.4632416  47.0179787  28.5795612  32.1111298  46.9798622
  30.1134090  31.6961060  45.4662704  30.7036381  32.6114159  45.5103264
  30.6222191  30.8099651  45.0868416  29.0855408  32.0337906  44.4521980
  28.1355133  32.7418442  44.7566872  29.2734089  31.6243267  43.1939583
  29.9981251  30.9620571  42.9567108  28.5540905  31.8912354  42.5371170
  31.6522770  30.9204407  48.0548019  32.7623253  31.3700352  47.7197037
  31.4735107  29.6766644  48.4767647  30.5031548  29.4508877  48.6426964
  32.4806595  28.6068554  48.4857979  33.3853569  29.0586872  48.0790176
  32.5685654  28.2098045  49.9361000  32.9863930  29.1236916  50.3583984
  31.6053410  27.9099464  50.3488808  33.5851593  27.0414543  50.1337967
  33.7333832  26.9771900  51.2117577  33.1735878  26.0573616  49.9095802
  35.1984711  27.2002335  49.3855629  36.1090050  28.0510139  50.6592331
  35.5054169  28.9424725  50.8297882  36.0624123  27.4221821  51.5483322
  37.0992203  28.4332428  50.4112968  32.1727104  27.3900089  47.5319366
  31.1875191  26.6883850  47.7502632  33.0317116  27.0937862  46.5273285
  33.7542877  27.7844925  46.3827286  32.9701118  25.9521770  45.6181107
  32.1141739  25.2965374  45.7781334  32.9549866  26.5484734  44.1578636
  32.0360489  27.1274452  44.0659714  33.7557220  27.2856121  44.0982323
  32.9110184  25.5095310  43.0064049  33.7867813  24.8632069  43.0647736
  31.7793465  24.4777546  43.1550522  30.8415413  24.9643135  43.4231606
  31.5594921  23.9891148  42.2058449  32.0843658  23.7155876  43.8721123
  32.9119797  26.1570549  41.6374702  31.9330921  26.6241035  41.5290527
  33.7519226  26.8400249  41.5104141  33.1236382  25.3734703  40.9099426
  34.2150307  25.0266094  45.7491188  35.3864632  25.4491100  45.5904617
  33.9765778  23.8021908  46.1821098  33.0168915  23.5145931  46.3101158
  35.0284348  22.7535057  46.3620224  36.0358429  23.1554985  46.4699211
  34.6948586  21.8420601  47.5604134  33.7104378  21.3757248  47.5211334
  35.3863945  21.0199680  47.7449265  34.9265594  22.5316525  48.9782639
  34.9339447  21.7828522  49.7703171  36.3410797  23.1183376  49.0158539
  36.3646965  24.0144138  48.3956947  36.6229515  23.4668465  50.0094261
  37.0888748  22.4033737  48.6727371  33.9326668  23.6901665  49.3600655
  33.9912376  24.4879036  48.6196022  32.9695015  23.2063656  49.1977463
  34.2993431  24.0874252  50.3065529  34.9313393  21.8950443  45.0713043
  33.8027344  21.4635792  44.7005844  36.0711975  21.5876255  44.4460258
  36.9610062  21.8017998  44.8731956  36.0813789  20.6489010  43.2997055
  35.0894318  20.2315235  43.1266785  36.4929733  21.3263760  41.9527550
  36.1030502  22.3180370  41.7232552  37.5631523  21.5149307  42.0379753
  36.2919769  20.4691124  40.8409386  36.9402580  20.6295891  40.1513138
  37.0427704  19.4575596  43.5740738  38.0747108  19.6331635  44.1941872
  36.7155762  18.2836609  43.1162453  35.8090820  18.2464218  42.6724167
  37.5047188  17.0679550  43.3203011  38.5473480  17.3851013  43.3412323
  37.0866089  16.4282093  44.6340446  36.9308281  17.1762962  45.4113503
  36.1398125  15.9172726  44.4590569  37.7735786  15.6229334  44.8942680
  37.2866211  16.0505371  42.1920891  36.1758423  15.7413521  41.6507835
  38.4268723  15.3757696  41.8454971  39.2641068  15.5864143  42.3696747
  38.4068108  14.2538662  40.8812294  37.9997368  14.6075058  39.9339561
  39.8332901  13.7792330  40.6662903  39.8120537  13.1562424  39.7721252
  40.8044014  14.8859978  40.2458267  41.6241455  14.4327326  39.6884499
  40.3223457  15.7250118  39.7440491  41.2167397  15.2500687  41.1868553
  40.3947487  13.0228138  41.7386932  41.0968819  12.4348097  41.4508286
  37.6752205  12.9764805  41.3890839  37.6108055  12.7479391  42.5843163
  37.1648521  12.0605783  40.5209618  37.2038612  12.3122320  39.0796013
  38.1980095  12.5511436  38.7018547  36.5128860  13.1276331  38.8656502
  36.7149429  11.0182486  38.4093056  37.6198196  10.4542503  38.1830292
  36.1291542  11.2227373  37.5131302  35.8201485  10.4011450  39.5047760
  35.6776657   9.3338575  39.3353767  34.8576508  10.9053497  39.4183273
  36.5531731  10.7808828  40.7955780  35.8727264  10.7388115  41.6460609
  37.5485954   9.6901941  41.2449265  37.1567688   8.5449457  41.3148880
  38.8091393  10.0104361  41.6232071  38.9542618  11.0099449  41.6276970
  39.6271286   9.1269674  42.4842415  39.7711105   8.1269655  42.0751305
  41.0576172   9.6823130  42.5763512  41.0579872  10.5849075  43.1874352
  41.6050606   8.9673357  43.1905289  41.7903137   9.9629107  41.3152924
  42.0100288   9.0921001  40.3873711  42.1617050  11.1502857  41.3042641
  39.1486778   8.9704952  43.9109344  39.3721123   7.9797726  44.5607300
  38.3714905   9.9441853  44.3088722  38.0554695  10.6498060  43.6590042
  37.8971100  10.1116390  45.6999779  38.3421669   9.3599491  46.3518906
  38.2088356  11.5261316  46.2172089  37.5957260  12.1863317  45.6037483
  37.8296204  11.5409908  47.2390060  39.6856003  11.9604588  46.0512238
  39.8998985  11.9080400  44.9837799  39.9921608  13.3819656  46.5155945
  39.6647148  14.1039429  45.7675095  39.4363098  13.6304293  47.4196968
  41.0491982  13.5875549  46.6844444  40.6414604  11.0639257  46.8587494
  40.5393791  11.1217718  47.9424171  40.5516052  10.0664101  46.4286499
  41.6608925  11.4086142  46.6853867  36.3860168   9.9689732  45.8096886
  35.6314468  10.3957596  44.9534264  35.8383179   9.3632679  46.8760719
  36.5714569   9.1458807  47.5358849  34.4887848   8.9522467  47.1107903
  33.7761879   9.6963911  46.7550392  34.2207031   7.6486211  46.3019638
  34.3968277   6.8285642  46.9980888  33.1417465   7.5548949  46.1788101
  34.8986702   7.3939672  44.9792061  36.2488670   7.0288968  44.7438660
  36.8981857   6.7607951  45.4695435  36.3830719   6.8542447  43.4259377
  37.2404480   6.4657483  42.8964310  35.1867981   7.1615281  42.8093834
  35.0241928   7.2278118  41.8147659  34.2811241   7.4672699  43.7863426
  33.2664223   7.8022213  43.6295547  34.0291862   8.7381372  48.5995903
  32.8475571   8.7664547  48.9356155  34.9269791   8.6705723  49.5578804
  35.8962440   8.5254164  49.3138504  34.6069031   8.4277353  50.9469643
  34.0070457   7.5266080  51.0744324  35.8779335   8.2321577  51.7387047
  35.6661530   7.7846923  52.7097931  36.4388084   7.4094248  51.2952766
  36.5384369   9.0957365  51.8165817  33.7491913   9.5255070  51.5966187
  32.9332085   9.2154446  52.4572525  33.8798370  10.7761011  51.2314796
  34.4113503  10.8797274  50.3789215  33.2919617  12.0265636  51.8182907
  32.2458458  11.8174610  52.0419350  34.0241814  12.2424030  53.1583481
  34.2022171  11.2827892  53.6436768  35.3386993  13.0776854  53.0322838
  35.8642082  13.0355244  53.9863091  36.0184669  12.7416096  52.2492943
  35.1735077  14.1362123  52.8314552  33.1944313  13.2254734  54.0266876
  33.1280670  14.1876965  53.5189247  32.2250290  12.7641582  54.2152328
  33.6606522  13.4289007  54.9907188  33.4133415  13.2526674  50.8365593
  34.3273163  13.2135763  49.9524765  32.5588684  14.2757015  50.8655434
  31.7232437  14.0868578  51.4004898  32.8895950  15.5128222  50.2058182
  33.2000351  15.2516384  49.1941299  31.6402588  16.4561634  50.0974312
  31.3736477  16.6755161  51.1313057  31.9208946  17.3997574  49.6294746
  30.4198112  15.8643370  49.3944511  29.2332554  15.6928234  50.1162949
  29.0788193  16.1906338  51.0621986  28.1565590  14.9739771  49.5482101
  27.2662773  14.7508640  50.1174355  28.1537971  14.6828709  48.1727715
  27.3543320  14.1211691  47.7126083  29.2847099  14.9239426  47.4195900
  29.2797852  14.7029982  46.3624420  30.4197159  15.4222565  48.0870018
  31.3593979  15.5231981  47.5643082  33.9736824  16.2859516  50.9454536
  33.7629662  16.6117973  52.0654869  34.9597816  16.9578171  50.2767906
  35.2090797  16.8787403  48.8055420  34.2990608  16.9729633  48.2130165
  35.7867622  15.9964190  48.5300522  36.0750885  18.0821152  48.4880142
  35.3333397  18.8304291  48.2088470  36.7937241  17.9333191  47.6820831
  36.7213783  18.6092167  49.7981224  36.9102859  19.6821079  49.7618027
  37.6683617  18.1469631  50.0767784  35.7282333  18.1077595  50.8650932
  36.1322289  17.6458473  51.7659378  34.8763275  19.2753849  51.3481865
  35.3214874  20.0330315  52.2003593  33.7036095  19.4997864  50.8498726
  33.4308357  18.8729362  50.1063995  32.7343559  20.5138798  51.2019653
  33.1742325  21.5036411  51.0795631  31.5470810  20.4277935  50.2506332
  31.9136333  20.4467068  49.2242889  31.0446854  19.4703712  50.3886223
  30.9186497  21.3022709  50.4193497  32.3105278  20.3891506  52.7860107
  32.0572929  21.4708405  53.3511009  32.4321899  19.1974640  53.3860435
  32.7709808  18.3505421  52.9524040  32.2601204  18.9473820  54.8704681
  31.2273331  19.2253323  55.0806885  32.4675522  17.4386883  55.1832581
  31.8116512  16.8980656  54.5008926  33.5345879  17.3103504  55.0014114
  32.2821960  17.0569782  56.6061096  33.1089554  17.4030495  57.2264290
  31.4135952  17.5533028  57.0388870  32.1764488  15.4948320  56.7615738
  31.2325687  15.2197752  56.2909012  33.0084038  15.1041670  56.1756325
  32.2186966  14.9862528  58.2129288  33.1802521  15.0022259  58.7260132
  31.4925385  15.5825949  58.7653542  31.9148254  13.5449228  58.3992004
  32.6786499  12.9681129  58.0767593  31.6575947  13.3609467  59.3584099
  31.0819283  13.2512760  57.9091454  33.2630310  19.7745419  55.6765289
  32.9833984  20.1371746  56.8338280  34.4426308  20.0445957  55.0617523
  34.5164185  19.9625225  54.0578003  35.5939445  20.5677776  55.8161316
  35.7271347  19.9716415  56.7189026  36.8204803  20.2808208  54.9913521
  36.6766891  20.7907200  54.0387611  37.6974945  20.5548916  55.5777283
  36.8042831  19.1932201  54.9209099  35.3948784  22.0563545  56.2474251
  36.2831726  22.6555023  56.8815346  34.3814812  22.7973099  55.7570267
  33.5445099  22.2709217  55.5508804  34.2820702  24.2706184  56.0474243
  35.3178368  24.6012363  56.1247749  33.5619011  25.1683578  54.9676323
  32.4911613  25.0807457  55.1518745  34.1232872  26.6212578  55.0269470
  35.2119865  26.6534367  54.9846916  33.7760811  27.1742554  54.1541672
  33.7156830  27.0452309  55.9446640  33.8601570  24.6050892  53.5807762
  34.9370155  24.6471920  53.4173889  33.7623749  23.5225391  53.4993820
  33.2641029  25.0759449  52.7990379  33.6462097  24.5153255  57.4356041
  34.1561661  25.3341484  58.2281418  32.5018883  23.9121647  57.7664108
  31.9980907  23.3201847  57.1215477  31.7810574  24.1710186  59.0547676
  31.7631435  25.2129326  59.3744469  30.3208923  23.6479797  58.9291077
  29.7764606  24.0258026  59.7945213  29.7997513  24.0333576  58.0527534
  30.2200089  22.1023960  58.7402534  30.9069214  21.8428993  57.9347000
  30.5519810  21.6640320  59.6813850  28.8104916  21.5041466  58.4527512
  28.1283455  21.8459072  59.2311935  28.4386559  21.9092827  57.5116272
  28.8057861  20.0112419  58.5005226  29.3710117  19.5414047  59.1932526
  28.1717987  19.0502357  57.7937698  27.3394222  19.3434505  56.8771820
  27.1711597  20.2845268  56.5513573  26.8762589  18.6578064  56.2979813
  28.4406891  17.7962856  58.2035103  28.0225410  17.0697708  57.6400948
  28.8095608  17.5763626  59.1176567  32.5555878  23.5444889  60.1850204
  32.1380577  23.7792377  61.3194923  33.6818390  22.8301773  60.0562935
  33.8556290  22.3632450  59.1777306  34.6410904  22.5350742  61.1546783
  34.0671539  22.0527420  61.9459152  35.7458611  21.6360474  60.5635033
  35.9562645  22.1253319  59.6124840  36.6292763  21.6167850  61.2017097
  35.4093590  20.1271172  60.1689796  34.5519676  20.3336964  59.5284233
  36.3892632  19.7919044  59.8291016  35.0119896  19.1988068  61.3627663
  35.3577766  19.4381065  62.5378036  34.2265930  18.2538414  61.1014595
  35.3162498  23.7980652  61.7854385  36.0311203  23.6633701  62.7356987
  35.1456223  24.9527054  61.1423492  34.6902924  24.9947071  60.2417870
  35.9788895  26.1618233  61.3530922  36.7793274  25.9381618  62.0583458
  36.6349678  26.6080112  60.0523987  35.8998642  26.8263149  59.2777596
  37.1351166  27.5483513  60.2841644  37.5900803  25.6330719  59.4251099
  37.0497322  24.6865902  59.4422493  37.9253082  25.9169044  57.9323578
  38.4942322  26.8464794  57.9146080  38.5895920  25.1134281  57.6141510
  37.0396729  25.8736687  57.2984161  38.8939896  25.3840370  60.2614708
  39.4803200  26.2986794  60.3494530  38.5322533  24.8899841  61.1632233
  39.4984894  24.6277847  59.7607040  35.1531258  27.3169174  61.9901314
  33.9933357  27.5515995  61.6070442  35.7528419  27.9153957  62.9983368
  36.7050476  27.6127625  63.1460571  35.1534157  29.0170364  63.8137360
  34.2434807  28.6026573  64.2477875  36.0558395  29.4584045  65.0648804
  36.6742058  28.6088238  65.3546066  36.7144699  30.2391014  64.6843338
  35.2469292  30.0230999  66.1444016  34.5522766  29.3947392  66.3546906
  34.5505600  30.1594563  63.0135193  35.2440071  30.8901100  62.3983688
  33.2337112  30.3697815  63.0041771  32.6285095  29.6615925  63.3944283
  32.5725250  31.4665756  62.3439636  31.5898075  31.4911423  62.8148804
  33.1577415  32.3853874  62.3814430  32.2614861  31.2308865  60.8766556
  31.4239426  32.0021133  60.3907890  32.6491203  30.1316147  60.2921524
  33.2315178  29.4879990  60.8085556  32.4159203  29.7489071  58.8943329
  32.4895973  30.6541252  58.2916222  33.5751572  28.7950649  58.4290390
  33.6181488  27.8547192  58.9785881  33.3651581  28.4491997  57.4169235
  34.9086075  29.4942722  58.2527199  35.7550545  29.8880157  59.2582054
  35.6938210  29.5853691  60.2931213  36.8239174  30.5823860  58.7249870
  37.4841461  31.0122051  59.3570061  36.5818024  30.8232346  57.3806114
  37.2886620  31.5525017  56.4490929  37.9890900  32.3412743  56.6806946
  36.9517708  31.4941444  55.0890007  37.5418015  32.0046577  54.3422508
  35.7818871  30.7982368  54.6770134  35.3561935  30.9188995  53.6918106
  34.9959946  30.1463604  55.6940155  34.1062775  29.6247578  55.3734856
  35.4367332  30.0792751  57.0515518  31.0105762  29.1020374  58.6728363
  30.6665592  29.0161419  57.4854050  30.2021008  28.7352619  59.6324921
  30.5539665  28.5196152  60.5543289  28.9406071  28.0280952  59.4397202
  29.1471958  27.0265350  59.0624886  28.2583122  27.9893799  60.7426758
  28.9619274  27.6354103  61.4961548  28.0823097  29.0216045  61.0453873
  26.9862709  27.1720963  60.8362961  26.3711872  27.5211430  60.0068741
  27.1310501  26.1363792  60.5290031  26.2720127  27.3537807  62.1909409
  26.8343353  27.9852085  63.0771523  25.0711803  26.9013958  62.3716927
  24.6711159  26.1898003  61.7769814  24.6117115  27.0989933  63.2491570
  28.0106525  28.6594563  58.3570404  27.3971405  27.9523220  57.4855042
  27.9029064  29.9682865  58.3643227  28.5313206  30.4050179  59.0234566
  26.9061069  30.7211170  57.7291756  26.0583038  30.0387344  57.6684875
  26.5713539  31.9892120  58.5013504  27.2613792  32.7847176  58.2200356
  25.6026402  32.4139748  58.2381592  26.5890503  31.7436466  60.0274620
  25.4571056  31.2949486  60.7498207  24.6246338  30.8261986  60.2461624
  25.4059410  31.1846218  62.2040634  24.5051804  30.9607716  62.7562599
  26.5170975  31.6358967  62.9002762  26.4933376  31.7026062  64.3149719
  27.2919006  32.0546684  64.7149048  27.6557541  32.1237831  62.1925735
  28.5405560  32.4040794  62.7448006  27.6826077  32.1863823  60.8116646
  28.4911327  32.7353706  60.3519936  27.3685875  31.1249027  56.3145294
  26.5574207  31.6650276  55.4566193  28.5810585  30.7102413  55.8479004
  29.1974220  30.2463741  56.4998398  28.9417171  30.6937122  54.4089508
  28.6691475  31.6823330  54.0395851  30.4198551  30.3240185  54.1632462
  30.8168774  29.3429146  54.4238358  30.8196945  30.5456848  52.6456070
  30.2045403  29.8890114  52.0304146  30.6158676  31.5853825  52.3895149
  31.8639908  30.2720718  52.4950066  31.2833385  31.3627338  54.9514809
  30.9341145  32.3575439  54.6749115  31.4008484  31.2013702  56.0230484
  32.3032570  31.1418438  54.6367302  28.1776314  29.7302437  53.5751266
  28.1541367  28.5985565  54.0277252  27.5838337  30.0059299  52.4352379
  27.5800686  31.3290348  51.8762207  28.5475616  31.8292427  51.8331070
  26.8793144  32.0301285  52.3295517  27.0450535  31.1355305  50.4721870
  27.7852192  31.0891647  49.6733665  26.3818684  31.9432182  50.1624641
  26.1711121  29.8425255  50.5884590  25.9436226  29.2976475  49.6722374
  25.2435741  30.1290226  51.0841331  26.9735069  29.0047607  51.5677872
  26.3366146  28.3916969  52.2054596  28.0636864  28.1963329  50.8901672
  28.9480610  28.7292786  50.1851692  28.0727444  26.9050560  51.0918198
  27.4362583  26.6279469  51.8254356  29.1251926  26.0385990  50.5543442
  29.9680462  26.6113586  50.1675072  29.7112198  25.1746616  51.6206665
  28.9786491  24.4323711  51.9375954  30.8854828  24.3556347  51.1574631
  31.5651417  25.0387821  50.6480789  31.3934669  23.9555130  52.0349350
  30.5254650  23.5189362  50.5587769  30.2075768  25.9750843  52.8012199
  29.3631763  26.3648911  53.3696747  30.7874413  25.4311256  53.5468521
  30.8384171  26.8345413  52.5743523  28.5997639  25.0832882  49.4193726
  27.4170208  24.8249836  49.4757500  29.4294281  24.6798725  48.5221062
  30.3808270  24.9786892  48.6822701  29.0545540  23.8310490  47.3574753
  28.2405624  23.2080936  47.7282104  28.5776691  24.5238609  46.0858269
  28.5532207  23.7903347  45.2799416  27.1285973  24.9641285  46.2890778
  27.1127739  25.8735809  46.8897018  26.6103439  25.1205368  45.3430061
  26.4565487  24.2030010  46.6854668  29.3298740  25.6165600  45.7366600
  30.0561504  25.7095070  46.3575325  30.1316109  22.8676281  46.9612961
  31.3247108  23.0229759  47.2569008  29.6488762  21.8280983  46.1901054
  28.6757507  21.8712139  45.9231377  30.2929363  20.6377563  45.8149948
  31.3779182  20.6788845  45.9110565  29.9148140  19.5078163  46.7545586
  30.0208359  19.7923279  47.8014183  28.8762169  19.2737179  46.5208626
  31.1655464  18.2039013  46.4297333  30.7072620  17.4617596  47.4417114
  30.0946865  20.2584076  44.3667603  28.9969387  20.3617706  43.9140091
  31.1869354  19.8988514  43.7203064  32.0644264  20.0125904  44.2073135
  31.3816414  19.6093864  42.2469521  30.3953476  19.3801785  41.8434715
  31.7685585  20.8685112  41.5577507  31.0260010  21.6394043  41.7637405
  32.7328415  21.1986656  41.9440918  31.9996243  20.7184677  40.0452423
  32.9380035  20.1823292  39.9034691  31.2944412  20.1361427  39.4521866
  32.2898369  22.2817478  39.2810860  34.1044044  22.2703724  39.1327438
  34.3008118  23.1398296  38.5053902  34.4751244  22.2751865  40.1577530
  34.4708748  21.4159775  38.5637054  32.3079453  18.3926392  42.0093575
  33.2176285  18.1844406  42.8416672  32.0922279  17.6995468  40.8231964
  31.3753757  17.9334717  40.1512566  33.0778160  16.8316345  40.2212791
  33.7143517  16.4639797  41.0261078  32.3592987  15.6384439  39.4988098
  31.5512085  15.4037781  40.1916466  31.9776783  16.0552940  38.5667686
  33.3203392  14.4524746  39.2016182  33.0053749  13.8418264  38.3554459
  34.3567505  14.7446384  39.0325012  33.3065224  13.4511662  40.3867073
  32.4653702  12.6096878  40.4043999  34.3671074  13.4577608  41.1741180
  35.0511551  14.1999922  41.2097969  34.4092026  12.7041225  41.8452034
  33.9649811  17.5880299  39.2287598  33.4539986  18.5413055  38.5390701
  35.2107735  17.2633114  39.1482124  35.6516037  16.6011848  39.7705917
  36.2635460  17.9424019  38.3241844  35.9950714  18.9951744  38.2364731
  37.5830879  17.9002609  39.0653572  37.4536209  18.2709541  40.0821800
  37.9848213  16.8881073  39.1128998  38.6990013  18.6758270  38.3198166
  39.6283302  18.4487514  38.8422012  38.8915672  18.2626648  37.3297043
  38.6405029  20.2096348  38.3972092  39.3733406  20.7610588  37.5724602
  38.1130066  20.7558575  39.3410797  36.3160667  17.2009258  36.9375153
  36.1459618  15.9399796  36.8417053  36.6041641  18.0130386  35.8827286
  36.5650787  19.0203342  35.9454002  36.9821396  17.4277706  34.5434036
  36.1280403  16.9495602  34.0638924  37.4464378  18.4493542  33.5085640
  38.2851372  18.9720230  33.9684563  37.7217979  17.8594952  32.6342964
  36.3602524  19.3717575  33.0971336  35.4261589  18.8668156  32.8509636
  36.1919556  20.0379906  33.9432487  36.7659912  20.4860249  31.6624393
  37.2227592  19.2526531  30.3429756  37.6347351  19.6467686  29.4139671
  38.0202827  18.6067791  30.7102776  36.4358597  18.5536995  30.0595169
  38.0931740  16.4180756  34.6970634  39.1985130  16.7730236  35.1185570
  37.9033470  15.1677723  34.2575989  36.9962158  14.9263077  33.8848953
  39.0238991  14.2624083  33.8677330  39.6844902  14.0705938  34.7132683
  38.4535179  12.8536291  33.4158592  37.7075806  13.0011787  32.6348915
  39.2675171  12.1932850  33.1167831  37.8302116  12.0155754  34.5857468
  37.9532661  12.4190836  35.7878647  37.1884232  10.9694729  34.3333893
  39.8641586  14.7925425  32.7059593  39.3734703  15.0927591  31.6073322
  41.2192192  14.7621431  32.7685661  41.6125793  14.3957882  33.6236420
  42.1852608  15.1911745  31.7174339  41.7634621  15.2713366  30.7155552
  42.7333527  16.6043758  32.1151199  42.8175430  16.6257744  33.2016563
  44.0513153  17.0354729  31.5494480  43.8777771  17.1025658  30.4754448
  44.3826408  18.0438232  31.7975216  44.9438133  16.4218960  31.6721878
  41.5799789  17.5369091  31.7428341  40.6037598  17.3663082  32.1967010
  41.7888069  18.5800056  31.9804039  41.5236168  17.5460911  30.6543350
  43.3395309  14.2668304  31.7444038  43.7815323  13.9041433  32.8099594
  43.7784996  13.9324884  30.4948578  43.2376671  14.3364391  29.7435780
  44.8386650  13.0337763  30.1800957  44.3596878  12.0942030  30.4555664
  45.0432549  13.0572758  28.6882915  45.4627609  14.0323582  28.4406452
  46.0902977  12.0674791  28.2386475  46.9650993  12.6689329  28.4857922
  46.0850639  11.1513805  28.8292694  45.8543015  11.8378344  27.1995773
  43.8596458  12.9219923  27.9554310  43.7120743  12.0280981  27.6379795
  46.1473808  13.3002949  30.9663200  46.7973404  14.3636904  30.9546795
  46.4959946  12.3256283  31.8429298  45.9315186  11.4885654  31.8711033
  47.6972847  12.3133097  32.6976395  47.8255196  11.2583714  32.9400482
  48.4978485  12.7307911  32.0869789  47.6741524  13.2216244  33.9418831
  48.6685028  13.5417891  34.5506935  46.4500542  13.7541904  34.1680679
  45.7073364  13.6588001  33.4902992  46.2639809  14.7918234  35.0995712
  46.8927650  15.6234035  34.7814407  45.2439804  15.1759777  35.0886536
  46.4187431  14.2462673  36.5246811  46.1739044  13.0849800  36.8841705
  46.7578812  15.1735096  37.4016571  46.8655510  16.1368294  37.1178970
  47.1067085  14.8165216  38.7950058  47.9582710  14.1361685  38.8024254
  47.6302719  16.1546822  39.4784813  48.4327354  16.5313301  38.8442154
  46.8378944  16.9030590  39.4915390  48.0519562  16.1248264  40.9236450
  47.3859711  15.4265871  41.4306221  49.4923973  15.4974861  40.9290619
  49.8993492  15.5382471  41.9394226  49.4237671  14.4260235  40.7410278
  50.1843719  15.9089127  40.1942062  48.1702576  17.4783115  41.5617561
  48.6936531  17.3363876  42.5072823  48.7659531  17.9938564  40.8084564
  47.2801514  18.0691509  41.7779045  46.0371895  14.1168480  39.6921883
  44.9797478  14.6641350  40.0107880  46.3088226  12.8616171  40.1035690
  47.2814445  12.6077452  40.0053139  45.5371284  11.9282379  40.9067230
  44.5465126  11.8902445  40.4535789  46.2238655  10.5209999  40.8368950
  47.2215462  10.7059832  41.2350388  45.7698441   9.8163261  41.5336075
  46.4039459   9.9132090  39.4806213  46.7814560  10.7348261  38.8719025
  46.8739777   8.9385586  39.6118774  45.0164452   9.6570845  38.9601326
  44.3624649   9.2799320  39.7463684  44.4776154  10.5447016  38.6286201
  45.1769981   8.6052589  37.8097839  45.8712730   9.0975790  37.1288300
  45.6516418   7.7427583  38.2776566  43.8612213   8.2557259  37.1847534
  43.4964752   9.0921402  36.7517738  43.8316536   7.5561299  36.4568863
  43.2197876   7.9497099  37.9024010  45.3668633  12.3249435  42.3566170
  46.3232574  12.8796787  42.9543114  44.2029572  12.0598745  42.9362755
  43.4766808  11.7859936  42.2900467  43.7728767  12.2989702  44.3479347
  42.7253876  11.9975290  44.3440018  44.6289215  11.3467770  45.2096634
  45.6412277  11.7478247  45.2595901  44.2149315  11.3674202  46.2177734
  44.4566689   9.9153633  44.8233490  43.4044113   9.6517029  44.9297981
  44.8199654   9.7668743  43.8064575  45.2526093   9.0206804  45.7434158
  46.2297325   9.4842396  45.8792343  44.8337059   8.9969511  46.7494240
  45.3490410   7.6380763  45.0952911  44.3405457   7.4540730  44.7249069
  46.1955795   7.6824470  44.4100838  45.7506905   6.6032925  46.0433159
  46.6179657   6.8752084  46.4837646  45.0359154   6.3988309  46.7269783
  45.9411125   5.7625184  45.5170670  43.8837547  13.7924080  44.7260475
  44.5131950  14.1393805  45.7730255  43.4151917  14.6821222  43.8696976
  43.1190567  14.3901806  42.9492760  43.5461082  16.1081696  44.1072311
  44.2198792  16.2060642  44.9584389  44.1622429  16.7313938  42.8333969
  45.0477982  16.1548119  42.5661049  43.4871521  16.5653572  41.9938812
  44.5349808  18.5132675  42.9586983  44.6905327  18.3898430  44.2798576
  42.1760750  16.8106918  44.4818001  41.1230240  16.4798012  43.8825607
  42.2457886  17.7001801  45.4763603  43.1803131  17.8201237  45.8402023
  41.1529770  18.5363216  46.0051041  40.2915916  18.0926762  45.5058098
  40.9475975  18.2844143  47.5423965  41.8954353  18.4423103  48.0569611
  39.8851242  19.2153549  48.2151985  39.8729935  20.2816238  47.9893074
  38.8605385  18.9177246  47.9921722  40.0863838  19.3053398  49.2826729
  40.5312042  16.8139515  47.7948799  39.6218147  16.6981125  48.3845367
  40.4143028  16.1915073  46.9077530  41.5415802  16.0688763  48.6279335
  41.3214607  15.0043030  48.5483589  42.5779533  16.1894646  48.3125076
  41.5397682  16.3415489  49.6832771  41.4501228  19.9913502  45.6779213
  42.6434898  20.4037151  45.8096008  40.4592552  20.8085423  45.3062630
  39.5401344  20.4127865  45.4429893  40.4324989  22.1777592  44.8452568
  41.4323044  22.5574017  45.0558815  40.1445770  22.1566391  43.3256721
  39.2000351  21.6420994  43.1490593  40.0435829  23.1503487  42.8892746
  41.3485451  21.5554104  42.5751076  42.2859688  22.1115170  42.5664406
  41.5555573  20.5545654  42.9539948  41.0252228  21.4694347  41.0779381
  40.1148376  20.9542942  40.7714615  40.9311447  22.4960899  40.7240601
  42.1427689  20.8960171  40.2880516  42.8314934  21.5869713  40.0266190
  42.4208641  19.7088375  39.9443016  41.8006897  18.6324635  40.2310143
  40.9862213  18.6240120  40.8282356  41.9423370  17.7719440  39.7215614
  43.4421005  19.4046459  39.1980171  43.9715118  20.1227570  38.7245827
  43.6053238  18.4600468  38.8799133  39.4591103  23.1137333  45.5928688
  38.3048592  22.7774982  45.8641586  39.8345871  24.3047466  45.9887810
  40.7583618  24.6029358  45.7097969  39.0336609  25.3648262  46.6770630
  38.0027924  25.0764542  46.8826218  39.5733376  25.8117828  48.0706520
  40.5264320  26.3292274  47.9612389  38.5160675  26.6217098  48.8381805
  37.6051102  26.0242786  48.8747711  38.7438850  26.8091850  49.8874931
  38.3484459  27.5846691  48.3557777  39.9170265  24.6167908  48.8068237
  39.0635681  23.9706326  49.0122261  40.6548042  23.9856358  48.3114281
  40.1837006  24.9126530  49.8214417  38.9598732  26.6256485  45.7907486
  39.9906883  27.1240540  45.3087959  37.6946869  27.0170364  45.5989990
  36.8984489  26.4826183  45.9160156  37.4133568  28.2802525  44.9119949
  38.2818031  28.9288177  44.7968216  36.8249207  27.9516621  43.5265427
  37.4435387  27.3435440  42.8665390  35.9677429  27.2940521  43.6710930
  36.3831253  29.1123219  42.6531982  35.8704185  28.6922417  41.7878876
  35.7181473  29.6846695  43.2999763  37.6932907  30.1822662  42.0072289
  37.2029877  29.9826641  40.1772041  37.3158035  28.9316654  39.9111786
  36.1739578  30.3061733  40.0205421  37.8925629  30.6293316  39.6345978
  36.4338684  29.1136475  45.6903191  35.2625084  28.7370644  45.7891731
  36.7958183  30.2829609  46.1877632  37.7154236  30.5763264  45.8905029
  35.9931107  31.1435928  47.0321579  34.9275894  30.9324741  47.1227264
  36.6301804  30.9476509  48.4228668  36.8635178  29.8873634  48.5200539
  37.6490593  31.3249092  48.3353081  36.0400238  31.5569687  49.6074562
  35.8800697  32.6218910  49.4387665  35.1068840  30.9941559  49.6318436
  36.7938385  31.3195496  51.3014069  38.4031944  32.1657524  51.1664886
  38.8034859  32.2938690  52.1721992  39.0802727  31.5918446  50.5337944
  38.2786331  33.1972313  50.8368950  36.0958672  32.6114502  46.6147804
  37.2637558  33.0965691  46.4362488  35.0021973  33.2573204  46.2768631
  34.1204109  32.7648277  46.2794800  34.9571571  34.7215004  46.0926781
  35.8957672  34.9312057  45.5797119  33.7430573  35.1054115  45.1674461
  32.7937698  34.8176460  45.6192703  33.6610260  36.5728836  44.8488426
  33.7036819  37.0598373  45.8230858  34.5264931  36.8928566  44.2686005
  32.6673508  36.8589706  44.5040817  34.0360107  34.5400543  43.9376373
  33.8756676  33.6005516  44.0526466  34.8182716  35.3862762  47.4904671
  34.1037788  34.9049339  48.2980156  35.5947723  36.4689217  47.6556854
  36.2477112  36.7752190  46.9486084  35.5069504  37.3790779  48.8625717
  34.5941811  37.1362495  49.4066277  36.7323189  37.2420807  49.8853798
  36.5612144  38.0814552  50.5593758  36.8402214  35.9499321  50.7048454
  36.6297417  35.0963097  50.0605392  37.8430290  35.9985352  51.1292458
  36.0006104  35.9506378  51.3999367  38.1032486  37.4160919  49.1489410
  38.4168701  36.4706612  48.7063332  38.0370750  38.2132607  48.4085083
  38.8689079  37.5953255  49.9037552  35.4981842  38.8670349  48.4181252
  35.8821564  39.0836945  47.2801590  34.9680328  39.7571411  49.2397194
  34.6792641  39.4474602  50.1566772  35.2500191  41.1719437  49.0702477
  35.3177376  41.4264069  48.0125275  34.0916138  42.0600433  49.7112274
  34.0866737  43.0530586  49.2617836  33.1561203  41.5935898  49.4023972
  34.1803284  42.1995850  51.2318535  34.4275551  41.2754173  51.7542496
  35.0142250  42.8349686  51.5301781  32.8749504  42.7515678  51.8224106
  32.2665863  43.5846100  51.2063980  32.5278587  42.2678070  52.9607773
  33.1164551  41.6839485  53.5376396  31.7566776  42.7035027  53.4461098
  36.6899757  41.4818115  49.5523453  37.1048393  40.9326363  50.5875435
  37.4776726  42.2651405  48.8573494  37.1002007  42.6865463  48.0206680
  38.9208298  42.6129875  49.1977997  38.9034729  43.0098305  50.2128410
  39.9030495  41.3815727  49.1189880  39.5741005  40.5872002  49.7889633
  40.0893478  40.8698730  47.7182808  40.4932938  39.8577957  47.6932755
  39.1387787  40.6643333  47.2260628  40.6856956  41.4497108  47.0138245
  41.2338867  41.7726936  49.3296471  41.6991005  40.9481621  49.1704941
  39.4329987  43.6883202  48.2687912  39.1332855  43.7293930  47.0512085
  40.2179375  44.6169472  48.8213654  40.4207191  44.6031799  49.8107033
  41.0161743  45.5738373  48.1349754  40.3507576  45.8667984  47.3228836
  41.1039314  46.8527832  49.0136986  41.6385841  47.6680298  48.5262375
  40.0959969  47.2014732  49.2385979  41.8193741  46.6838188  50.3443832
  42.2196922  45.5531578  50.8010712  41.8890762  47.7337799  50.9928017
  42.3424225  45.0938644  47.5096054  43.1746483  45.9091072  47.1136589
  42.5714836  43.7847404  47.4348297  42.0767136  43.1484909  48.0435104
  43.8265419  43.1745987  46.8567505  44.6065178  43.9288979  46.9605484
  44.3351440  42.1370430  47.8135910  43.6439209  41.2943459  47.8003311
  45.6595840  41.5389481  47.3190575  46.4581718  42.2647591  47.1655464
  45.9904060  40.8523026  48.0982704  45.5466881  40.9207573  46.4284401
  44.5471840  42.5918846  49.2418785  43.6793900  43.0917511  49.6721840
  44.6768036  41.7494469  49.9212914  45.3940239  43.2781181  49.2352524
  43.6131096  42.7204437  45.4485168  42.7444077  41.9073753  45.1326294
  44.5313797  43.1517982  44.5897598  45.4046936  44.3716888  44.7643585
  46.2687874  44.1358986  45.3855247  44.8394775  45.1168442  45.3241615
  45.8999252  44.9640198  43.4256172  46.9167938  45.3471413  43.5110321
  45.2924728  45.7906189  43.0570526  45.7085419  43.7843895  42.5251503
  46.6275368  43.2074738  42.4216385  45.5543747  44.1321373  41.5036774
  44.5433884  42.8927307  43.1776466  43.5554504  43.2769356  42.9237289
  44.8286743  41.4121857  42.7520752  45.3978653  40.6752434  43.5491104
  44.4351082  40.9763870  41.5516396  44.0467033  41.6737022  40.9327774
  44.5181808  39.5603104  41.2336082  43.7390480  39.1362915  41.8670616
  44.1693459  39.4003296  39.8122749  44.8633804  39.9008636  39.1370850
  44.2890778  38.3575935  39.5182228  42.7150307  39.6529121  39.4059601
  42.1475182  38.9020538  39.9557266  42.3371201  40.6105232  39.7640953
  42.2460823  39.6083145  38.0087395  42.9952278  39.3832436  37.1009331
  40.9637375  39.7644081  37.8376732  40.3157196  39.7724113  38.6123428
  40.5440788  39.7304993  36.9196129  45.9270134  38.9085045  41.3821335
  46.0395317  37.7537804  41.7191772  46.9519157  39.6544762  41.0145836
  46.6929321  40.6150589  40.8404808  48.3579903  39.3003349  40.8955841
  48.5024567  38.3215294  40.4382286  49.2038689  40.1883659  39.9495735
  50.1581001  39.7225990  39.7034035  48.6241302  40.3093071  39.0344925
  49.4119949  41.5989380  40.4934769  50.4766960  42.2476807  40.3270798
  48.4755516  42.1399956  41.0831566  49.0163651  39.0938683  42.2701607
  50.0639725  38.4719696  42.4072609  48.4364891  39.5697212  43.3492737
  47.6277924  40.1307716  43.1227150  49.0786057  39.6634827  44.6795082
  49.9093781  38.9582596  44.6554375  49.5275421  41.1951408  44.8849525
  50.1724129  41.0822868  45.7564468  50.1071243  41.5617447  44.0377312
  48.4838371  42.2082977  45.1380730  47.6316910  42.1412163  44.4617195
  48.1838150  42.1429214  46.1839256  48.9228554  43.6662064  44.8182869
  49.1321564  44.5122528  45.6987305  49.1556396  43.9884834  43.6118507
  49.1747742  43.3271828  42.8486862  49.3413658  44.9716644  43.4741211
  48.1368828  39.1169395  45.7638016  48.3016090  39.3493500  46.9167061
  46.9964409  38.4728127  45.4099770  46.7294922  38.6377792  44.4499626
  46.1965256  37.5870895  46.2551880  46.1937675  38.1040039  47.2148209
  44.7422104  37.3212090  45.7401314  44.8305206  37.2330132  44.6572952
  44.1513519  35.9497833  46.2450142  43.2107811  35.7796860  45.7210884
  44.8159752  35.1355667  45.9561729  43.7624702  36.0301056  47.2601128
  43.7699089  38.5576820  45.9639435  43.8473473  38.8138771  47.0205727
  44.1914520  39.3088493  45.2959976  42.3060036  38.3130264  45.5868568
  42.1895828  38.0095787  44.5464439  41.8302956  37.7599983  46.3967705
  41.8509293  39.3034592  45.5797424  47.0386009  36.3050804  46.4869576
  47.7037086  35.7796135  45.5879784  47.0792923  35.8425980  47.7430840
  46.6025696  36.4112206  48.4282875  47.7472878  34.5875168  48.2047691
  48.6688271  34.4376373  47.6422768  48.0813408  34.6230354  49.6807518
  47.3126183  35.1775932  50.2189293  48.1438522  33.5742035  49.9708252
  49.3588600  35.3412666  49.8544807  50.1530647  34.7893486  49.3517570
  49.1962662  36.2867966  49.3371468  49.8225403  35.6739044  51.2697639
  49.0674019  36.3633423  51.6473083  50.0443382  34.8238411  51.9149818
  51.1260643  36.3652802  51.2142982  51.1085548  37.3628502  51.0573158
  52.2921371  35.9297676  51.3223343  52.6843376  34.7360649  51.1945648
  53.6856956  34.6087837  51.1601257  52.0880241  33.9213409  51.1675377
  53.2252083  36.7839203  51.4879723  54.1923752  36.5106888  51.5881424
  52.9294434  37.7494888  51.5052681  46.8973808  33.3814163  47.8339767
  46.0577621  32.9071808  48.6251411  47.1259918  32.7864151  46.6496887
  47.9448395  33.0032997  46.0996399  46.5209656  31.5272179  46.2313461
  45.4964790  31.4577694  46.5969963  46.4578514  31.4261398  44.7298584
  47.4559135  31.4436245  44.2920570  46.0484581  30.4761524  44.3863182
  45.6179428  32.5343857  44.1131439  44.2529984  32.7984734  44.4336815
  43.9205475  33.6912041  43.5885315  42.9043770  34.0361557  43.4668465
  44.9676399  34.1480484  42.8021278  44.8145142  34.8463135  42.0886307
  46.0686874  33.4402924  43.1672783  47.0304794  33.4683533  42.6767998
  47.4099159  30.3961906  46.8172073  48.6095848  30.4216766  46.5410728
  46.9254112  29.4092236  47.5544624  45.9248695  29.3892288  47.6909103
  47.7388115  28.4844398  48.3112755  48.7617188  28.8592625  48.3469315
  47.2913437  28.4275818  49.8171196  46.2291107  28.2222862  49.6843948
  48.1313591  27.4102020  50.6319466  49.0839348  27.8764019  50.8836479
  47.6283722  27.1643143  51.5671692  48.2859192  26.4822083  50.0814552
  47.5887756  29.7703876  50.5167084  47.1017685  30.6654129  50.1295853
  47.1826820  29.7188568  51.5269241  48.6539154  30.0016518  50.5068779
  47.6583214  27.0824852  47.6427765  46.5766068  26.5551147  47.3285866
  48.7917862  26.4699516  47.4904137  49.6492500  26.9438934  47.7358398
  49.0205421  25.0839996  46.9772682  48.0332603  24.6250553  46.9248772
  49.6009636  25.1331520  45.5343819  50.5537224  25.6540508  45.4394302
  49.7267189  24.0662327  45.3500633  48.5767174  25.6300697  44.4617844
  48.2444725  27.0081387  44.3591995  48.6761780  27.6799030  45.0863609
  47.2163963  27.4806423  43.4438782  46.8121605  28.4820633  43.4560966
  46.6166916  26.5365505  42.5248756  45.7607231  27.0014267  41.5408325
  45.2739182  26.3377495  41.0467148  47.1485443  25.1910057  42.6103477
  46.7727432  24.4939442  41.8759918  47.9713745  24.7209797  43.5544510
  48.2396851  23.6792011  43.6498718  49.7431335  24.2717018  48.0355072
  50.6629791  24.7659359  48.6578598  49.3867378  22.9998932  48.2953110
  48.6447334  22.5626850  47.7676964  49.9244003  22.1537361  49.3580933
  50.9927216  22.2713051  49.5396843  49.1421471  22.2307034  50.6944962
  48.0961227  21.9577541  50.5551109  49.3658257  21.4102173  51.3763161
  49.1283951  23.6049957  51.3530426  48.6088867  24.2311172  50.6276550
  48.1119576  23.5279102  52.5195503  47.2252045  23.0508480  52.1022034
  48.5233955  22.9759083  53.3646011  47.8886032  24.5550022  52.8081665
  50.3991089  24.1362782  51.8905983  51.2559700  23.7462444  51.3412628
  50.3058205  25.2117538  51.7397652  50.5055389  23.9352913  52.9566078
  49.9756088  20.7316036  48.7871742  49.3352661  20.2997360  47.8318443
  50.6561470  19.8567886  49.5181694  51.0753174  20.2143402  50.3646622
  50.8597107  18.4502850  49.1464806  51.6498947  18.2149544  49.8594513
  49.6038704  17.6243858  49.5439072  48.7979927  17.9777241  48.9006271
  49.7660675  16.5623989  49.3595695  49.0905800  17.8070240  50.9502525
  48.9129639  18.8749409  51.0771561  48.1444511  17.3029079  51.1472549
  50.0873871  17.3628235  52.0607986  50.2855301  18.0463734  53.0655365
  50.4798737  16.1562996  51.9409904  51.3932076  18.2624626  47.6775703
  52.1388779  19.1209946  47.1512413  50.9841118  17.2507534  46.9718590
  50.5047493  16.5528526  47.5225334  51.3711128  17.0490398  45.5949249
  52.4263649  17.3194427  45.5570412  51.1861839  15.5693464  45.2032127
  50.1812744  15.2614508  45.4921112  51.3231583  15.5937300  44.1221275
  52.2741356  14.7082291  45.9197464  53.1978645  14.6993465  45.3411674
  52.3748245  15.2102938  46.8819771  52.0549812  13.1611366  45.9481239
  51.0811920  12.9602156  46.3947372  52.0039635  12.6919956  44.9655724
  53.1374626  12.5371876  46.8676071  54.1466370  12.7143068  46.4957199
  52.9390907  12.9976587  47.8354454  52.9016533  11.0762892  46.9502602
  52.0107002  10.8212166  47.3518143  53.0180550  10.6245050  46.0544701
  53.6663704  10.6081266  47.4151611  50.7211761  18.0239506  44.6221161
  51.2707520  18.1225319  43.5227661  49.6286888  18.7377548  44.9135933
  49.2735214  18.6562347  45.8555641  49.2628326  19.9411068  44.1415787
  49.1904564  19.6494694  43.0938148  47.8539696  20.4292927  44.6324654
  47.0274353  19.7224541  44.5595932  48.0479774  20.8304520  45.6272202
  47.4411163  21.2983952  44.1203041  50.2309189  21.1222305  44.1291008
  50.1153297  22.1099453  43.4068756  51.3820152  21.1010494  44.8091545
  51.5400352  20.4094257  45.5280304  52.4472771  22.2107182  44.5959129
  52.0009613  23.2026138  44.6669617  53.6287346  21.9739609  45.6646271
  53.8810501  20.9170628  45.7507362  54.9389801  22.6174812  45.3942451
  54.8813210  23.7053032  45.3565788  55.7316322  22.3907909  46.1072769
  55.3189240  22.1910686  44.4658508  53.1076469  22.4798145  46.9780083
  53.9069481  22.3399410  47.7057800  52.8485832  23.5350895  46.8920746
  52.1382446  22.0265331  47.1851311  53.0081825  22.1378269  43.2096138
  53.3539276  23.2078266  42.6676598  53.0668182  20.9218063  42.5604820
  52.6635513  20.1274624  43.0363960  53.6363029  20.6982574  41.2030334
  54.7042046  20.8626385  41.3467903  53.4034615  19.1485806  40.8680801
  53.8084335  18.5581684  41.6899719  51.9137421  18.8391457  40.5195999
  51.8464012  17.7527180  40.5766296  51.2266464  19.2005482  41.2847061
  51.6515236  19.1616421  39.5119591  54.2515831  18.7999840  39.6395721
  54.2390404  19.6612587  38.9716225  55.2305527  18.6868725  40.1053200
  53.8398933  17.9155960  39.1532898  52.9529953  21.5941429  40.1684151
  53.5919762  21.9431477  39.1863785  51.6572990  21.8603554  40.3851776
  51.2634392  21.7716179  41.3109741  50.7485275  22.4854393  39.4251633
  50.7136345  21.8606644  38.5326729  49.3311729  22.5424271  40.0122795
  49.3853569  23.0386181  40.9812775  48.7283211  23.2637653  39.4606094
  48.6638680  21.1963730  40.4031448  49.2330284  20.5924969  41.1098900
  47.2779465  21.4902840  41.0204086  47.3024521  21.7713299  42.0732689
  46.7169304  22.2560616  40.4847374  46.7731972  20.5423279  41.2067032
  48.4052696  20.3908653  39.0838470  47.7834511  20.9435558  38.3795967
  49.3256798  20.2731609  38.5119247  48.1314240  19.3462944  39.2321053
  51.1744728  23.8672142  39.1325684  50.8153000  24.2950649  38.0394516
  51.9570656  24.5841026  40.0324287  52.3852882  23.9706688  40.7109718
  52.1378517  25.9771099  40.1881790  51.8034744  26.4308643  39.2552223
  51.2554016  26.5328884  41.3421211  51.4273491  25.9571953  42.2515793
  51.5565948  27.5376720  41.6384201  49.7482414  26.5425243  40.9562149
  49.5216675  25.4789028  40.8822517  49.2971115  27.0522518  41.8075447
  49.2885246  27.2658520  39.6176262  49.8197479  26.8826561  38.7463799
  48.2457848  26.9557133  39.5497627  49.4579735  28.7341976  39.6786690
  50.3387070  29.2198925  39.5864143  48.4699593  29.5843067  39.7705917
  47.1981888  29.3328266  39.9315186  46.5446205  30.0773449  40.1280937
  46.9503403  28.3537750  39.9202919  48.8352509  30.8461685  39.7058640
  48.1731529  31.6070499  39.7586670  49.8336716  30.9974613  39.6867218
  53.5897903  26.2802696  40.4848557  53.9462433  26.8382778  41.5413437
  54.4835167  25.9721642  39.4606476  54.1763763  25.4330959  38.1607819
  53.3258438  25.9580250  37.7258759  53.9046135  24.3795872  38.2268410
  55.4077148  25.6938972  37.3087540  55.2653961  26.5582581  36.6601219
  55.6871223  24.8838978  36.6350021  56.5976028  25.8713264  38.2454872
  57.3598747  26.5602589  37.8815994  57.1842232  24.9591751  38.3548279
  55.8974190  26.3227081  39.5036888  56.3496933  25.8510799  40.3761063
  56.0731773  27.8534470  39.7234917  57.0072060  28.3319149  40.3794899
  55.1095238  28.7066097  39.2612038  54.3519783  28.2560863  38.7679977
  55.0970955  30.1657696  39.4518166  55.9899940  30.6766663  39.0915108
  53.9788933  30.6777210  38.5164490  54.0763054  31.7610321  38.5875130
  54.0337067  30.3453579  37.4798050  52.5603600  30.2019920  38.9873695
  52.3455963  29.0480709  39.4031982  51.6013298  31.0156803  38.9203224
  54.8611832  30.6440144  40.8903809  55.0140762  31.8732681  41.2826653
  54.4251862  29.7395496  41.7541351  54.0815964  28.8318329  41.4746742
  54.1967087  30.0158291  43.2113342  54.4664574  31.0552235  43.3983994
  52.7200699  29.7613583  43.4982224  52.5012779  28.6969337  43.4131813
  52.5151520  30.1707039  44.4874382  51.6522102  30.4498367  42.6149902
  51.7870407  30.1713142  41.5698357  50.3007927  30.1234131  43.1496925
  50.1090317  29.0744381  42.9239311  50.1875191  30.4275589  44.1902542
  49.5606155  30.6838894  42.5786400  51.8185883  31.9692020  42.7358322
  52.0555992  32.1928139  43.7759933  52.6941757  32.1730499  42.1194763
  50.9285011  32.4678268  42.3521461  55.2684021  29.2916870  44.0677795
  55.6115341  29.8602676  45.1399345  55.7390633  28.1299725  43.6445084
  55.3698349  27.7631493  42.7789383  57.0488472  27.4963894  44.1116066
  56.8964043  27.1853657  45.1451111  57.4127769  26.2808666  43.2474976
  56.6120377  25.5524292  43.3751526  57.4037170  26.5863190  42.2012062
  58.6988983  25.7788792  43.5124245  58.7228889  25.4649830  44.4193420
  58.1954002  28.5146923  44.1919022  58.6226425  29.2073078  43.2685089
  58.6431122  28.7809353  45.4186096  58.1420670  28.3516407  46.1833038
  59.6782646  29.6767006  45.8744431  59.6838989  29.6309414  46.9634666
  61.1041527  29.3305969  45.5100250  61.2980194  29.5122013  44.4528885
  61.7936935  29.8942623  46.1384468  61.5396080  27.9052563  45.9165955
  60.7554817  27.2182293  45.5984154  62.7788086  27.4703465  45.1519051
  63.6014099  28.1207218  45.4492722  62.8735962  26.4377365  45.4878120
  62.7064972  27.4160461  44.0656624  61.7430153  27.7519131  47.4051399
  62.4933662  28.4687042  47.7387428  60.8213501  28.1219997  47.8542175
  62.0286140  26.7325306  47.6647415  59.3355789  31.1904240  45.6318855
  60.2393188  31.9549370  45.3707199  58.0311813  31.6329384  45.5359535
  57.3227806  30.9405422  45.7330856  57.5978813  32.9895935  45.1996002
  58.0383072  33.2405052  44.2346230  56.0408554  33.0942841  45.2104225
  55.7145081  32.4870033  44.3661423  55.2186508  32.7134514  46.4001389
  55.4938507  33.5056343  47.0964203  54.1706009  32.9223900  46.1855698
  55.4436836  31.7141743  46.7728424  55.7413864  34.4883919  44.9480171
  55.6181183  34.5901871  44.0014191  58.1093483  34.0316238  46.2481651
  58.0621223  33.8664856  47.5082359  58.5103569  35.1611633  45.6830673
  58.5563889  35.0349617  44.6820412  59.2458420  36.1765099  46.3513870
  59.3160324  35.9814377  47.4214897  60.7186775  36.0141144  45.7368927
  60.9914894  35.0065727  45.4229851  60.7498436  36.5782356  44.8047485
  61.7004623  36.5960884  46.7812729  61.8061562  37.6600151  46.5691528
  61.4498863  36.2957230  47.7986679  63.0833588  35.9644852  46.5056915
  63.0324364  34.9350929  46.8604584  63.3330154  35.9839325  45.4448471
  64.2922897  36.6492538  47.2990608  64.0678406  36.7891617  48.3564873
  65.1778946  36.0237846  47.1868095  64.5553360  38.0324554  46.8385124
  63.8393784  38.7108345  47.0560150  65.3862915  38.4609184  47.2206497
  64.7191620  38.1023521  45.8443413  58.7023468  37.6048241  46.1759758
  59.3216095  38.6103477  46.4858246  57.4789963  37.6522865  45.6896439
  57.0582809  36.7479095  45.5308876  56.6607780  38.8760071  45.4827232
  57.1806564  39.5187836  44.7723236  55.2922630  38.4093018  44.9029045
  55.5250320  37.7188263  44.0922508  54.7223587  37.8383369  45.6359215
  54.3967171  39.4745216  44.3495522  54.7415314  40.6417160  44.4215469
  53.2458725  39.1767426  43.9169350  52.9911346  38.2014275  43.8539047
  52.7300034  39.8934555  43.4267235  56.4898300  39.7320824  46.8016777
  56.0434494  39.2681847  47.8446159  56.8601532  41.0291595  46.6910248
  56.9780579  41.3911552  45.7555275  56.5883904  42.0468140  47.6858253
  56.9072800  41.6655121  48.6558876  57.2982903  43.3642273  47.3210602
  57.1045227  44.1945992  48.0000534  58.8556976  43.2630043  47.3354378
  59.1607971  43.0866013  48.3668976  59.3087997  42.4676781  46.7436142
  59.1790276  44.2439690  46.9872093  57.0819702  43.8012772  45.8793297
  56.3153915  44.3709908  45.9762192  55.1444855  42.5473022  47.9356422
  54.9027977  43.0364113  49.0315933  54.2313919  42.3717690  46.9601784
  54.5582848  41.9493141  46.1029892  52.8235397  42.7475662  47.0142174
  52.7403221  43.6424942  47.6308899  52.4230194  43.0716248  45.5995560
  52.3846474  42.1821518  44.9706955  51.3758163  43.3684235  45.5414696
  53.1154289  44.1904259  44.8502159  53.8986206  43.6430283  44.3257446
  52.4945564  44.6321640  44.0708046  53.7374611  45.3104935  45.7259979
  55.0006104  45.3832741  45.9222717  52.9163399  46.1337242  46.2411156
  51.9893951  41.6494865  47.5952263  50.8932381  41.9168587  48.0908432
  52.4366264  40.4215050  47.7685509  53.3886261  40.3577385  47.4372864
  51.8729553  39.2282829  48.3665237  50.8578529  39.2096329  47.9698792
  52.7026291  38.1358833  47.6872292  52.9121819  38.3726273  46.6440887
  53.6904678  38.1766701  48.1461563  52.0108147  36.7472916  47.7530899
  51.7676201  36.5104523  48.7888794  50.7919655  36.5124054  46.8467293
  49.9177971  37.0842171  47.1581078  51.1485901  36.8097420  45.8605690
  50.5845413  35.4426765  46.8190880  53.0667534  35.6293182  47.3357925
  53.8486557  35.7843971  48.0792160  52.6434402  34.6432610  47.5270996
  53.5491028  35.8314857  46.3794594  51.7651253  39.1847878  49.8718338
  50.5778389  39.1296806  50.3015213  52.7196007  39.4404945  50.5949326
  25.0001812  47.3330994  51.0294113  25.4490490  46.9231071  51.8359680
  25.4092159  48.1774178  50.6553574  24.0806789  47.6561127  51.2945061
  24.8221130  46.3863792  49.8955688  23.9540291  45.8287849  50.2471733
  24.4975014  47.2233238  48.6602783  23.5028782  47.6334152  48.8353539
  25.2727203  47.9836464  48.5651817  24.4890270  46.4406357  47.3680573
  24.0956383  47.1777191  46.6680183  25.5070667  46.1432648  47.1165314
  23.5313206  44.9078445  47.3715630  21.9428883  45.6651306  47.5317383
  21.9328918  46.4437599  46.7690163  21.1854534  44.8852615  47.4530334
  21.7555618  46.1161766  48.5061951  25.9782600  45.4551086  49.8156471
  27.1408691  45.9087105  49.8677788  25.7365990  44.1275063  49.6121407
  24.7394238  43.9845657  49.5392876  26.7700634  43.0874023  49.4714088
  27.6716213  43.5979233  49.1327858  26.9618664  42.3464508  50.8897209
  27.4489422  43.0532990  51.5614586  26.0501709  41.9788742  51.3606758
  27.9778233  41.2053909  50.7489357  28.1011963  40.6604767  51.6848564
  27.5771255  40.4619408  50.0598602  29.6360149  41.5760231  50.0295067
  30.5658512  40.0614052  50.4812126  29.8861485  39.2152328  50.5817566
  31.2573681  39.8450050  49.6669159  31.1370277  40.2542648  51.3893204
  26.2906265  42.1317406  48.3898506  25.1093216  41.9970131  48.1683655
  27.2659016  41.4356232  47.7647400  28.2139702  41.5247765  48.1013603
  27.0688763  40.2496529  46.9100304  26.0534019  40.2740746  46.5146561
  28.0553131  40.3146095  45.7320938  29.1015015  40.3393250  46.0370178
  27.8520145  39.0540276  44.8182068  28.5511303  39.1489944  43.9873466
  28.0012379  38.1461754  45.4027061  26.8404961  39.0341606  44.4125786
  27.7472153  41.5153427  44.9174461  27.6206264  41.3208466  43.8524399
  26.9211349  42.0674858  45.3655891  28.9295425  42.4924431  44.9801369
  28.9940262  42.8783798  45.9974823  29.8637772  42.0182495  44.6793938
  28.6843300  43.2725716  44.2594566  27.1135521  38.9566574  47.7383461
  28.0239582  38.7389603  48.5669365  26.1367874  37.9884949  47.5829239
  25.3500538  38.2732887  47.0172043  25.9487762  36.7231827  48.4059982
  26.9225922  36.4226074  48.7925682  24.9269295  37.0056534  49.4999886
  23.9706764  37.2958755  49.0647316  24.7117214  36.0259094  49.9264717
  25.4210377  37.9846992  50.5542030  25.6428165  38.9271202  50.0534439
  24.5869656  38.2023125  51.2213364  26.6217213  37.4127769  51.3895645
  26.2410717  36.4156723  51.6108971  27.4863625  37.3004150  50.7354469
  26.8683529  38.1778488  52.5841560  26.1211224  38.7544556  52.9437027
  28.0334606  38.3435898  53.2883072  28.9942570  37.5061073  53.0651054
  29.9294605  37.6264725  53.4270592  28.9000568  36.7155647  52.4435997
  28.2763042  39.2448311  54.2064743  27.5885582  39.9602470  54.3943214
  29.2427483  39.3388023  54.4844170  25.5152264  35.4101181  47.5887947
  24.6575890  35.4967384  46.6664467  26.0242004  34.2579155  48.0347252
  26.7679558  34.3460121  48.7123413  25.4669132  32.9991112  47.5728188
  25.2486591  33.0771294  46.5077477  26.1828671  32.1876221  47.7031898
  24.2816753  32.4418182  48.3433571  24.2618275  32.2465057  49.5892677
  23.1404705  32.4676552  47.6851540  23.0920753  32.8009987  46.7329788
  21.7808037  31.9542561  48.1769829  21.8041096  31.8782654  49.2640800
  20.6296139  32.9141045  47.7493362  20.8121395  33.1474419  46.7003670
  19.1602669  32.2218475  47.9589348  18.3941689  32.9510231  47.6953125
  19.0066032  31.3117085  47.3791618  19.1185818  31.9308529  49.0085487
  20.8482437  34.3407860  48.5233650  20.8115330  34.1697884  49.5992470
  21.8359699  34.7759705  48.3713379  19.7777443  35.3864136  48.1228027
  19.4490261  35.1648064  47.1074524  18.9137764  35.3093605  48.7828979
  20.1362877  36.4102097  48.2294922  21.4991646  30.4540253  47.6584892
  21.5930672  30.3078842  46.4306564  21.0969391  29.4468498  48.4918175
  20.9237022  29.7303791  49.4455986  21.0550098  27.9911995  48.1314888
  21.3923988  27.9019737  47.0988655  22.1212559  27.2661686  48.9715157
  22.0221691  27.2831974  50.0568657  22.0039082  26.2333145  48.6435814
  23.5352039  27.7454224  48.4900017  23.6556454  27.5835190  47.4188423
  23.6887798  28.7899323  48.7611389  24.6206131  26.9044418  49.1206970
  25.6055374  27.2035427  48.7621536  24.7547417  26.9905052  50.1989861
  24.5013618  25.5045757  48.7385788  24.2148132  25.2941246  47.7932167
  24.4232616  24.4206944  49.4953651  24.6562748  24.4583378  50.7302895
  25.1235428  25.2694550  51.1095695  24.5344944  23.5986786  51.2462883
  24.0772858  23.2482929  48.9763870  23.6007710  23.1847115  48.0881310
  24.1209297  22.3998928  49.5226593  19.6737766  27.3496323  48.2337875
  18.8378506  27.8242722  49.0187492  19.4812965  26.2319794  47.6034889
  20.1292858  25.8836040  46.9114990  18.5496521  25.2602596  48.0607414
  18.6632862  25.1299820  49.1369476  17.5318413  25.6167831  47.9024696
  18.7520714  23.8523083  47.4747162  19.5962429  23.6705608  46.6428871
  17.9395370  22.8721161  47.8663063  17.2333908  23.0926781  48.5539169
  18.0063000  21.5002728  47.3797607  18.3731556  21.6148510  46.3597641
  19.0455837  20.7462559  48.1867599  18.8298531  20.6636620  49.2519989
  19.2882080  19.7744904  47.7567520  19.8910027  21.4342403  48.1800880
  16.6136703  20.8026257  47.4323196  15.6659660  21.2666683  48.0119095
  16.5106163  19.7135086  46.6855698  17.3519039  19.3165226  46.2922058
  15.2678528  18.9109650  46.5810852  14.8031921  18.8938980  47.5669365
  14.2084999  19.7227707  45.7347107  13.8593760  20.5478363  46.3555794
  14.7433825  20.1928215  44.4085922  14.1123056  20.9707680  43.9788933
  15.6649370  20.7123299  44.6711769  14.8230724  19.3585567  43.7116318
  13.1101599  18.9437618  45.5274734  12.3820629  19.5669670  45.5830727
  15.7140942  17.5160732  45.9810066  16.9009628  17.2786255  45.6569633
  14.6846886  16.6434002  45.8284340  13.8088665  16.9833870  46.1991692
  14.8138800  15.1895380  45.3725548  15.6119747  15.2659845  44.6341095
  15.2452526  14.1516495  46.4750137  15.4729166  13.2107601  45.9740143
  16.5202827  14.4571209  47.3171692  16.8788872  13.6323633  47.9330292
  17.3197041  14.7964764  46.6584892  16.3148441  15.3359489  47.9283714
  14.1813154  13.9345160  47.4052582  13.4703054  13.4809895  46.9465866
  13.5599871  14.6016951  44.6468735  12.4139633  14.9184647  45.0626106
  13.8400297  13.7611294  43.6105919  14.8183117  13.5290279  43.5147095
  12.8885431  13.0227270  42.8822937  11.9493923  13.4055023  43.2817688
  13.0770836  13.3857288  41.3894730  12.3986511  12.8810034  40.7016602
  12.8373051  14.8872843  41.0641708  11.9163914  15.1910839  41.5618896
  13.5799866  15.4831429  41.5947189  12.8445396  15.1326971  40.0021782
  14.4918957  13.0901718  40.7602119  14.7093906  12.0297489  40.6325722
  14.5058804  13.5558062  39.7747726  15.2532558  13.5717764  41.3737984
  12.8447533  11.4778385  43.0365944  13.8430605  10.8413992  43.2612419
  11.6217909  10.9645729  42.8002815  10.8727245  11.5317163  42.4296761
  11.3506517   9.5044584  42.8793640  11.8570871   9.1664410  43.7834511
   9.8645868   9.3920784  43.1335297   9.2946939   9.9415140  42.3842316
   9.5773993   8.3437395  43.0522308   9.2908020   9.9562521  44.4232216
   9.2304935  11.0440922  44.4559212   8.2914934   9.5375395  44.5422325
  10.0896311   9.5338039  45.6011314  10.4956770  10.3822308  46.4105263
  10.3938560   8.2610083  45.6969490  11.8024530   8.6977549  41.5823402
  11.8420601   7.4243784  41.6040039  12.0791235   9.4186888  40.5136375
  12.2642260  10.4112244  40.5402908  12.2886143   8.8263969  39.1823540
  12.9390316   7.9577379  39.2847672  10.8229408   8.4962912  38.6173668
  11.0382690   8.2046947  37.5894051  10.4286633   7.6485653  39.1777306
   9.9530926   9.7387505  38.6124077   9.9340487  10.1244898  39.6316948
  10.4142323  10.4645987  37.9426346   8.5892763   9.4309235  37.9453812
   8.6068726   8.9189978  36.9832344   8.1722441   8.6765270  38.6125221
   7.6804914  10.5772371  37.9433670   7.7790632  11.1081047  38.7969246
   6.9241662  10.9715490  36.9495888   6.9274831  10.3481712  35.7604408
   7.2638621   9.4079514  35.6089783   6.3954229  10.7663364  35.0106735
   6.2316546  12.0803108  37.2061577   6.4775915  12.6560287  37.9987259
   5.6629801  12.4298630  36.4481850  12.8935499   9.9684286  38.2895355
  12.6656437  11.1400223  38.5490379  13.7208309   9.5364408  37.3332443
  13.8701105   8.5461960  37.2019768  14.4695816  10.4292059  36.3796959
  14.7149467  11.3732424  36.8662109  15.6739769   9.6493301  35.9715538
  16.1318493   9.1916027  36.8484421  15.3544283   8.8484011  35.3048439
  16.7459736  10.4001055  35.2852936  17.0240650  11.5331335  35.6563072
  17.2519455   9.8789501  34.2696228  13.6698246  10.7746372  35.1175537
  13.7962103  10.0415678  34.1577301  12.8589211  11.8900299  35.0484314
  12.9032946  12.5123863  35.8426666  12.1839838  12.3497753  33.9171944
  12.7708092  11.9877443  33.0729942  10.8182230  11.6467981  33.8469048
  10.9177265  10.5815849  33.6382866   9.9711981  11.8234949  35.1058693
   9.9838848  12.8907242  35.3271179   8.9191780  11.5574684  35.0029869
  10.4736261  11.2959700  35.9166603  10.1275301  12.2476454  32.8589592
  10.5070820  11.9562302  32.0267220  12.0933266  13.8734674  33.9734955
  12.1555824  14.4989786  35.0375252  11.9351692  14.5658264  32.8502045
  11.7719736  14.0601778  31.9912605  11.7375479  16.0766735  32.6607933
  12.5527639  16.6414204  33.1131058  11.7718887  16.4613514  31.1105766
  11.6679754  17.5399208  30.9923019  12.7003059  16.0990067  30.6691589
  10.6738997  15.9364214  30.2109108   9.7587252  16.0821075  30.7847862
  10.5187931  16.5601635  29.3305779  10.5707903  14.4381399  29.7447472
  11.2170191  13.5119314  30.3116760   9.7563448  14.2138166  28.8796997
  10.3949900  16.4893017  33.3311310  10.2638903  17.6112366  33.8855095
   9.4488783  15.5446758  33.4295731   9.5410786  14.6723318  32.9289551
   8.1123409  15.6105871  34.1272469   7.5666933  16.4881020  33.7803535
   7.1666741  14.3847303  33.7251663   7.1579471  14.3274899  32.6367035
   7.5437884  13.4226713  34.0720482   5.7299614  14.5685081  34.0964699
   5.7691846  14.8623734  35.1453743   5.2330589  15.3316660  33.4974899
   4.9445658  13.2468157  33.8505745   4.8204651  12.8540554  32.6762810
   4.6404667  12.5434866  34.8426247   8.2792606  15.7941494  35.6566277
   7.4806824  16.5816364  36.2695160   9.3974209  15.3454351  36.3291321
  10.0220757  14.7486372  35.8059349   9.7515240  15.7716541  37.7445335
   8.8839512  16.2717743  38.1749954  10.1237383  14.5957928  38.5981026
  11.0165205  14.0846910  38.2378044  10.3150892  14.9683428  39.6044273
   9.0052738  13.5438385  38.7188683   8.7601948  13.0988264  37.7545013
   9.3815479  12.6488094  39.2142906   7.8166962  14.1742535  39.5327873
   6.6821342  14.2313099  38.9997559   8.0147762  14.6171255  40.6657104
  10.7995396  16.8523102  37.8891563  10.5881472  17.8853436  38.5815659
  11.9774427  16.6292057  37.2656136  12.0434427  15.8116865  36.6762009
  13.2080021  17.4052906  37.4899292  13.5554008  17.3854961  38.5228996
  14.3924103  16.7183990  36.7325058  14.0103550  16.4357700  35.7515602
  15.6258469  17.6635628  36.5220642  16.3817120  17.1090908  35.9658890
  15.3464804  18.4990807  35.8802147  15.9416103  18.1167030  37.4617729
  14.8219290  15.2945719  37.3003960  15.4515123  15.4820786  38.1702042
  13.9711227  14.7668066  37.7313156  15.5901814  14.3140621  36.3773308
  16.4116039  14.7263031  35.7913094  15.9454021  13.4790983  36.9812775
  14.9282904  13.9030361  35.6150589  13.0919695  18.8989677  37.1469841
  13.6348057  19.7312984  37.8800430  12.3770828  19.2182541  36.0671310
  12.2712259  18.4436588  35.4276810  12.0019054  20.6632156  35.7479401
  12.9144449  21.2559757  35.8112564  11.4443121  20.7216282  34.2948494
  10.5036144  20.1788731  34.2020950  11.0925608  21.7361355  34.1073685
  12.4840918  20.2761612  33.2573891  12.6211147  19.1975002  33.1811371
  12.0075521  20.6168480  31.8392429  12.6605997  20.1581612  31.0967922
  11.0488386  20.1873074  31.5486145  11.9812479  21.6961479  31.6891727
  13.8383722  20.9630127  33.4937057  14.4509974  20.8750591  32.5964508
  13.7410450  22.0329762  33.6775665  14.3989134  20.4288578  34.2608910
  11.0946703  21.2381649  36.8311043  11.3740368  22.3051682  37.3648453
   9.9220791  20.5691967  37.0950394   9.8013916  19.6594124  36.6733437
   8.8496323  21.0239754  38.0244293   8.4312792  21.9805984  37.7114525
   7.6990366  19.9283543  38.0390892   8.1218319  18.9698086  38.3399811
   6.9327378  20.0701618  38.8011780   6.9706416  19.7439079  36.7153130
   7.6737947  19.3875446  35.9625320   6.2064524  18.9775105  36.8447304
   6.2155819  21.0048237  36.2555084   6.5253987  22.1213512  36.5316200
   5.2739534  20.8183956  35.4015923   5.0023942  19.9084225  35.0576324
   4.8747883  21.6643677  35.0206718   9.4633923  21.1731300  39.5052834
   9.3651743  22.2687206  40.0834122  10.2621469  20.1893501  39.9717789
  10.3816414  19.3423843  39.4346848  10.7438374  20.2828770  41.3724251
  10.0204086  20.5299606  42.1494064  11.5052280  18.9811974  41.7439003
  12.1675053  18.8225822  40.8928261  12.0896730  19.1449547  42.6492767
  10.5376835  17.7939034  41.9777679  10.0389633  17.5382175  41.0428848
  11.1617460  16.9498234  42.2713203   9.4933271  18.0748882  43.0351181
   9.8896475  18.5683060  43.9225693   8.7963505  18.8438034  42.7018013
   8.8367233  16.7029247  43.4508476   8.4787102  16.1955185  42.5550423
   9.6406670  16.1191406  43.8991470   7.7438459  16.9648399  44.4543762
   8.0170908  17.6785889  45.1146774   6.8839998  17.3070049  44.0497856
   7.6050615  16.1429501  45.0247574  11.7851896  21.4298038  41.5263443
  11.9050665  22.0163937  42.5848694  12.5077782  21.7674198  40.4810982
  12.2017412  21.3659782  39.6062851  13.4444599  22.9343929  40.3872414
  13.9980726  22.9129868  41.3259392  14.3540516  22.8488750  39.2056770
  13.7755432  22.7803802  38.2844048  15.4522514  23.9755554  39.0952721
  15.0194130  24.9751568  39.0559616  16.2006588  23.8040943  39.8689575
  15.9318104  23.8563385  38.1237221  15.0878839  21.6540508  39.2882271
  14.4528913  21.0246582  38.9385834  12.7240372  24.2760715  40.2845612
  13.1473045  25.1558609  41.0114822  11.5849009  24.4148808  39.5855522
  11.2449894  23.6396828  39.0345306  10.7512217  25.7361012  39.6361084
  11.4336319  26.5816593  39.5498047   9.8729506  25.7032700  38.2912407
  10.4969902  25.7988701  37.4026833   9.2791195  24.7914124  38.2281380
   8.7748680  26.7760601  38.2553101   8.2713556  26.7686253  39.2220154
   9.3086205  27.7256413  38.2165451   7.8918924  26.5549412  37.0391388
   8.5053539  26.5471096  36.1381950   7.3173451  25.6302395  37.0931816
   6.9249663  27.6789455  36.7037582   7.4502358  28.6105595  36.4933090
   6.4831133  27.3832264  35.7522240   5.8892646  27.9359207  37.7333336
   5.3974748  27.0621262  37.8546867   6.3217568  28.0566692  38.6380272
   5.1944709  28.6578770  37.6062851   9.8910656  25.8972759  40.8966599
   9.5774364  27.0248470  41.3143234   9.4076633  24.8492069  41.4971619
   9.5201874  23.9908295  40.9769440   8.7210455  24.8237534  42.7880211
   7.9513707  25.5856476  42.6646614   7.9755921  23.5404968  43.1527367
   8.7197294  22.7506714  43.2553787   7.5327506  23.6377602  44.1439629
   6.9675536  23.1416035  42.1003609   6.2943244  23.9544048  41.8279305
   7.4802580  23.0034599  41.1484413   6.2097034  21.8325539  42.4569740
   6.3075223  21.1888256  43.4871330   5.2989602  21.4190540  41.5733147
   5.2324338  22.0619068  40.7971611   4.8727136  20.5141525  41.7131996
   9.7203941  25.2473736  43.9521484   9.3907614  26.0697136  44.8222847
  10.8900852  24.6148415  44.0495491  10.8768530  23.7248859  43.5721550
  11.9027262  25.0737572  44.9228668  11.5536747  24.9646263  45.9496841
  13.1467772  24.1357250  44.7722321  12.8080235  23.1209984  44.9812126
  13.5092716  24.1004581  43.7448730  14.3154354  24.6336632  45.6836395
  14.5886097  25.6646862  45.4589920  13.9452028  24.5243893  47.1479187
  13.1735582  25.2723007  47.3303719  13.5793066  23.5038185  47.2604141
  14.8191795  24.5890846  47.7960625  15.4728079  23.6689014  45.5813141
  16.3047962  24.1130848  46.1277504  15.2142420  22.7107143  46.0320053
  15.6891680  23.5996666  44.5152473  12.2057352  26.5699406  44.7552452
  12.3764200  27.2789593  45.7420502  12.3363400  27.0097427  43.5027924
  12.2877941  26.2901363  42.7957497  12.6919737  28.4550457  43.1571503
  13.6615753  28.7260303  43.5749321  12.9060078  28.5964699  41.6434135
  13.6914005  27.8743134  41.4203720  12.0654802  28.1987133  41.0747185
  13.4005947  29.8871155  41.0755386  12.5372086  30.5524445  41.0756989
  14.5779743  30.5376492  41.6998367  14.9042158  31.4178009  41.1457558
  14.2282104  30.9220257  42.6579666  15.3316593  29.7575340  41.8069801
  13.7932587  29.6040325  39.5839920  13.1055593  28.9052544  39.1076736
  13.5849237  30.5534935  39.0908165  14.8482857  29.3666210  39.4474144
  11.6557798  29.3741341  43.7381897  12.0043583  30.3113174  44.4610405
  10.3700762  29.0630989  43.4387512  10.2303095  28.3153992  42.7742882
   9.2102108  29.8657322  43.9048119   9.3886528  30.8570251  43.4881630
   7.8952003  29.2227650  43.3653183   8.0814238  28.1568718  43.4968147
   7.0797524  29.5632401  44.0034599   7.6339350  29.8093376  41.9647751
   7.1468349  30.7676659  42.1448975   8.5874844  29.9895287  41.4684143
   6.8531823  28.9037018  40.9818993   6.7003441  29.4373398  39.8858719
   6.3832207  27.8515720  41.3671989   9.1293869  30.0109043  45.4336815
   8.7859621  31.0686493  45.9152946   9.5278521  28.9661427  46.1592216
   9.7880945  28.1311989  45.6540070   9.7755127  28.9007530  47.6321487
   8.8132601  29.3211517  47.9244461  10.0240211  27.4546642  48.1370621
  10.8890753  27.0716724  47.5956764  10.3875074  27.4575577  49.1646690
   8.8195724  26.4792938  48.3417244   8.3107710  26.2611694  47.4027634
   9.2046700  25.5351067  48.7268410   7.7663641  26.9195175  49.3006821
   8.1648016  26.8142853  50.3097801   7.4789562  27.9658222  49.1969910
   6.5228119  26.0232983  49.0585175   6.1439271  26.0504818  48.0368462
   6.7482610  24.9790897  49.2750931   5.4430184  26.4725189  50.0384560
   4.9045467  25.7203331  50.4438858   5.6407561  27.0819454  50.8192253
   4.8023376  27.0377598  49.4998169  10.8885145  29.8167744  48.0398903
  10.7443380  30.6523685  48.8828506  12.0131321  29.6322937  47.3480110
  12.0987692  28.9262486  46.6308861  13.2517328  30.4761581  47.5035248
  13.5376205  30.3400249  48.5465202  14.4397736  29.9311218  46.6687317
  14.1094322  29.4971886  45.7249756  15.4598694  31.0653629  46.3882713
  15.7202692  31.5092010  47.3491554  16.2943459  30.5754738  45.8865128
  15.0219469  31.7856216  45.6972160  15.0162258  28.7533932  47.4639091
  15.4235115  29.2346287  48.3530846  14.2346001  28.0268402  47.6858978
  16.1728687  28.0975704  46.6583252  17.0613308  28.6890469  46.8794632
  16.2795811  27.0842762  47.0455551  15.9332724  28.1644478  45.5970879
  13.0270271  31.9791832  47.3282776  13.2671270  32.7668533  48.2352142
  12.4004288  32.3205948  46.2383423  12.3046846  31.6666031  45.4746437
  11.8008318  33.6251602  46.1055756  12.6554871  34.3007622  46.0703964
  11.0978432  33.6996613  44.7230568  10.4750357  32.8238373  44.5409966
  10.1299400  34.9273071  44.5509300   9.8934689  35.1095352  43.5026131
   9.1856203  34.8894577  45.0940018  10.5463085  35.8875961  44.8552017
  12.1792898  33.6976852  43.6342468  12.6325426  34.6760902  43.4749374
  13.0559616  33.1125183  43.9119835  11.6883631  33.1853409  42.2992477
  10.8549328  33.8221626  42.0026817  12.5321074  33.2792892  41.6156044
  11.3399248  32.1621666  42.4399910  10.9781551  34.0800591  47.3066025
  11.2415190  35.1424637  47.8175812   9.9979877  33.3961372  47.8092613
   9.8530397  32.4841270  47.4002075   9.0771036  33.8945580  48.8243904
   8.8503361  34.9574699  48.7413521   7.6482201  33.3052711  48.8475456
   7.7988119  32.2541733  49.0937462   7.1113939  33.7957573  49.6595459
   6.8273058  33.2906380  47.5368729   7.2834630  32.5279884  46.9056969
   5.8860579  32.8197708  47.8204918   6.6815453  34.7358170  46.9672813
   6.3946977  35.6665192  47.7545319   6.6593046  34.9503250  45.7415237
   9.6849480  33.8210449  50.2725220   9.2837830  34.4866982  51.2132759
  10.7390633  32.9913635  50.4592247  11.1310720  32.5660133  49.6312714
  11.5625153  32.9520531  51.6677666  10.9515047  33.1906166  52.5383186
  12.2646103  31.6483727  51.7856407  11.6873150  30.8053169  51.4060478
  13.0727291  31.6859703  51.0551414  12.6958647  31.0749912  53.2021523
  13.5253344  30.3768864  53.0893211  12.8609734  31.9002647  53.8948021
  11.5175610  30.2461281  53.8229027  11.6645937  29.0356884  54.1960449
  10.3450899  30.7979031  53.8404465  12.6915169  34.0857277  51.6665764
  13.1738319  34.4589195  52.7421532  13.1547613  34.6157837  50.5209694
  12.8830309  34.0975113  49.6977692  14.3049269  35.6257172  50.3996391
  14.6455622  35.8642006  51.4072113  15.5398645  34.9891434  49.6500435
  15.2342081  34.6273117  48.6683311  16.3600273  35.7068748  49.6328850
  16.1071701  33.6942024  50.3209114  16.9627018  33.7844009  51.1915054
  15.7150412  32.4945221  50.0159035  16.0025291  31.7540379  50.6397133
  14.8513680  32.3321953  49.5180893  13.8683348  36.9484482  49.6972885
  14.6731501  37.9438667  49.5643082  12.5783796  36.9829865  49.2457657
  12.0249939  36.1381950  49.2320404  11.9739742  38.0885277  48.4643173
  11.1247931  37.5056610  48.1075859  11.4648008  39.2903328  49.3536758
  12.3490162  39.8596039  49.6403656  10.7358437  39.9090881  48.8303528
  10.7569952  38.8184319  50.6018982   9.7661562  37.8833084  50.6555367
   9.3915033  37.3859863  49.8602982   9.2578125  37.8154526  51.8741074
   8.5849829  37.0022507  52.1030159  10.0552368  38.5686798  52.6797371
  10.0874271  38.5901070  53.6889954  10.9492998  39.1866455  51.8980331
  11.7180252  39.8321724  52.2964745  12.6477365  38.5366669  47.1658936
  12.4979601  39.6138878  46.6569977  13.4871502  37.6728897  46.6742744
  13.6325207  36.8339958  47.2176285  14.4716740  37.8809586  45.5725098
  15.1474199  38.7138634  45.7667542  15.1381636  36.4856644  45.3230438
  14.4150534  35.6901054  45.1433258  16.1794453  36.5307198  44.2776222
  16.9394474  37.2795372  44.5007133  16.7006302  35.5739212  44.2460632
  15.6936369  36.6440201  43.3084717  15.7895765  36.0579262  46.4970322
  16.2828617  36.7710152  46.9090614  13.7963343  38.2015800  44.2736473
  12.7381306  37.5865097  43.9972649  14.4056511  39.0998535  43.4149132
  15.1890192  39.5570755  43.8591919  14.0486488  39.5555077  42.1011047
  13.1843796  38.9841385  41.7624626  13.4378881  40.9505615  42.0227089
  13.0811920  41.0563087  40.9981651  12.5573282  41.0207939  42.6612854
  14.4172401  42.0414619  42.3963966  14.8828554  41.8877869  43.3698883
  15.1833572  42.1038704  41.6235657  13.6335106  43.3796463  42.5112648
  12.8402195  43.3474655  41.7644348  13.0901031  43.3644333  43.4560318
  14.5000782  44.6271248  42.3678017  15.0825415  44.5861015  41.4473877
  13.9599257  45.5720558  42.4265022  15.5605946  44.6375771  43.3723145
  16.1987076  45.4203568  43.3592415  15.1661997  44.6768494  44.3013000
  16.1973820  43.8540878  43.3450203  15.2591372  39.3756638  41.0797768
  16.3518028  39.5338631  41.4822273  15.0892954  39.0180435  39.8047714
  13.7865820  38.8315010  39.1161461  13.0799255  39.5660667  39.5023460
  13.5765009  37.7816544  39.3205986  14.1308250  38.9793282  37.6289673
  14.2150631  40.0153351  37.3007965  13.4495983  38.4878044  36.9343834
  15.3984356  38.2626686  37.5298843  15.9773626  38.3890800  36.6150284
  15.2677784  37.1805496  37.5222206  16.1321831  38.5891762  38.8971138
  16.6854687  37.7063332  39.2173691  17.1173973  39.6742821  38.5405426
  18.2781467  39.4077301  38.2735252  16.6738834  40.9624214  38.5167809
  15.6844177  41.0983543  38.6670456  17.5140743  42.1724663  38.4493065
  18.0067291  42.0286903  37.4876823  16.5486908  43.4199944  38.3647308
  15.6771631  43.2865257  37.7238503  16.1762047  43.5541611  39.3802872
  17.1531429  44.7728577  37.8782158  16.4498310  45.5917664  38.0293388
  18.0328407  45.0782089  38.4447823  17.5332394  44.7086334  36.4247971
  16.9167480  43.9730110  35.6328316  18.3906136  45.5092239  35.9888306
  18.6303253  42.3578377  39.4579887  19.5127945  43.1705132  39.2095070
  18.5367146  41.7629547  40.6164589  17.7287178  41.1882591  40.8087387
  19.6981621  41.6593971  41.6038895  20.3416882  42.5089836  41.3754539
  19.1578789  41.7336273  42.9867096  18.5306034  40.8521194  43.1192551
  20.0177746  41.7677193  43.6556778  18.2268524  42.9153862  43.2579346
  18.4550514  44.0229607  42.7518311  17.2156010  42.7109222  43.9316368
  20.4549427  40.3219490  41.5104027  21.5391426  40.1820259  42.0192032
  20.0584850  39.2911949  40.7957039  19.2956848  39.3972473  40.1422615
  20.8585625  38.0455704  40.6734886  21.2653847  37.7502670  41.6406479
  20.0537357  36.8489685  40.1290436  19.7143707  37.1262932  39.1310310
  20.8293381  35.5651054  39.9051285  21.4449043  35.7808838  39.0318451
  21.4629154  35.3904724  40.7747154  20.3162365  34.6131592  39.7686653
  18.7490940  36.6638031  41.0046616  18.5623169  37.5239525  41.6475868
  17.8624954  36.5403099  40.3827324  18.7359371  35.8365669  41.7143211
  22.0831509  38.3552361  39.8099937  21.9942207  38.8788948  38.7187653
  23.2364407  37.9586296  40.2712135  23.3288918  37.4107399  41.1146393
  24.4774876  38.0861435  39.4582672  24.5410118  39.0987206  39.0598259
  25.6275387  38.0332413  40.4835243  25.6032200  37.1733131  41.1528740
  26.9573593  37.9645424  39.7286186  27.1253510  38.7871399  39.0334854
  27.8323631  37.9853477  40.3782616  27.0906582  37.0250969  39.1921768
  25.6778240  39.2881508  41.4156418  24.8399830  39.2125549  42.1087532
  26.6008244  39.3816757  41.9878540  25.5653706  40.1749306  40.7918816
  24.4907722  36.9597015  38.4167099  24.6831131  37.1711960  37.2541466
  24.2801476  35.7366295  38.8508911  24.0665112  35.6282234  39.8320694
  24.2135372  34.4349060  38.1109352  23.5275249  34.5304756  37.2692947
  25.6436462  34.0173492  37.6016426  25.5656357  33.2376633  36.8439445
  26.0725136  34.8642044  37.0659103  26.5461597  33.4165459  38.6984482
  26.1052914  33.5595741  39.6849976  26.7482529  32.3811684  38.4241180
  27.8508663  34.1861267  38.8287582  28.4209824  34.7646484  37.9058075
  28.4648418  34.1652641  39.9621811  29.4447441  34.3891525  39.8633232
  28.0138302  33.8077011  40.7921448  23.5368824  33.2855110  38.9317207
  23.2956429  33.4907379  40.1216202  23.3012943  32.0619621  38.3543129
  23.1723728  32.1580505  37.3571968  22.8814449  30.8498154  39.0419426
  23.1834011  30.9852982  40.0804863  21.3678226  30.7019672  39.0817909
  21.0326195  31.5267258  39.7106895  20.9191208  30.7794704  38.0914574
  20.7923622  29.3825150  39.7018394  21.4585781  28.5459080  39.4912529
  20.6350994  29.5260048  40.7708473  19.1788139  28.9025478  38.9701424
  18.1709080  30.2687416  39.4426842  18.5871029  31.1064644  38.8831253
  17.1323128  30.0835438  39.1685944  18.2060661  30.4367218  40.5190887
  23.5787468  29.5916939  38.5123100  23.9571209  29.4438667  37.3321228
  23.8112144  28.7048512  39.4719582  23.4094677  28.8737755  40.3830910
  24.3737144  27.3588352  39.3043747  24.5221062  27.1899738  38.2378082
  25.7043991  27.2682400  40.0460129  25.4516697  27.1579933  41.1005592
  26.2617397  26.4044037  39.6837120  26.7378235  28.4232750  40.0063133
  26.2056351  29.2842484  40.4107857  27.9379749  28.1219978  40.8481827
  27.6195545  27.7209072  41.8103905  28.5930119  27.3912830  40.3737564
  28.4251518  29.0492573  41.1497574  27.3253078  28.7434788  38.6300735
  27.7298279  27.8729267  38.1137352  26.5868759  29.1032162  37.9135475
  28.0941753  29.5020733  38.7766228  23.3597469  26.3383312  39.7181320
  22.7179070  26.4882660  40.7813110  23.1431637  25.2651234  38.9328995
  23.6931953  25.1393032  38.0952034  22.3082809  24.0775280  39.2856483
  21.8514881  24.2479401  40.2605324  21.2557793  23.8490982  38.2233124
  21.6713047  23.6914158  37.2280388  20.8931942  22.8381557  38.4093971
  20.2925797  24.9907684  38.1626854  20.0843105  25.3783913  39.1599197
  20.5191288  26.1189594  37.1188316  20.9403534  25.6549969  36.2269707
  19.5643940  26.6011200  36.9087982  21.1880913  26.8522358  37.5692711
  18.9362469  24.3593636  37.7180862  18.6159039  23.6487179  38.4799728
  18.1391582  25.0981693  37.6349182  19.0324383  23.8526001  36.7578583
  23.3372822  22.9090824  39.4287071  24.3470955  22.9646988  38.7737198
  23.0045586  21.9157257  40.2070427  22.2001858  22.0383587  40.8054123
  23.8856049  20.7289963  40.3384094  24.4796276  20.5748692  39.4375877
  24.7626152  20.8879395  41.5850601  25.1349430  21.9002895  41.7419624
  24.0446663  20.6894722  42.3808365  25.8019848  19.9469833  41.5177765
  26.3080044  20.1839924  40.7371559  22.9880943  19.5003052  40.4406624
  21.8731785  19.6495495  40.9813042  23.5133629  18.3200684  40.0913620
  24.4765377  18.2808094  39.7899437  22.7490005  17.0917130  40.3141212
  22.1577797  17.1918354  41.2243652  21.8291016  16.7884178  39.1883774
  20.8703899  16.2856979  39.3158226  21.4704895  17.7379932  38.7911339
  22.4469070  16.3833218  38.3869324  23.7282276  15.8358107  40.5906029
  24.8490238  15.7625608  40.0929451  23.2044125  14.8361931  41.2292595
  22.2167931  14.8545389  41.4398994  23.9188004  13.5442095  41.6346703
  24.9061356  13.7867546  42.0276642  23.1260128  12.9335489  42.7514954
  23.6696358  12.0538578  43.0960541  23.2564316  13.8974094  43.9836426
  24.3126240  13.9348879  44.2503891  22.9504795  14.8975496  43.6767006
  22.5909824  13.4864349  44.7428398  21.7500153  12.7867908  42.4849625
  21.5133648  11.9120207  42.1681404  24.0636368  12.5766163  40.4327698
  23.2675972  12.6127977  39.5162697  25.0821381  11.6985693  40.4390526
  26.0264530  11.5027542  41.4581909  25.7044563  11.3254652  42.4843407
  26.8263760  12.2415533  41.5071678  26.6589088  10.1422863  41.0155792
  26.0037308   9.3061409  41.2599297  27.6569118  10.0307970  41.4394417
  26.7526817  10.2918043  39.5716133  27.0153790   9.3704958  39.0517273
  27.4497051  11.0902929  39.3173027  25.4173889  10.8793583  39.2650299
  25.5668335  11.5383444  38.4097519  24.3068161   9.8733540  38.8236313
  24.4608650   9.1595621  37.8037796  23.1082649   9.8131227  39.4464874
  23.0603237  10.4688101  40.2132225  22.0048008   8.9438353  39.1148872
  22.5534344   8.1476393  38.6117210  21.3913536   8.4354906  40.4250641
  20.3680267   8.1295252  40.2076111  21.8999920   7.4854755  40.5889511
  21.3584690   9.2548590  41.6347847  21.1990585  10.5064211  41.5338669
  21.3676167   8.7472324  42.8045845  20.9489937   9.4938593  38.1130142
  20.4128685   8.6652775  37.4230576  20.7518902  10.8383789  38.0906639
  21.2239552  11.4858742  38.7054863  19.8028336  11.5390329  37.2101059
  18.9701176  10.8357124  37.2045403  19.4657516  12.8607788  37.7792282
  20.2437782  13.6193104  37.8652763  18.7005196  13.2701979  37.1197586
  18.7699146  12.6916304  39.2326317  19.5117493  12.2221174  39.8786507
  18.4681873  13.9722805  40.0011559  19.4261055  14.3831930  40.3199654
  18.0685444  14.7528524  39.3537788  17.8373489  13.7951727  40.8722343
  17.5295353  11.7604666  39.2319794  17.8277283  10.7311745  39.0326538
  17.1939087  11.7000475  40.2672577  16.7316437  12.0505705  38.5483742
  20.4900837  11.7543392  35.7654877  21.6991005  12.0116110  35.6889839
  19.7200527  11.6463327  34.6728325  18.7257080  11.4953814  34.7655334
  20.2395287  11.6707344  33.2436829  21.0387001  12.4009628  33.1164398
  20.8139076  10.2791023  32.8155518  20.0517273   9.4999361  32.8065491
  21.2634087  10.4072237  31.8308525  21.8724651   9.7197113  33.7381287
  23.0061302  10.3823690  34.0794182  23.0994701  11.3791027  33.9455948
  23.6748924   9.5822506  34.9120369  24.5203972   9.9107771  35.4982071
  23.0512466   8.3423529  35.0304527  23.4107876   7.5154953  35.4855728
  21.8944817   8.5084906  34.3280029  21.2631073   7.6709108  34.0706558
  19.1762714  12.0289040  32.1918869  19.4598846  12.0230513  30.9784698
  17.9631634  12.3072023  32.5068626  17.7326717  12.1737604  33.4811172
  16.9285374  12.5159569  31.5370178  17.0534859  11.8746815  30.6645203
  15.5966291  12.1504660  32.1725998  15.1526079  12.9590921  32.7531700
  14.8939724  11.8987131  31.3782482  15.7405672  11.2813749  32.8145218
  16.8725529  13.9004917  30.8316231  16.4266872  13.9145823  29.7096329
  17.2616177  14.9819822  31.5190239  17.5592136  14.8068485  32.4681625
  17.1943855  16.3830872  31.1428051  17.4640980  16.5206814  30.0957031
  15.7450523  16.9439163  31.3477592  15.0893135  16.1479378  30.9948673
  15.3213549  17.3313503  32.7655373  15.4942465  16.4561691  33.3918457
  16.0598965  18.0994377  32.9951057  14.2830334  17.6612263  32.7997055
  15.4553823  18.1602936  30.4488297  15.8766708  19.1310654  30.7100239
  15.8255949  17.8178635  29.4825039  14.3971729  18.4120674  30.3787365
  18.1932163  17.2292500  32.0060539  18.4484196  16.8747730  33.1451530
  18.7934380  18.2727318  31.4419708  18.5971622  18.4378929  30.4650879
  19.5114956  19.3679199  32.1605988  20.1625519  18.9475727  32.9271088
  20.4434242  20.1754570  31.2822304  19.9465427  20.8692188  30.6040707
  20.8901253  20.8943615  31.9690590  21.6204319  19.4627018  30.5422516
  22.7503109  19.1425247  31.2984543  22.8969707  19.3387032  32.3503113
  23.9163685  18.4990463  30.7167168  24.8627052  18.3242741  31.2069206
  23.8250484  18.0377502  29.4010792  24.7272720  17.6630859  28.9406223
  22.6361885  18.2225914  28.6013794  22.5759830  17.8937950  27.5744095
  21.5723133  18.9320126  29.2119522  20.6684856  19.1749363  28.6729813
  18.4698849  20.2339230  32.8280067  17.6561680  20.8239174  32.2158661
  18.5619373  20.3421955  34.2318573  19.4827595  19.7399979  35.2194290
  20.5556755  19.6502495  35.0494461  19.0362244  18.7566681  35.3669968
  19.3168411  20.4334259  36.5487366  19.8312206  21.3839626  36.6901207
  19.6015072  19.7478714  37.3469086  17.8846779  20.7851009  36.4510574
  17.7815666  21.6408062  37.1183167  17.2495060  20.0071030  36.8745918
  17.5431118  21.1244183  34.9251366  16.5832558  20.7006130  34.6298981
  17.5372925  22.6169701  34.6612396  16.4831696  23.1793365  34.8809280
  18.5210381  23.2019005  34.0631256  19.3081722  22.6319714  33.7879906
  18.6349239  24.6866531  33.6856842  18.8852348  25.2889595  34.5589943
  19.7157097  24.7741375  32.6082039  19.7845078  25.8168259  32.2980881
  20.6749783  24.3485546  32.9027939  19.3316326  24.4009018  31.6588440
  17.3652134  25.2994900  33.0743065  16.9805851  26.4538975  33.3454704
  16.7336655  24.4557209  32.1723900  17.2254047  23.5855598  32.0270805
  15.4749670  24.8112431  31.5756435  15.6701889  25.5861874  30.8343945
  14.9660034  23.5281143  30.8010502  14.8057861  22.6587276  31.4386997
  14.0258007  23.8080711  30.3259144  15.9610863  23.1218071  29.6955948
  16.2498569  24.0080318  29.1305122  16.8834763  22.6516018  30.0364933
  15.3289585  22.1390400  28.7077579  14.9477949  21.2031212  29.1162567
  14.5088224  22.6724491  28.2271786  16.3222790  21.7633400  27.6417809
  16.6528931  22.7317009  27.2661858  17.1825809  21.2421436  28.0617027
  15.7849331  20.9660568  26.6050339  15.5966845  19.9981480  26.8237019
  14.9780855  21.4983273  26.3121414  16.4049530  20.8772755  25.8127003
  14.3025427  25.3539753  32.4286537  13.5892286  26.2770596  31.9797497
  14.0999680  24.8892937  33.6519928  14.8758020  24.3309650  33.9782677
  13.1716299  25.3664360  34.6979065  12.1691780  25.1024132  34.3610382
  13.5898066  24.5635643  35.8850555  14.6555262  24.5517559  36.1135368
  13.1526279  25.0714149  36.7447433  13.3461571  23.5048523  35.7963257
  13.2955580  26.8958187  34.9399986  12.3204298  27.4804325  35.2180290
  14.4865961  27.4923744  34.8327255  15.2195625  26.9407215  34.4101868
  14.6637802  28.8509102  35.2826118  14.1278572  28.9955082  36.2206879
  16.1973782  29.1438560  35.5053520  16.6384411  29.1721725  34.5089798
  16.5537319  30.4798012  36.2047157  17.6429005  30.4902821  36.2460136
  16.1024837  31.2283669  35.5534630  16.1414127  30.5774002  37.2089882
  16.8813725  28.0482616  36.3364296  16.4859810  27.8939781  37.3404007
  16.7459335  27.0863934  35.8418922  17.9460411  28.2816887  36.3461838
  14.0153255  29.7917404  34.3071213  13.4510231  30.8600826  34.6779823
  14.1512403  29.5486145  32.9881096  14.6851587  28.7197399  32.7690125
  13.7035933  30.3641663  31.8212757  14.2229748  31.3204651  31.7593212
  14.0411997  29.6596413  30.4178028  13.8861933  28.5832367  30.4914646
  13.4489603  30.1600685  29.6516914  15.4524536  29.9806099  29.9646034
  15.5138321  29.6839485  28.9175472  15.5121222  31.0687962  29.9845505
  16.5597229  29.3780212  30.8057404  16.4813957  29.8657627  31.7773762
  16.4834480  28.2986450  30.9370098  17.9035435  29.7719669  30.2637005
  18.2630558  30.6934719  30.4678516  18.7574615  28.9076843  29.7705688
  18.3382111  27.6856441  29.5336113  17.4666862  27.2059441  29.7080708
  18.9686317  27.0801468  29.0276051  20.0111504  29.2807388  29.4339104
  20.6438179  28.6725159  28.9340115  20.2560253  30.2600746  29.4017143
  12.1383162  30.6051025  31.8409328  11.5906229  31.4765453  31.0903072
  11.4393053  29.7479839  32.6125565  11.9361658  29.2740250  33.3532295
   9.9857073  29.7229595  32.6314621   9.5690556  29.7717266  31.6254177
   9.5964403  28.3440399  33.2470512   9.9090557  28.3760586  34.2907677
   8.5135927  28.2987518  33.3632507  10.0857019  27.0618649  32.6594734
  11.1742640  27.0440540  32.7125549   9.8357449  26.2011948  33.2798500
   9.5532713  26.7200584  31.2602825   9.8177433  25.5847683  30.9061222
   9.0523567  27.6409149  30.5588150   9.3789797  30.8569088  33.4709015
   8.3141880  31.3782558  33.1382866  10.1478901  31.2277050  34.5251274
  11.1214800  30.9597054  34.5450745   9.5968819  32.1397743  35.5454445
   8.5556297  31.8278198  35.6265602  10.2590208  31.9195900  36.9101639
  11.3424301  31.9768372  36.8050652   9.8381004  32.6926308  37.5530815
  10.1460409  30.5802212  37.5777588   9.1915121  30.1152344  37.3312531
  11.2991047  29.6972847  37.1628151  11.1333160  28.7704086  37.7119255
  11.1187878  29.4003277  36.1296654  12.2894545  30.1328907  37.2953300
  10.1982517  30.8159618  39.0884666  10.3452272  29.8769417  39.6220779
  11.0709419  31.4365978  39.2917557   9.3322582  31.4187088  39.3620605
   9.7590284  33.6049538  35.0037193  10.5645390  33.8913994  34.1782722
   8.9480953  34.5387650  35.5077019   8.2350168  34.2316742  36.1536980
   8.8769236  35.9279022  34.9728470   8.5108423  35.8629990  33.9482155
   7.8912783  36.7991142  35.7956619   6.9358869  36.2759552  35.7552567
   8.0425892  36.9286041  36.8673134   7.7240691  38.0862350  35.1155891
   6.8188038  38.3148842  35.3387794  10.2088108  36.6153717  34.8925095
  10.7048368  37.0010872  35.9431381  10.8074427  36.6540451  33.6793213
  10.3578978  36.2315674  32.8796196  12.0209885  37.3127556  33.5367699
  12.1750326  37.4001007  32.4612503  11.9874191  38.3352394  33.9129410
  13.2939796  36.7590179  34.1952057  14.3663702  37.3213387  34.1268730
  13.1639986  35.5173149  34.7353935  12.2404165  35.1192780  34.8284683
  14.3423996  34.7310524  35.0779800  14.9621153  35.4540291  35.6084175
  13.9274120  33.6091995  36.0734177  13.0904169  32.9999199  35.7323608
  14.8464947  33.0389137  36.2081947  13.5631399  34.0769157  37.4916573
  12.4245195  34.6583633  37.9799042  11.5201435  34.6852608  37.3901749
  12.5921030  35.1705666  39.2380447  11.8710442  35.5566101  39.8306198
  13.8749475  34.8857994  39.6765633  14.5012035  35.1993179  40.8673515
  13.9451895  35.6563683  41.6725540  15.8188572  34.7378693  41.0084419
  16.3815117  35.0174713  41.8868752  16.5188141  34.0203514  39.9747162
  17.5181885  33.6795959  40.2017288  15.8484402  33.7716331  38.7386780
  16.4311428  33.2424088  37.9992332  14.5207405  34.2090416  38.5819511
  15.1022577  34.1545334  33.8503532  16.2639465  33.8904686  33.9065819
  14.4668531  34.1424828  32.6940498  13.5012045  34.4342346  32.7440834
  15.0675097  33.9199524  31.3967628  15.4471598  32.8997154  31.3411999
  13.9712105  34.0243454  30.2492867  14.4759398  33.6254158  29.3693981
  13.1246748  33.4035492  30.5427074  13.3936472  35.4230309  29.9998016
  12.8536224  35.7242508  30.8974361  14.2177830  36.0992699  29.7726383
  12.4319305  35.5663376  28.7709484  12.6503687  34.8613358  27.8062611
  11.5038395  36.4805908  28.7071400  11.3635693  37.0497246  29.5296421
  10.9952812  36.5228043  27.8355370  16.3011265  34.7902794  31.0790768
  17.1415482  34.3998299  30.3427582  16.5515690  35.8698921  31.8589725
  15.9038906  36.1308212  32.5887184  17.5806198  36.8797455  31.6253796
  17.9014797  36.6924667  30.6006489  17.0010910  38.3011513  31.7624493
  16.5999069  38.3871613  32.7722778  17.8008575  39.0094681  31.5461998
  15.9010315  38.6992378  30.8197556  15.9772148  38.5374870  29.3973789
  16.8969784  38.1837349  28.9554577  14.8559685  38.8118515  28.5890789
  14.8990908  38.7243576  27.5134907  13.6998463  39.3854713  29.1232548
  12.6909485  39.7040291  28.2960739  12.7962828  39.5088921  27.3620358
  13.5790730  39.4671364  30.4860191  12.6441240  39.7545395  30.9439163
  14.6741810  39.2199173  31.3158398  14.4610014  39.2868576  32.3724747
  18.7704811  36.5826263  32.5034599  19.8984661  36.8018951  32.0758820
  18.6004028  35.9498024  33.6707268  17.6937771  35.5799675  33.9184227
  19.7297249  35.5423012  34.5714989  20.3559608  36.4151268  34.7561951
  19.1574669  34.9742470  35.8861351  18.3566284  34.2982178  35.5865669
  19.9772511  34.0254211  36.7426033  19.3585129  33.7296219  37.5898094
  20.3679619  33.1590958  36.2088203  20.8879795  34.5579605  37.0165939
  18.5214176  36.1483307  36.7133179  18.3804359  35.8685265  37.7573204
  19.2193756  36.9835091  36.7719307  17.5920830  36.5988884  36.3648491
  20.5459938  34.4015160  33.8669662  19.9996738  33.3400078  33.3710556
  21.9140053  34.4497108  33.8079453  22.7180004  35.6347160  34.1962242
  22.5040970  36.0842018  35.1659164  22.5379143  36.3848152  33.4261436
  24.1563873  35.1533699  34.3005219  24.2799416  34.6558075  35.2624283
  24.7929955  36.0256958  34.1525879  24.1669712  34.1882362  33.1468277
  25.0918789  33.6127815  33.1855545  24.1013126  34.7383842  32.2081451
  22.8197021  33.4471664  33.2660942  22.5159740  33.2660866  32.2350426
  22.8513794  32.1873169  34.1764870  22.8970718  32.2443733  35.3998489
  22.7884865  30.9837132  33.5856857  22.8262062  31.0023098  32.5765610
  22.6992931  29.6558361  34.2082176  22.9838219  29.8369026  35.2447281
  21.2671871  29.0612240  34.2237587  21.3409500  28.1161385  34.7617874
  20.1370945  29.7797108  35.0867844  19.1257896  29.4535580  34.8439369
  20.4221439  29.6404991  36.1296005  20.0600090  30.8439140  34.8640137
  20.6288452  28.9125271  32.7966957  20.5349407  29.8283520  32.2131348
  21.0746689  28.1060791  32.2144737  19.6185455  28.5454140  32.9773178
  23.7144661  28.6804256  33.6545448  24.2734966  28.9334545  32.5420685
  24.0048313  27.6558533  34.4310341  23.7263260  27.6212311  35.4012566
  24.6662598  26.3928547  34.0158768  24.2351093  26.0869942  33.0626373
  26.1791267  26.5890369  33.7909622  26.2038918  27.2295589  32.9093628
  26.8551464  27.1890335  35.0299988  26.2295189  28.0238419  35.3458862
  27.0373402  26.4078979  35.7680550  27.8087215  27.6209984  34.7263451
  26.8580818  25.4024887  33.4136429  26.7070332  24.7333813  34.0852661
  24.4050064  25.3534451  35.0871468  24.3072090  25.6344624  36.2769165
  24.5398159  24.0850735  34.6740227  24.4462585  23.8031521  33.7086906
  24.6195698  22.8931046  35.5277519  24.2314186  23.1774178  36.5058136
  23.8011112  21.7736588  35.0041885  24.2127895  21.4848652  34.0371208
  23.9592800  20.8775406  35.6042442  22.0062580  22.1284714  34.7515373
  22.3195019  23.0968723  33.8861046  26.1029491  22.5457745  35.6549034
  26.9190216  22.9866257  34.8247490  26.4600506  21.7999382  36.6308517
  25.7025661  21.3262672  37.1019745  27.8088226  21.1251183  36.9161949
  28.2448940  20.8223724  35.9642029  28.6779728  22.0916843  37.7723389
  29.6628628  21.7064629  38.0363388  28.8247585  22.9871101  37.1683731
  28.0540791  22.6051617  39.0785828  27.2018909  23.1512012  38.6739616
  27.6821346  21.7978497  39.7094612  29.0924721  23.5856037  40.2530060
  29.8002377  24.8644676  39.1556664  30.5380726  25.3642406  39.7833023
  30.1732006  24.4293327  38.2284889  28.9462204  25.5209618  38.9890327
  27.5170460  19.7983704  37.6349487  26.6503334  19.7459316  38.5418129
  28.1222725  18.6878204  37.2551765  28.7695160  18.7915192  36.4867897
  27.9895267  17.4190693  37.9189453  26.9565105  17.0788364  37.8466873
  28.8063431  16.3158512  37.0613937  28.5052567  16.4283543  36.0198631
  29.8700829  16.5532150  37.0462875  28.6388836  14.8493528  37.5259323
  29.5047398  14.3637228  37.0758667  28.7902660  14.6901159  38.5935593
  27.3884544  14.1924696  36.9629898  27.3970165  13.7232246  35.8420258
  26.3590221  14.0935173  37.7530174  25.4774761  13.7189474  37.4325790
  26.5591831  14.2134562  38.7356911  28.4183235  17.4461060  39.4173279
  29.5363083  17.8251095  39.6782913  27.5989037  16.9527359  40.3325691
  26.6469097  16.8209496  40.0220222  27.9812202  16.7831211  41.7600784
  28.5166264  17.6859360  42.0539627  26.7034035  16.6407738  42.6003342
  26.1122341  17.5381165  42.4175911  26.1312237  15.7678528  42.2861366
  27.0100231  16.5344620  44.1397896  27.5952396  15.6335802  44.3242683
  27.5196419  17.4031372  44.5566711  25.7600746  16.3392620  44.9536934
  25.7416496  15.3952522  45.8344002  24.7412949  17.1532993  44.7924232
  28.9107761  15.5607738  41.9867020  28.8698921  14.5167513  41.3449631
  29.9506207  15.6420259  42.8536797  30.1884975  16.5280457  43.2761536
  30.8427124  14.5407238  43.2169151  31.4686089  14.3173409  42.3529396
  31.7125835  15.1542454  44.3464127  32.3163338  16.0199814  44.0742149
  31.1036530  15.3432198  45.2304878  32.8275261  14.0400991  44.7951736
  32.3065948  13.0827799  44.7786827  33.5032692  13.9116125  43.9496193
  33.6760216  14.4264774  46.3788147  34.9669342  13.2116690  46.1901321
  34.5359344  12.2136297  46.2692223  35.5009689  13.4796362  45.2784920
  35.7321968  13.4603891  46.9253960  30.0927925  13.2495794  43.5988007
  29.1097221  13.2332516  44.2993774  30.5571480  12.1270170  43.1515198
  31.3741493  12.1248283  42.5577164  30.1002960  10.7613096  43.4586945
  29.0235825  10.8816881  43.5782623  30.3489971   9.8165150  42.2952309
  29.7222939   9.9947386  41.4213982  31.3806534   9.9729691  41.9801025
  30.0474796   8.3699350  42.7662277  30.6673756   7.5120287  42.1710701
  29.0859871   8.0735617  43.4742813  30.6392860  10.3043747  44.8159256
  31.7524548   9.7060003  44.7999573  29.9092445  10.5073576  45.9180222
  28.9801464  10.9007311  45.8718452  30.3370419  10.0343847  47.2051201
  31.3860264   9.7383413  47.1955452  30.1992588  11.1892128  48.2310066
  29.3106079  11.7684002  47.9801331  30.0541687  10.8043737  49.6590576
  30.1023426  11.7564068  50.1876526  29.1280251  10.2925529  49.9205894
  30.8212090  10.1205244  50.0225067  31.4752445  12.1219568  48.1897659
  31.3109264  13.1083384  48.6235313  32.2296066  11.4618883  48.6179543
  31.8117485  12.1535654  47.1534882  29.4027786   8.9587088  47.6387100
  28.1913490   9.0906582  47.4658585  29.9175014   7.8637023  48.1951294
  30.9254055   7.8736238  48.2593765  29.2198219   6.5482683  48.4073334
  28.8946362   6.2237115  47.4188919  30.2788448   5.4646473  48.7911682
  29.7690487   4.5053878  48.7015457  31.4791737   5.3483243  47.9453850
  32.0649376   6.2671957  47.9198341  32.0956955   4.4903145  48.2133713
  31.2052345   5.1666694  46.9061203  30.7047977   5.7905264  50.1087570
  30.4489174   5.0566893  50.6723213  27.9493599   6.6124821  49.3052559
  26.8611908   6.1168303  48.8867645  28.0122986   7.2632117  50.4912071
  28.9160690   7.5362339  50.8500366  26.8843727   7.4845295  51.4380455
  26.2596283   6.6119938  51.6290359  27.2819443   7.7109990  52.4273643
  25.9347534   8.6127329  51.1518211  25.0945702   8.9486141  51.9804306
  26.1412239   9.2801619  50.0286903  27.0308094   9.1352539  49.5729065
  25.3742294  10.4529591  49.5628891  25.4991398  11.3239584  50.2062073
  25.7682896  10.6678085  48.5695801  23.8624878  10.3381739  49.2861214
  23.3344364   9.3379736  48.9415092  23.2429256  11.4535332  49.6007805
  23.7529831  12.1769342  50.0872345  21.8232975  11.6874685  49.1680641
  21.3877373  10.9251413  49.8140068  21.3541641  13.0235558  49.6658974
  21.5872040  13.1175108  50.7265434  21.9431877  13.8009949  49.1793289
  19.8350372  13.1887169  49.4427109  19.5598488  13.0512180  48.3970222
  19.0023060  12.2830648  50.3590240  19.1812611  11.2486992  50.0654907
  19.4340820  12.4793596  51.3404160  17.9466705  12.5265121  50.4793091
  19.3360176  14.5955763  49.7953453  19.5738583  14.8438787  50.8296967
  19.8938675  15.3553362  49.2479248  18.2857475  14.7540827  49.5505867
  21.5611000  11.3886833  47.6933022  22.1735077  12.0338640  46.7981415
  20.7019501  10.4364786  47.4129944  20.2538700   9.9603968  48.1828461
  20.3975506   9.9057274  45.9995537  21.3255310  10.0680199  45.4512634
  20.0390015   8.3640337  46.1526031  19.1393147   8.3644361  46.7679596
  19.8048992   8.0035334  45.1509361  21.0932159   7.4930124  46.8194199
  21.1363697   7.6402483  47.8985672  20.8551979   6.4440680  46.6428719
  22.4137955   7.7819853  46.1628227  22.3175659   7.7326612  45.0781975
  22.7806396   8.7767181  46.4158821  23.3459377   6.6418900  46.5901718
  22.7867641   5.7063842  46.5741882  24.1859779   6.4751458  45.9159126
  23.9838791   6.9603906  47.8684502  24.4603882   6.1772261  48.2923508
  24.6997623   7.6221209  47.6043968  23.3758640   7.3333488  48.5835152
  19.3255253  10.7022018  45.2682495  18.4599361  11.2342958  45.9542084
  19.4120998  10.8708038  43.9028130  20.2977257  10.5616369  43.5284042
  18.4116039  11.4984636  42.9847298  18.7115078  11.4616299  41.9374428
  17.1264381  10.6146593  42.8342133  16.7128506  10.4405546  43.8275604
  16.3112297  11.1425991  42.3394279  17.3813210   9.3218699  42.1301346
  17.7592602   9.4543362  41.1163712  18.1087074   8.7211590  42.6761665
  16.1395206   8.4989929  42.0105362  15.6570368   8.3524399  42.9768829
  15.4150982   9.0559340  41.4162865  16.1782970   7.1325369  41.2441788
  15.1892834   6.6800575  41.1719704  16.5259991   7.3003340  40.2248421
  17.0401039   6.1405549  41.8815308  16.9422760   5.2769756  41.3669815
  18.0080109   6.4169888  41.9643059  16.6511154   6.0247340  42.8063965
  18.1504021  12.9688587  43.3005524  17.0308113  13.4476490  43.2737923
  19.1768799  13.6483173  43.7581863  20.0839520  13.2612448  43.5402565
  19.1336308  14.9944363  44.2985382  18.1127052  15.2015343  44.6193695
  20.0343666  15.1116714  45.5250282  20.1062222  14.2122297  46.1365356
  21.0446033  15.1647911  45.1191940  19.9561863  16.6448402  46.5945320
  18.9171753  16.3057079  47.3628693  19.4161015  16.1010056  43.3684196
  20.3124485  15.9080753  42.4925880  18.8147564  17.3006592  43.4195747
  18.1341572  17.4595490  44.1487083  19.2349358  18.4396896  42.6720734
  20.0548019  18.2758923  41.9727249  18.1417847  18.7683086  41.6920242
  17.3302288  19.2242889  42.2590866  18.5953484  19.7804394  40.6824913
  19.2385960  19.2810898  39.9579353  17.7419872  20.2040234  40.1529160
  19.1815834  20.6229782  41.0493050  17.4536381  17.6096115  40.8952484
  17.2236118  17.9985886  39.9033394  18.1043663  16.7741013  40.6372261
  16.1644154  17.0214901  41.4798737  15.2905083  17.5763645  41.1385536
  16.0733433  15.9912977  41.1356163  16.2830887  17.1433620  42.5565186
  19.4650650  19.6227875  43.6232910  18.5924721  20.0013390  44.4299965
  20.6122475  20.2739277  43.5152740  21.2579823  19.8245697  42.8818665
  21.0111046  21.4994392  44.2223282  20.3019066  21.6413918  45.0378036
  22.3130150  21.3704605  45.0110054  23.0824928  20.9014549  44.3977890
  22.6898899  22.3849716  45.1407585  22.0807152  20.7030964  46.3542099
  21.5551434  21.5026722  46.8762779  21.3181858  19.9249115  46.3213272
  23.4056511  20.4695244  47.0147820  24.2152157  21.0611324  46.5873413
  23.2324562  20.6965580  48.0667152  23.6682167  19.0295067  46.8863640
  23.9031467  18.6313076  45.9883957  23.5729408  18.1895847  47.8648720
  23.4241085  18.4172211  49.1562080  23.4860744  17.6022129  49.7495232
  23.3161278  19.3427296  49.5459175  23.6921597  16.9039745  47.5293884
  23.7940197  16.1968422  48.2433128  24.0837231  16.7390442  46.6131058
  21.0419426  22.7949448  43.3663368  21.2790833  22.6994476  42.1477051
  20.8071861  23.9775982  43.9564018  20.6306057  24.0758343  44.9459839
  20.9578571  25.2993202  43.3318100  21.4734917  25.1906166  42.3776588
  19.5735626  25.9083614  42.9171486  19.7364807  26.8812523  42.4534225
  18.7369194  25.1279430  41.9525871  17.9852371  25.8724194  41.6902237
  19.2621422  24.8140087  41.0505409  18.2935505  24.2342148  42.3916473
  18.6704788  26.2425632  44.1602592  19.2502689  26.8036003  44.8931885
  17.7980518  26.7647743  43.7674904  18.3316460  25.2650471  44.5034142
  21.7415752  26.2376633  44.2388687  21.5919266  26.2895298  45.4409332
  22.4246655  27.1207275  43.6013603  22.5612221  26.9914913  42.6090126
  23.0160675  28.2798939  44.1514626  22.5093212  28.5854244  45.0668640
  24.4257278  28.0661697  44.6086807  24.5266991  27.3667755  45.4385910
  24.9692707  27.5451870  43.8204918  25.1572475  29.3084202  44.9807625
  25.3504257  29.8637753  44.0629578  24.6019173  29.9958572  45.6188431
  26.8042622  29.0178165  45.7967873  27.7035522  28.5554295  44.3152962
  28.6830711  28.1768551  44.6073914  27.1157112  27.7203503  43.9342651
  27.8377705  29.4206123  43.6660309  22.8478203  29.5214233  43.2352486
  23.4717026  29.6332893  42.1948967  22.1870880  30.5901604  43.7027779
  21.7696133  30.5025349  44.6182747  22.2117004  31.9067707  43.1149406
  22.3723183  31.8815460  42.0371361  20.7736530  32.4495773  43.2213402
  20.5777435  32.7001762  44.2638969  20.6690445  33.3782043  42.6602631
  19.5589790  31.4468327  42.7771263  19.7694149  31.0941410  41.7674561
  19.4490910  30.5585728  43.3992348  17.9143028  32.2949181  42.7613106
  17.7962399  32.9211388  44.5129738  18.5962582  33.6502380  44.6414261
  16.8371677  33.4158401  44.6664429  17.9787445  32.1032181  45.2099648
  23.1583118  32.9466248  43.7614517  23.1293125  33.1150436  45.0196609
  24.1094170  33.4638901  42.9861641  24.2739201  33.1666145  42.0350227
  24.8694992  34.5966225  43.4546661  25.1402168  34.5919533  44.5105057
  26.1255856  34.7133408  42.5358467  25.7653866  34.8471565  41.5158234
  27.2402039  35.7013817  43.0562172  28.2004204  35.5818176  42.5544243
  26.9110165  36.7204590  42.8531952  27.3680706  35.6810722  44.1385002
  26.8436489  33.5210762  42.3994293  27.1504631  33.5026512  43.3088951
  23.9897003  35.8438759  43.3086929  23.4837570  36.1343651  42.2530251
  23.7515221  36.6794014  44.3094254  24.0732727  36.3199425  45.1967621
  22.7602997  37.8029938  44.3191452  22.5295200  38.1501160  43.3119965
  21.3818550  37.3686867  44.9536552  21.5790157  37.1052780  45.9928131
  20.2865162  38.4177742  45.0248985  19.6859665  38.4279289  44.1153221
  19.6799812  38.2999420  45.9228592  20.7499428  39.3745155  45.2657013
  20.8225594  36.1738472  44.3683052  21.3615570  35.2730598  44.6618309
  19.8240299  36.0461349  44.7863083  20.6983681  36.2459068  43.2878036
  23.2595596  39.0927238  44.9940987  23.8196907  38.9155426  46.0963898
  22.8775425  40.2587509  44.5557976  22.4011879  40.3409195  43.6689835
  23.0336800  41.5920448  45.2302933  23.8969307  41.6358147  45.8943558
  23.1023350  42.6390762  44.0592880  22.2664585  42.4864616  43.3765564
  23.0561104  43.6671867  44.4183960  24.4138927  42.4393921  43.2381821
  25.1764278  42.9883003  43.7907562  24.7800560  41.4195251  43.1202927
  24.2835732  43.0496521  41.8013649  24.7554188  44.0939140  41.4573479
  23.6216412  42.3513069  40.8971138  23.6000252  42.7866135  39.9859924
  23.2188625  41.4377632  41.0497704  21.8312702  41.8563728  46.1910324
  20.6935406  41.8270607  45.7858353  22.1369534  42.1548233  47.4992065
  23.1073742  42.3277206  47.7194176  21.1505527  42.1420250  48.6699104
  20.1792965  42.5462532  48.3846779  20.9826756  40.7036209  49.1764145
  20.6779194  40.1206551  48.3072929  22.3037453  40.0427551  49.7290497
  22.5646324  40.5229568  50.6721573  22.1139736  39.0134735  50.0334549
  23.0786858  40.0764465  48.9632607  20.0217667  40.5024223  50.1753693
  19.1744671  40.8252296  49.8599625  21.6288872  43.0814400  49.8212929
  22.8016415  43.2879944  50.0633698  20.6286964  43.5335693  50.5072212
  19.7522583  43.1165428  50.2278557  20.7115993  44.0923233  51.8783073
  21.5629063  44.7599487  52.0111771  19.3713188  44.8552666  52.1204643
  18.5837421  44.1549492  51.8422852  19.2948093  45.1002541  53.1798134
  19.1685066  46.1274223  51.2995605  17.9757786  46.4835777  51.2289314
  20.1602669  46.7983665  50.9641418  20.9336967  43.0844879  53.0687447
  21.4412308  43.3944931  54.0842934  20.5303631  41.7954979  52.8839645
  20.2089157  41.5557632  51.9569778  20.2917423  40.9645767  54.1030617
  19.7174816  41.5620270  54.8111420  19.3033524  39.8408890  53.8001709
  19.7706642  39.1234550  53.1256256  18.8721008  39.0568962  55.0276642
  18.0719833  38.3893509  54.7078285  19.6861629  38.6184921  55.6049042
  18.4958210  39.8121147  55.7177086  17.9834671  40.3922462  53.1253777
  18.2379303  40.8707466  52.1796608  17.4525757  39.5127754  52.7609787
  17.3586884  41.0533295  53.7259827  21.5612240  40.4062386  54.7489548
  22.2886810  39.6976242  53.9754601  21.9076824  40.5169640  56.0641098
  21.1675186  41.1990852  57.1003189  20.4500713  40.4767227  57.4896278
  20.6931229  42.0956688  56.7013359  22.2324886  41.6687431  58.0986519
  21.8308163  41.8142242  59.1014442  22.7042408  42.6004562  57.7864609
  23.1868744  40.5001411  58.0003166  22.8247643  39.6904297  58.6338310
  24.1862164  40.7283363  58.3709106  23.2149620  39.9773331  56.5691528
  24.0697231  40.4664574  56.1019897  23.3629475  38.5299721  56.4438782
  22.3744507  37.8076820  56.3568611  24.5968399  38.0538902  56.3080330
  25.3468876  38.7013283  56.5038605  24.9455738  36.6710205  55.9085960
  24.7642422  36.5998802  54.8361397  26.4854336  36.3875732  55.9957237
  26.9614677  37.1704330  55.4052811  26.7563152  36.5985603  57.0302315
  26.9983521  34.9810066  55.5122032  26.4874058  34.2411385  56.1283455
  26.7521706  34.9023361  54.4532852  28.4757290  34.8165588  55.7655640
  28.9362755  34.8878555  56.9142532  29.2907295  34.6138077  54.7537384
  30.2981091  34.6483803  54.8177109  28.8370934  34.5154228  53.8567238
  24.2124634  35.5466080  56.6129990  23.5448570  34.6641312  56.0538292
  24.2166119  35.5589676  57.9756508  24.4858418  36.3949471  58.4744072
  23.5707378  34.5000954  58.8342972  23.6768570  33.5111198  58.3884697
  24.1848392  34.4760971  60.2441864  23.7634621  33.6660233  60.8394356
  25.2573109  34.3052711  60.1508026  23.9363346  35.6962547  61.0555191
  23.4754887  36.7457085  60.5624390  24.2944202  35.7442970  62.2576408
  22.0465298  34.6182518  58.8847160  21.3548985  33.6876945  59.3472404
  21.4386921  35.7057037  58.2771683  22.0756187  36.4033318  57.9197578
  20.0467930  35.9288788  58.2450371  19.5412521  35.3692818  59.0320435
  19.6447773  37.4242439  58.4695625  19.8772373  38.0039978  57.5762825
  18.5707188  37.5743103  58.5790405  20.2287254  38.1927681  59.6911163
  21.3090591  38.0972023  59.5822678  19.9061508  39.2288475  59.7940063
  19.8633270  37.3532372  60.9980049  18.6602459  37.1395836  61.2211876
  20.7651501  36.7956810  61.7682762  21.7576618  36.7677917  61.5832176
  20.4102573  36.3016205  62.5745354  19.3410892  35.4524422  56.8920631
  18.1828117  35.1260796  56.8329239  20.1436253  35.1779137  55.8873100
  21.0911999  35.5206070  55.9563141  19.7370739  34.4836998  54.6201172
  18.9909134  35.0574989  54.0704765  20.9576435  34.4347649  53.6530304
  21.9102707  34.3384590  54.1739197  20.9056530  33.3625069  52.6327095
  20.7586803  32.4007263  53.1241074  20.0759068  33.5693130  51.9568024
  21.8392792  33.3705406  52.0702362  21.1111679  35.8759956  53.0447388
  20.2462826  36.0002251  52.3930931  21.2760868  36.6296196  53.8147697
  22.2775078  36.1262360  52.1206703  23.2684708  36.0303993  52.5644188
  22.1755848  35.5790443  51.1834984  22.2185669  37.1251144  51.6883926
  19.0572147  33.1170502  54.9029961  19.5204926  32.2937279  55.6816063
  17.9075603  32.9068871  54.2217484  17.6736584  33.5045090  53.4418526
  17.1525249  31.6644516  54.3556404  17.4233398  31.1039753  55.2504196
  15.6888657  32.0234833  54.6299019  15.2334661  32.5319023  53.7800636
  15.0441008  31.1450214  54.6037140  15.5191574  32.9131546  55.9127197
  15.9452944  33.9005013  55.7348137  14.4356842  33.0089226  55.9835396
  16.0416031  32.2798119  57.1729546  17.1314850  32.2890396  57.1598167
  15.7771788  32.8927269  58.0346527  15.6552677  30.9173527  57.3208923
  14.8641567  30.5541878  56.8086853  16.1783867  29.9701176  58.0974236
  17.0064220  30.1258907  59.1179314  17.0476074  29.2943230  59.6896858
  17.2980194  30.9984531  59.5347099  15.7400074  28.7787552  57.9801941
  15.9673052  28.0134869  58.5989037  15.0699778  28.6523647  57.2350807
  17.3912315  30.7726803  53.1856728  16.6102161  30.6865482  52.2406235
  18.3339062  29.8463078  53.3606224  18.9567070  29.9540462  54.1484108
  18.6084156  28.6980076  52.3951149  18.5201187  29.1991425  51.4311829
  19.9761982  28.0703259  52.6100845  20.0557270  27.5482502  53.5636101
  20.0797806  27.2511444  51.8985252  21.1494255  29.0200062  52.5141068
  21.6114140  29.6698875  51.3806267  22.5630150  30.5246773  51.8401718
  23.1455517  31.0819626  51.1215019  22.7143555  30.5170994  53.1373978
  23.4176331  31.0224304  53.6571465  21.8674507  29.5258369  53.5979881
  21.7897053  29.0337734  54.5562325  17.3473186  27.7928600  52.5176697
  16.7536678  27.7082329  53.5699997  16.9268970  27.0688877  51.5394440
  17.3786087  27.1330090  50.6383629  15.7129154  26.1633587  51.5391731
  15.2769184  26.0956669  52.5358810  14.6598368  26.8788834  50.6426582
  14.9979286  27.0902786  49.6282120  13.4753933  25.9474277  50.4398575
  12.7065964  26.4760494  49.8762894  13.8991547  25.0648308  49.9607430
  13.0759277  25.6889992  51.4205437  14.2348061  28.2171230  51.2744446
  13.4649763  28.7669201  50.7329865  13.8922100  27.9866657  52.2832146
  15.0770617  28.8996410  51.3879089  15.9639177  24.7497101  51.0816193
  16.3432636  24.5065498  49.9038239  15.7285719  23.8151970  51.9683151
  15.4751015  24.1367950  52.8915863  16.0203857  22.3778934  51.6265488
  16.4043522  22.3527851  50.6067238  17.0848770  21.8237209  52.6136436
  16.6980457  21.8762665  53.6313362  17.1578541  20.7461090  52.4669228
  18.5087318  22.4475956  52.4920845  18.8411598  23.7163124  53.0523911
  18.1202202  24.3183098  53.5855484  20.1732216  24.0978184  53.1757507
  20.3955650  24.9769993  53.7622681  21.1875629  23.3240738  52.5965767
  22.5231857  23.6389771  52.6338501  23.1513062  22.9455185  52.4189529
  20.8163891  22.0924492  51.9731026  21.6720085  21.5622997  51.5816231
  19.5028801  21.6147518  51.9966354  19.2954960  20.6750336  51.5064125
  14.6946220  21.5810757  51.6737366  14.1419401  21.4063473  52.7867889
  14.1902599  21.1488686  50.5418663  14.6338072  21.3207035  49.6508904
  12.9514437  20.2870064  50.4129906  12.4106684  20.4418755  51.3466263
  12.1903973  20.8982964  49.1943550  12.7756319  20.6069717  48.3221550
  11.2800045  20.3201962  49.0359688  11.8070221  22.3704586  49.3182983
  12.6701126  23.0236301  49.4469185  11.0542488  22.8570957  48.1227417
  10.1003876  22.3303452  48.1506271  10.8443308  23.9139175  48.2875481
  11.5074768  22.5774231  47.1717072  10.7645388  22.5519733  50.5336533
  11.3223476  22.5536900  51.4701157  10.2236738  23.4821205  50.3593216
   9.9974613  21.7840309  50.6334381  13.2567978  18.8042545  50.1300316
  14.3916121  18.2734890  49.9146080  12.0719347  18.1695881  49.8950958
  11.2240086  18.7092609  49.7957306  11.9521551  16.7002792  49.6559105
  10.9266491  16.4047012  49.8774300  12.0496988  16.4680061  48.1690063
  12.9596777  16.9064579  47.7593765  11.9592829  15.4249525  47.8657417
  10.9431400  17.1338730  47.3302078  11.0826149  18.2148552  47.3413429
  11.0517244  16.7647533  46.3103752   9.4847736  16.8689251  47.7557983
   9.0452366  15.6743879  47.8732910   8.6607838  17.7648792  47.9584541
  12.9765148  15.9465990  50.5686646  13.0135803  16.2370567  51.7718430
  13.7272186  14.9653168  50.1243324  13.4776936  14.5515299  49.2374191
  14.5826817  14.1729832  51.0636940  13.9062653  14.0081396  51.9023781
  15.0456381  12.8111591  50.3518944  15.5839815  13.0289288  49.4294701
  15.6497879  12.2186270  51.0389252  13.8820858  11.8509111  49.9924126
  13.4157019  12.3111944  49.1213608  14.3011160  10.8910885  49.6903305
  12.7749758  11.5149231  51.0515671  12.2863283  12.4364586  51.3679428
  11.9465752  10.9841442  50.5823898  13.4215641  10.6326675  52.0690346
  14.0087214   9.8619814  51.5696449  13.9693165  11.3225689  52.7109871
  12.4017773  10.0452013  53.0624390  12.9010706   9.6528635  53.8478546
  11.7140303  10.7130556  53.3803711  12.0013313   9.2458944  52.5924873
  15.8160067  14.8406820  51.5968475  16.4316044  14.3893604  52.5364952
  16.2418232  15.9125881  50.9477997  15.7570477  16.1042290  50.0827141
  17.2372990  16.8820324  51.4285049  18.1142960  16.3687744  51.8228951
  17.6170979  17.7379379  50.2330742  18.6458187  18.0521488  50.4094620
  17.5736656  17.0930672  49.3553734  16.9087296  18.5648918  50.1834373
  16.8384514  17.7342873  52.6714897  17.6799622  18.5353928  53.1836014
  15.6445875  17.6503620  53.1933136  14.9449472  17.0413914  52.7936134
  15.1811523  18.2683735  54.4700317  15.1366291  19.3502274  54.3446999
  13.7806129  17.7823029  54.9337959  13.0507698  18.0927792  54.1861076
  13.7020874  16.2518520  54.8689804  13.9391050  15.7147131  55.7873459
  12.7709866  15.8416319  54.4779930  14.5076523  15.8001785  54.2900543
  13.2124748  18.4653225  56.2136230  13.6751814  18.1199856  57.1381493
  13.1004963  19.5452576  56.1171875  12.1694412  18.1667175  56.3185768
  16.1720352  18.1187763  55.6087456  16.3536377  18.9353638  56.5214424
  16.8984737  16.9988480  55.6245308  16.7179680  16.3529015  54.8693695
  17.8480663  16.6007595  56.6450005  17.3179245  16.5998707  57.5973892
  18.2501965  15.0999327  56.4350624  18.8703957  14.8258228  57.2884750
  16.9981575  14.1614647  56.3409996  17.3190880  13.1217499  56.4050407
  16.3418827  14.1995773  57.2104530  16.2594395  14.3416481  55.5600204
  19.1077728  14.7967463  55.2087746  19.9661083  15.4682598  55.1880264
  19.5866222  13.8438044  55.4339523  18.5685444  14.7310209  54.2637787
  19.0605526  17.4332676  56.6936722  19.6283092  17.5419998  57.7536201
  19.5374813  17.9362221  55.5308075  19.0880795  17.5706692  54.7034569
  20.7228756  18.7231522  55.2131233  21.6137829  18.3439140  55.7136955
  20.9652405  18.6503563  53.6749115  20.0981770  19.1278343  53.2184906
  21.8285084  19.2818489  53.4649353  21.1860847  17.2924404  53.0027580
  20.2225323  16.7828770  52.9989128  21.5499287  17.5476360  51.5727463
  21.6055241  16.6129074  51.0148163  20.7721748  18.2247715  51.2196350
  22.5413532  17.9786682  51.4334869  22.3032665  16.4306488  53.6646233
  21.8348026  15.5850267  54.1681786  22.9828243  16.0223312  52.9165726
  22.8831596  17.0787430  54.3217354  20.5583038  20.1167488  55.7589607
  21.4856739  20.8768845  55.6147919  19.3582344  20.5572796  56.1905746
  18.6393604  19.8793049  56.3995514  19.1214294  22.0179672  56.4907722
  19.4993782  22.5333500  55.6077995  17.6857605  22.3357239  56.6319656
  17.6075287  23.4198036  56.7141457  17.1822281  22.0068150  55.7229156
  16.9941654  21.6730442  57.8208885  17.3444118  20.6566792  58.0009689
  17.3668880  22.2907505  58.6379700  15.4498787  21.8129559  57.7149086
  15.2232351  22.8787899  57.7420006  15.0478249  21.2855034  56.8498955
  14.8705959  21.1392822  58.8943329  14.6187887  20.1687355  58.7729530
  14.4492817  21.7924976  59.9847603  14.8862009  22.9910259  60.2632751
  15.2069283  23.6017971  59.5255814  14.8779430  23.3516731  61.2066574
  13.6476822  21.2221069  60.8788567  13.1251030  21.8288898  61.4943466
  13.5002594  20.2249279  60.8156052  20.0321693  22.4370289  57.6615181
  20.2552681  21.6551743  58.6233215  20.5230312  23.6856136  57.6968155
  20.3413448  24.7767925  56.7224770  19.3118992  24.9489975  56.4083290
  20.9985180  24.4981060  55.8987274  20.8425751  26.0289555  57.4721870
  20.1434422  26.4236794  58.2094193  21.1019669  26.8079071  56.7552147
  22.0977459  25.4551220  58.1579475  22.5031357  26.1622429  58.8816528
  22.7705727  25.2712669  57.3203316  21.5907269  24.0875340  58.6626816
  22.4894314  23.4709511  58.6466789  21.1013565  24.2239056  60.0744476
  21.9244118  24.1021023  60.9733582  19.8691540  24.7102375  60.3226433
  19.3448696  25.1797428  59.5982208  19.4398003  24.9885387  61.6663933
  20.2541409  25.6131287  62.0335922  18.1281567  25.7808266  61.6842117
  17.2734089  25.2672005  61.2440910  17.8504238  25.9191113  62.7291222
  18.2006130  27.0841999  60.9578934  17.1948242  27.5908241  60.4471016
  19.3188286  27.6982651  60.9241562  19.3342953  23.7167053  62.6255455
  19.0815067  23.8776474  63.7965050  19.4512138  22.5285797  62.0377693
  19.4561787  22.5818920  61.0291901  19.5192471  21.2526684  62.7692108
  19.0373516  21.4057961  63.7348404  18.7427578  20.1743546  61.9496231
  19.1449451  20.0857296  60.9404182  18.8760319  19.2542591  62.5186272
  17.2921219  20.3325405  61.7999306  17.1363792  21.0788116  61.0208778
  16.7179050  19.0363731  61.2373123  17.0560322  18.8743172  60.2138329
  16.7469616  18.2341175  61.9746323  15.6591005  19.2816582  61.1544418
  16.5554543  20.7325172  63.0704460  16.8416824  20.1680946  63.9579163
  16.7055054  21.8109722  63.1206436  15.4834518  20.5937614  62.9302406
  20.9722099  20.8903179  63.1990814  21.0944080  19.9791298  63.9839211
  21.9816704  21.4278374  62.5422058  21.7194118  22.1703262  61.9097252
  23.3333378  20.8908348  62.6988716  23.3722420  19.8434925  62.3994408
  24.3037167  21.6038322  61.7570953  24.4827251  22.6604156  61.9563141
  25.2797604  21.1283340  61.8537407  23.8688240  21.3778362  60.4374466
  24.3497200  21.9191647  59.8071289  23.9120598  20.8655548  64.1448517
  24.5701103  19.9006443  64.4382935  23.4511452  21.7688007  65.0635376
  22.7569332  22.4684677  64.8430023  23.9444084  21.7409954  66.4602127
  25.0290699  21.6867599  66.3671188  23.4456120  23.0053864  67.2255936
  22.4694653  23.3976383  66.9403381  23.2486629  22.8339806  68.2838669
  24.4525967  24.1526299  67.1315079  24.6086960  24.3856106  66.0782013
  23.8790703  25.4666424  67.8054810  22.9198036  25.7457275  67.3695679
  23.8135509  25.2721786  68.8759842  24.6408653  26.2340508  67.6681671
  25.8500042  23.7708855  67.6345901  26.4415035  22.9979362  67.1439056
  26.3681087  24.7298660  67.6296997  25.7630100  23.6199207  68.7105789
  23.4123955  20.4903049  67.2593918  24.1034698  19.9489212  68.0986938
  22.1463833  20.1345749  66.9317856  21.6886539  20.6145039  66.1700439
  21.4763069  18.9825439  67.5309753  21.6378422  18.9342499  68.6078568
  19.9107227  19.1801090  67.2196121  19.6318035  19.0634842  66.1723785
  19.1374397  18.2958546  68.1018600  19.5180340  18.1719131  69.1157074
  18.1114788  18.6569920  68.1732025  19.1061287  17.2629986  67.7549820
  19.5830555  20.4792881  67.5590286  19.9173374  21.0313549  66.8483429
  21.8934898  17.5620708  67.0178299  22.0036926  16.5729523  67.7697296
  22.0334911  17.4852638  65.7122803  21.6905117  18.2178917  65.1075287
  22.7212944  16.4270191  64.9995499  22.2187462  15.4712420  65.1479950
  22.6108704  16.7161217  63.4866104  22.9877892  17.7288570  63.3437767
  23.2616463  16.0881901  62.8780861  21.1829624  16.3637962  62.9294548
  20.9456062  15.3259354  63.1631355  20.4495525  16.9739685  63.4566307
  21.0212135  16.6464634  61.4205704  20.0266685  16.4160995  61.0385857
  21.1679192  17.7261162  61.3901558  22.0345345  16.0560093  60.4686699
  23.0221043  16.0676346  60.9298325  21.6204872  15.0708656  60.2538338
  21.9556866  16.8432617  59.2450638  22.5953407  16.5120888  58.5370636
  21.0060730  16.8957806  58.9050941  22.3622551  17.7334309  59.4948692
  24.0867443  16.1635342  65.5493698  24.4457378  15.0106592  65.8298645
  24.8947983  17.2108078  65.8480377  24.7666779  18.1201477  65.4275742
  26.2021542  17.0381145  66.4547501  26.6785698  16.2191029  65.9159088
  26.9996071  18.2679310  66.1808777  27.2368050  18.3361053  65.1191788
  26.4948997  19.2069836  66.4079285  28.3092709  18.4685268  66.9385757
  28.5759258  17.8939857  67.9878769  29.1117764  19.4768791  66.6081924
  28.8976612  20.1830273  65.9185410  29.9711094  19.5434189  67.1347046
  26.1365929  16.5536404  67.9255829  26.7365398  15.5703020  68.3422852
  25.3094082  17.1677895  68.6859436  24.9417362  18.0081139  68.2631149
  25.1989021  17.0148067  70.1663666  26.1665096  16.8895092  70.6523056
  24.4047527  18.2032814  70.7314072  23.4383888  18.3845062  70.2608643
  24.1558094  18.2898083  72.2285995  23.2608910  17.7784271  72.5831528
  25.0364304  18.0025635  72.8031387  23.9221859  19.3374081  72.4184799
  25.1506176  19.3671684  70.4408722  24.8701134  19.7984161  69.6303482
  24.4605255  15.6964064  70.5095673  24.5933933  15.2680016  71.6279144
  23.8669205  15.0095711  69.5127182  23.8600674  15.3511667  68.5622635
  23.2386875  13.6976318  69.7234421  22.5878067  13.8150120  70.5898590
  22.3839474  13.3479490  68.5261841  21.6883831  14.1603107  68.3155670
  23.0638180  13.2610540  67.6786499  21.5794353  12.0249147  68.6805496
  20.7106304  12.0774078  68.0244141  22.2751160  11.2675285  68.3193130
  21.0731297  11.6400871  70.0859375  20.4327621  12.4970913  70.7355728
  21.3227940  10.5063543  70.5779800  24.2700272  12.6075191  70.1060333
  25.0979118  12.2856150  69.2894135  24.2069874  12.0271645  71.3138046
  23.4502010  12.3320427  71.9091339  25.0106602  10.9106913  71.8143768
  25.7551956  10.6092110  71.0775757  25.8933887  11.4049301  72.9599838
  26.4676590  12.2079201  72.4979019  25.3416271  11.9929705  73.6933746
  26.8931904  10.4546776  73.6325226  27.6044407  10.1027575  72.8852692
  27.5592880  11.3110485  74.7043152  28.2458858  10.7262793  75.3164673
  28.0939827  12.1501493  74.2592163  26.8159409  11.8263798  75.3125610
  26.2164192   9.3276730  74.4835510  26.9676857   8.7915983  75.0634842
  25.5949059   9.8694496  75.1965027  25.6662521   8.6126986  73.8718033
  24.0488739   9.7046785  72.0100632  23.1291122   9.7760754  72.8700790
  24.2744007   8.6912527  71.3109818  24.2092400  23.2068157  28.5825844
  23.7064972  22.2625980  28.7806473  25.1945248  23.1163559  28.1302986
  23.5853844  24.3274384  28.9559269  24.2766628  25.6613445  28.9115372
  23.6135406  26.6464233  29.2049942  25.4476719  25.7704887  28.5389538
  22.3617458  24.3080692  29.6038990  21.0448666  24.3314247  28.9284363
  20.2809715  24.3609142  29.7150650  20.5969181  23.0802975  28.2065029
  20.9214973  22.1424274  28.6521187  19.6443596  23.0827637  27.1615200
  19.0169449  24.4394817  26.7662392  18.0946712  24.4595833  26.1888294
  19.5393887  25.5472946  27.3075485  19.0128212  26.4847775  27.1420898
  20.7979431  25.6052723  28.0768356  21.6478310  25.5989971  27.3834057
  20.8859272  26.7240810  28.8991985  21.8065395  26.7545700  29.2126846
  19.2162151  21.8273506  26.4233665  19.6730671  20.7289162  26.7401180
  18.4214840  21.9818192  25.5374374  46.0183449  23.3120823  38.2345963
  46.4008102  22.6765156  37.4387932  46.5965843  24.1688309  38.5739441
  44.7766228  23.1391735  38.7595482  44.2230797  24.0048885  39.8377609
  44.6976738  25.1283264  40.1179276  43.1685371  23.6723385  40.3554306
  43.9536285  22.1505451  38.4139938  43.0365601  22.3350391  37.2476807
  42.7932167  21.2983265  36.9846191  43.8290863  22.7502422  36.0228500
  44.4996185  21.9691925  35.6708908  43.9624100  24.0301991  35.5528297
  43.1458397  25.0607319  36.2771492  43.3829308  26.0817032  35.9842224
  42.1667366  24.7295609  37.1553497  41.6818657  25.5474110  37.6840744
  41.7991829  23.2439251  37.5100937  41.6273193  23.1457596  38.5889931
  40.6336555  22.8792114  36.7923737  40.2349777  22.0790005  37.1763687
  45.0564690  24.4194145  34.7288132  45.7566757  23.6065674  34.1379585
  45.2587166  25.6023178  34.5803986  24.5579681  19.8682613  53.8428230
  24.1550560  20.8025436  54.2279282  24.7928047  19.0405712  54.5086403
  24.7415485  19.6861324  52.5219002  24.4123001  20.7899570  51.5737648
  24.3855305  21.9061718  52.0141220  24.1787052  20.6527596  50.3740959
  25.0813675  18.4390163  51.9996567  26.2181778  17.6313725  52.3427925
  26.2901783  16.9008942  51.5276833  26.0381336  16.9348984  53.6796684
  25.0784283  16.4891510  53.9322624  27.0356560  16.6938610  54.5579147
  28.3863811  17.1354389  54.1532860  29.2122955  16.5536232  54.5579567
  28.5806942  17.9464645  53.1429138  29.5844917  18.0993652  52.7523537
  27.4370995  18.6384544  52.3842392  27.1543865  19.5659294  52.8971252
  28.0046997  19.0195370  51.1373863  27.9147835  19.9880104  51.1639175
  26.8716488  15.7776060  55.6887016  27.8328762  15.5781965  56.4243240
  25.8123760  15.2451725  55.9363899  84.5105515  44.7730904  39.0054893
  16.2491951  48.3676224  11.0530863  51.3429527  43.0636826  87.2982559
  27.5162525  54.2160988  10.1036777  67.2185516  11.4286642  65.0040436
  82.0690155  63.8059921  43.0055695  20.9993782   9.0629616  72.3980255
  86.0912476  15.7286186  46.3630791  79.9691620  38.8752213   2.1343396
  35.2085915  65.8260117  29.9015465  35.5912857  65.9850388  30.7643852
  34.4782906  66.4423065  29.8461647  32.7452393  36.7356377  60.1052055
  32.5848732  37.5834999  60.5195045  32.1774521  36.1269264  60.5777740
  37.1828232  57.7579994  24.8461781  38.0076408  57.6968956  25.3280239
  36.9639854  58.6896935  24.8631382  29.0518665  68.1484222  81.1622543
  29.8251610  68.5264359  81.5810013  29.3169174  67.2588959  80.9283066
  61.3984299  33.4869308   2.1177793  62.0807838  32.8159142   2.1366422
  60.7531166  33.1904182   2.7595572  74.4940720   1.8450158  60.2365189
  74.9756546   1.1611935  60.7020264  75.1545410   2.2763114  59.6943092
  26.8513412  15.1640406  73.5844116  26.0110779  14.7248421  73.4529114
  27.4346581  14.7629595  72.9401245  47.6561623  30.1833954  72.0408173
  48.4745216  30.4129200  71.6005402  47.0127602  30.1239109  71.3346100
  21.9975948  29.5554123  75.2875290  22.5688496  29.0479012  74.7110443
  21.1777763  29.6377544  74.8003387  40.3133240  59.7515373   8.0964556
  39.9134369  60.0524025   8.9124212  40.9539490  59.0955734   8.3713140
  84.1148148  26.3809128  32.1340981  84.4073029  25.4775295  32.2548599
  84.8369904  26.8067608  31.6721992  81.5618515  46.1266174  78.3739548
  82.1264191  45.5309296  77.8813629  80.7359390  46.1288261  77.8901138
  44.2668381  54.7741356  17.1311874  43.3994408  54.6106644  17.5014992
  44.8033524  54.0474968  17.4480152  42.4160614  38.1398239  70.6701202
  42.6041565  38.9581337  71.1297073  42.6004829  37.4557762  71.3137817
  26.9555149  65.9038467  23.9652271  26.9312096  66.1216660  24.8969994
  26.4989986  66.6285400  23.5378628  11.0384903  44.1193161  10.7050419
  10.4979658  43.3525467  10.5149546  10.7308407  44.4235115  11.5588846
  24.6988258  63.1171227   0.2952777  24.0874653  63.0192451  -0.4347149
  24.8768063  64.0568237   0.3342825  51.5710716   2.1482601  49.8521500
  51.0473137   2.3728683  50.6212196  51.5955887   1.1913762  49.8502083
  79.0332108  12.7157831  10.9015236  78.3648834  12.6733494  11.5854607
  78.7036514  12.1433296  10.2087612  40.3522072   9.0225134  30.1085033
  40.5435104   8.9656878  29.1723385  40.2591782   8.1122713  30.3896389
  69.8435211  12.9221296  50.1179047  69.2642059  13.0058680  49.3605270
  70.6926804  13.2346239  49.8056412  81.8565445  23.5548267  37.5929184
  82.3702774  23.0508232  36.9618149  81.9279861  23.0602436  38.4093246
  42.0754738  49.5341759  65.1341476  42.2330170  48.7928009  65.7187576
  42.5087280  49.2904472  64.3161469  85.1611252  54.1975784  57.5545387
  85.4014816  53.9244652  58.4399033  85.9488449  54.0415077  57.0336037
  75.0269775  54.7431908  25.7263737  75.4579163  54.8187408  26.5777321
  74.3035202  55.3685951  25.7677879  24.6697254  60.3013077  52.3601570
  23.7291050  60.4550552  52.4486237  24.9782314  60.1808281  53.2582321
  61.6118546  64.1118698  22.4996395  61.3952980  63.5419998  23.2375984
  61.0640106  64.8864899  22.6263866  67.8831406  49.0770912  79.8366013
  67.3994904  49.8950462  79.9517746  68.0116730  49.0059891  78.8907394
   5.3107162  29.6707649  12.3278837   5.7889276  29.2320213  11.6242867
   5.7705860  30.5015945  12.4482012  80.9943695  24.2416229   0.3627401
  80.5183868  24.9667664  -0.0420324  81.9148254  24.4981194   0.3062542
  28.6086483  24.1203690  69.3283920  28.1583939  23.4649200  69.8612061
  28.2685452  24.9584637  69.6417007  45.7120552  37.0532837  84.0739517
  44.7925873  36.9099083  83.8497772  45.7091064  37.1899147  85.0213470
  64.8335495  45.3315048  60.9101295  63.9533386  45.6380768  61.1280060
  65.0595169  44.7289047  61.6186829  61.4257965   1.8346493  21.1963406
  61.5914841   0.9008243  21.3257618  62.2845535   2.2460475  21.2939091
  20.2779694  42.2866592  13.9940805  19.3902149  42.0896339  13.6952400
  20.8452492  41.7949638  13.4002256  18.2510948   0.0921445  71.4630280
  17.8486767  -0.2037415  70.6464844  19.1697197   0.2392012  71.2377777
  11.4063129   6.3007607  44.1020699  10.9747047   6.9594526  44.6461945
  11.5073881   6.7234464  43.2492218   7.2873683  35.4563217   7.0931115
   7.5861659  35.2837372   6.2002697   6.9849124  36.3642616   7.0731649
  73.6992569  40.7036018  39.0554390  73.5628357  39.8958244  39.5505295
  74.3435974  40.4692268  38.3875160  82.6577911  26.1595402  61.8197784
  83.3852997  25.6101646  61.5279694  83.0201874  26.6734238  62.5414581
   3.2979906  64.2560730  73.0709915   2.9211786  65.1197205  72.9025955
   2.5424805  63.6702652  73.1185760  64.3327866  17.4772491  16.2245827
  64.0938492  17.2171764  17.1142464  65.0089569  18.1442528  16.3434715
  79.1859512  53.0375099  58.2133827  78.9612045  52.4006538  57.5350533
  79.9468918  53.5012360  57.8638687  69.1954117  48.4936485  39.2184067
  68.7648468  48.7053604  38.3901405  69.9200287  49.1162682  39.2776642
  72.8829498   7.2943764  35.9374809  73.6396790   7.4802732  36.4933891
  72.6595764   8.1391211  35.5466576  75.4190292   7.6641092  71.9985657
  75.7845535   6.9052734  71.5438156  76.1821976   8.1252460  72.3466415
  64.1287613  19.5748882  78.6112595  63.2361031  19.4253082  78.9227295
  64.2889404  18.8626118  77.9922028  18.5375214  71.1940155  88.6234741
  18.7059994  71.8032608  87.9046783  19.3864136  71.0902023  89.0533981
  81.2366104  35.0542679  66.7944565  80.8626633  35.0519714  65.9133224
  80.9420166  35.8805313  67.1775131  73.5612411  19.9035892  32.9432335
  73.6556931  20.2655811  32.0621681  72.8249435  19.2957954  32.8747940
  63.2478180  12.3805780   9.1985435  64.1514206  12.4937525   9.4933796
  62.7616959  13.0740814   9.6446037  53.4759865  66.8505402   1.4962722
  52.9481354  66.2084885   1.9710052  52.8350792  67.4124832   1.0607296
  13.1346226  30.4719543   1.7944139  13.6358891  31.2835369   1.8737564
  12.8677111  30.4441490   0.8756010  68.0593033  46.7655678  48.9053688
  68.5553055  47.3646202  48.3473778  68.1167374  47.1500549  49.7800713
  45.1315956  51.1679497   5.1184907  45.3606644  50.7196503   5.9326091
  45.0208778  52.0841522   5.3725481  28.0880852  23.1198521  75.1610336
  28.2417870  23.3918533  74.2562561  28.5593567  23.7648582  75.6883850
  17.8778343   4.1129937  30.0705509  16.9547844   4.3331256  30.1960716
  17.9500618   3.9056368  29.1388760  52.1913528  26.4657059  84.0137558
  52.1008339  26.7932053  83.1188889  51.5837250  26.9987373  84.5264893
  84.7680893  13.9697104  33.9199715  83.8716583  13.7410421  34.1656456
  85.2821960  13.8064528  34.7107124  73.1809082  48.7773895  22.5227222
  74.1280594  48.8870239  22.4383755  73.0117340  48.8691788  23.4603710
  41.8628311   9.9125404  70.0985413  42.5241966  10.5032864  69.7381973
  42.1948013   9.0355635  69.9063416  85.5255814  48.8615036  68.5528946
  86.2701187  49.4586182  68.4797516  85.2135239  48.9766006  69.4504471
   5.2026048  24.1479416  47.1115875   6.1142492  24.0175056  46.8505859
   4.7198496  24.1838741  46.2858200  50.2604256  61.0529442  26.8465977
  50.1333694  60.2217636  26.3891792  49.4126091  61.4928474  26.7839432
  34.4538002  42.9582100  66.0188599  34.3079643  43.8498192  65.7026367
  34.3716469  42.4107056  65.2380142  14.1101885   2.0449681  57.5427246
  14.1614161   1.7340719  58.4465752  13.7031403   1.3230289  57.0638199
  74.9838791  13.0176983  49.0952377  74.7098923  13.8506174  48.7112961
  75.5512085  12.6236248  48.4326096  29.4396229  19.1489220   4.0734386
  28.8274517  19.8778000   3.9723797  29.4156475  18.6972809   3.2298288
  59.0528870  30.7097511  25.8133373  58.4541664  30.7388706  26.5596046
  59.7069283  30.0544853  26.0564232  71.0048065  30.9330902   9.2361708
  71.1877899  30.6036968   8.3562555  70.0499802  30.9214954   9.3025017
  86.6360474   0.6264977  51.9706955  85.7474289   0.9518292  51.8266487
  86.8062134   0.0550458  51.2218857   0.3167910  12.1012106  25.6506786
   0.7440917  12.2084446  26.5004711   0.9980900  12.3109007  25.0118561
  45.7910576  46.5975571  59.9251404  46.4933701  46.8718109  59.3354149
  45.1459656  46.1824684  59.3526115  59.0220528  67.4476089  76.9827881
  58.7239952  67.0709305  77.8107452  58.2286606  67.5168991  76.4517899
  11.3873882   8.9895678  28.5822906  10.7803135   8.3977585  28.1379318
  11.1787271   9.8550358  28.2306423  25.0003395  50.9821014  11.6699219
  24.9923096  50.3782234  12.4125509  24.2676716  50.6988335  11.1229420
  40.1013031  49.6972961  20.4160461  39.1985474  49.5369110  20.1412010
  40.0313835  50.3841743  21.0790253   8.7372427  49.4447250  87.9206924
   9.0719318  50.1898956  87.4217529   8.5677996  48.7717552  87.2614288
  80.0339203  29.9343319  39.4504242  80.3319702  30.6515808  40.0098457
  80.0028687  30.3128834  38.5718079  11.0789385  65.9317245  68.9949036
  10.9347763  66.5940399  68.3190460  11.7096930  65.3258896  68.6058731
  81.2041168  34.9016647  62.1097450  80.2962723  34.6076622  62.1846809
  81.1375580  35.8234558  61.8605385  82.2087173  55.0195770  58.0625076
  81.9167252  55.2792282  57.1886902  82.9754257  54.4686127  57.9049568
  14.0907803   1.6273612  65.0648422  14.5732975   2.3060730  64.5928650
  14.1773148   0.8471549  64.5170975  72.9248962  30.6337337  46.9625969
  72.2323303  30.3624020  46.3601265  73.6213608  29.9901466  46.8323631
  21.8446598  67.4228821  29.9403286  21.7890835  67.1244812  30.8481274
  22.5712681  66.9232178  29.5680256  36.7530594  54.6732178  64.6734009
  36.4912796  55.2090988  63.9247131  37.5859375  54.2826424  64.4088440
   6.8159118  45.5570068  66.0275803   7.4734507  45.4072075  66.7068710
   7.1719112  45.1261902  65.2504730  45.4033737  50.0240288  56.6408844
  44.7526855  50.4701576  57.1829262  46.1297340  49.8442917  57.2378159
  52.0452156  35.1583519  68.6561279  52.2292519  35.9693642  68.1821823
  51.8094444  35.4448204  69.5384979  21.0839138  54.3640747  51.1797943
  21.2790432  54.9481544  50.4469833  20.5023174  53.7004623  50.8088570
  43.2143097  15.1208658   8.7932596  43.4552307  15.4561834   9.6568279
  43.8056984  15.5692053   8.1887054  67.2756882  22.1383820  71.1228485
  66.4327621  22.0132484  70.6869049  67.5778503  22.9942398  70.8188171
  25.5139465   1.8730608  28.1140060  24.7094059   2.1112747  28.5746593
  25.3592777   2.1403217  27.2079811  53.0290985   3.1054225  65.2379456
  53.0926094   4.0540538  65.3488388  53.1900139   2.7507613  66.1123352
  67.2103882  54.0835114   8.5912142  67.3896637  55.0215378   8.6560688
  67.1043243  53.9242210   7.6533403  43.8461876  49.8112831  47.4499435
  43.8519707  49.4617691  48.3410339  44.7711411  49.8775635  47.2126617
   4.5969372  62.5924187   8.9600573   4.6229191  61.6799774   8.6719532
   3.6640730  62.7995262   9.0157614  31.6838017  34.0081520  67.9125977
  31.8924141  33.2239189  68.4202347  31.9159355  34.7357445  68.4896240
  14.9492846   6.1732950  79.9414597  15.1221304   6.7598748  80.6778564
  14.1411352   5.7197504  80.1810913   4.2306418  69.5913467  72.7098999
   4.5345592  70.3986206  73.1248398   4.1863813  69.8032761  71.7775040
  31.1782112  24.2041130  69.9818115  30.2258530  24.2828064  69.9265518
  31.3695526  23.3439388  69.6080246  41.0392990  41.7974243  75.8248215
  41.9553108  42.0502930  75.9397507  41.0010414  41.4308968  74.9414062
  53.8107719  57.0584488  87.6220627  53.5192566  57.2234612  88.5187302
  54.6324272  56.5776901  87.7219849  60.5412598  50.4807014  55.7721901
  60.5419502  49.7360573  55.1707458  61.2307243  51.0564079  55.4413795
   2.7505746  22.5592728  13.4590206   1.9244509  22.5503845  12.9756241
   3.3808169  22.9427986  12.8491573  14.4092932   7.5723200  67.4945374
  15.1338234   7.9149871  68.0178604  14.5504503   7.9382806  66.6213913
   6.8355541  24.0809574  10.4056778   6.8561039  24.8908424  10.9154787
   7.7506847  23.8042736  10.3586321  63.2567863  48.1212502  84.1450500
  64.1370392  48.2463608  83.7904663  63.2425919  47.2089729  84.4344864
  35.3330612  14.7840290  69.0785751  35.0321541  15.4806051  68.4950790
  36.2588577  14.6734276  68.8620148  35.9775352  47.7688217   3.0783601
  35.3719635  47.9847412   2.3692086  35.9272385  48.5175667   3.6725702
  73.2950668  26.9448528  22.8884201  72.5427399  26.5445271  23.3242855
  74.0137787  26.8468971  23.5129910  32.0502396  41.8730659  67.5979767
  31.9257774  42.4412003  68.3582153  32.4608421  42.4368019  66.9423523
  78.6589279  28.1503201  12.4858294  78.7578659  27.3145447  12.9418125
  79.5136642  28.3067799  12.0843582  69.2897263  41.3789368  28.9613285
  68.6349945  42.0768623  28.9828110  69.7062302  41.4675598  28.1040649
  30.2024193  54.0764885  48.0819206  30.9317360  53.7174530  48.5873146
  29.7051735  54.5951729  48.7143326  24.0586147  35.6632462  21.6801987
  24.6643276  35.1487465  22.2137108  23.5634727  36.1827354  22.3136044
  59.9616356  20.3818321  86.9800415  59.5627289  20.0152302  86.1909256
  60.4330826  19.6475010  87.3733978  66.5043259  45.1807938  19.7271042
  65.9243393  44.5032539  19.3795567  66.8771973  45.5982819  18.9506340
  46.0642853  46.1771049  16.8248215  46.0208817  45.2258301  16.7277412
  45.7939987  46.3381805  17.7288303  45.0829086  53.3093414  11.3662081
  44.2271042  53.6272163  11.6539230  45.3151627  53.8779144  10.6320314
  16.4720840   1.7477627  35.1746902  15.8557110   1.1557249  34.7436371
  15.9555054   2.5290303  35.3721733  72.3882751  47.6790886  73.0493240
  71.8845520  47.3573418  72.3016815  71.7961349  47.5848541  73.7954712
  68.5988693  55.2589493  42.2331886  68.0640182  54.7902374  41.5925064
  69.0382538  54.5683670  42.7294426  58.1844635   6.0169024  30.1529846
  58.7470703   6.6880322  29.7666016  58.4465370   5.2053542  29.7183132
   6.7075596  42.8149071  57.1089134   5.8320198  43.1870613  57.2145653
   6.5559769  41.8783951  56.9816170  14.7221746  66.7992554   9.7660885
  14.0376797  66.6255951   9.1199160  15.4677801  67.1042480   9.2490921
   1.8082182  48.4922333  78.0131912   1.4058561  48.1187172  78.7972946
   1.0694242  48.7042885  77.4427109  37.1639519  53.2301598   5.9997067
  37.5769005  54.0872269   6.1052599  36.4374199  53.2359734   6.6228867
  10.5455008  57.6049385  22.4500694  10.9711561  57.5055923  23.3016434
  11.2683716  57.6397591  21.8235893  51.8074417  35.3009911  83.7765350
  51.4275436  35.5255623  82.9271393  52.7021179  35.6387901  83.7356110
  11.2165470  61.4392967  57.7746925  11.9825335  61.3109856  58.3341866
  11.5700035  61.8098717  56.9660072   3.9564300  40.6569328  82.7278671
   3.4975772  40.8578873  81.9122086   4.8820009  40.6410866  82.4843521
   3.7908776  38.8999863  49.3685493   3.4410930  38.0511894  49.6395226
   3.1559236  39.2285576  48.7320671  80.3046494  64.9254379   2.6623187
  80.1758194  65.7579041   3.1168923  79.5819931  64.8800659   2.0362608
  47.7763023  69.0762405  64.6492920  47.9582253  70.0059814  64.7861023
  48.3466606  68.8249588  63.9228096  18.8812447  46.9323006  69.5007172
  17.9878368  47.1290665  69.7823868  19.3184872  47.7835236  69.4789963
  39.8309708  61.6681671  38.8912315  39.8554268  61.2041817  39.7280998
  39.0169907  61.3775024  38.4799156  23.0151329  48.1062737  20.3574333
  23.5343933  47.7001457  21.0514488  22.1168213  47.8285370  20.5366802
  62.5970497  61.1088524  35.4555054  62.9684296  61.1298447  36.3374748
  63.1121140  60.4467659  34.9944382  81.7943649  50.8667412  15.2700577
  82.4873581  50.5438156  14.6941109  82.2552490  51.3741226  15.9381762
  79.7471390  35.4506378  74.7582321  80.5796432  35.7422256  75.1299133
  79.9647217  35.1802826  73.8661575  14.7047205  16.1161938  59.9204025
  14.8341084  16.2102890  60.8641357  15.5820112  15.9545784  59.5733070
  64.8413773  58.9637794  62.9105873  65.1548386  59.8483887  62.7223358
  65.4845276  58.3885345  62.4962425  56.4194145  68.1483917  24.3089600
  57.2970009  67.8910599  24.0263748  56.0332680  67.3434143  24.6541023
  19.1576099   5.0980678  18.9914532  18.5274220   4.9586496  18.2845898
  19.8385220   5.6457181  18.6007195  85.9888535   6.1072974  56.8186760
  85.6535950   6.8472714  57.3249092  86.8052826   6.4289603  56.4363098
  33.7656517  37.0819931  82.8540115  33.7165756  36.1325378  82.9651642
  34.0209999  37.2031937  81.9394913  19.5696411  32.4302368   7.4305863
  20.0149689  32.9628983   6.7716560  20.2127781  32.3304100   8.1324701
  12.3257465  66.5302887  64.5912018  12.0793896  67.1568985  63.9108315
  11.4963284  66.1447144  64.8733902  28.9972038   2.0821438  19.2069683
  28.8223381   1.2587501  19.6626835  28.4762440   2.0277982  18.4057961
  41.2480087  63.9724426  27.9189014  41.3789520  63.3198051  27.2310429
  40.8517647  64.7185516  27.4688568  83.7877197  28.5402546  50.4990997
  84.2331543  28.8065510  49.6947937  82.8853912  28.8377991  50.3829308
  31.7116852  28.8501568  68.9037170  31.8220406  27.8995934  68.9257126
  31.8366699  29.1268597  69.8114853  24.7515507   0.6491864   1.3810933
  23.8812046   0.9994329   1.5709875  25.3225994   1.4173583   1.3742434
  61.5165901  69.2337036  15.3627071  61.2401505  69.3328323  16.2737446
  61.9497032  68.3805389  15.3353062  50.2062149  40.5960236  56.4992142
  51.1137390  40.5147743  56.2058983  49.9720154  41.5035439  56.3048172
   4.8199158  49.5906105  61.2091751   4.2141223  48.8584785  61.3241959
   4.7132044  50.1165695  62.0017700   1.2353476  51.8207436   9.3449049
   1.2875452  51.8411026   8.3893461   0.9113948  50.9433250   9.5484381
   6.1160860  48.8203392   8.4267216   7.0137243  48.7245827   8.7450113
   5.7541251  49.5399971   8.9437380   9.8436260  20.4060097  69.8178177
  10.3319740  19.7625370  69.3043060  10.1421957  20.2711487  70.7172012
   7.4049692  25.8609142  67.0687790   6.7047186  26.4920673  66.9028625
   8.0982876  26.3755150  67.4819717  12.7374296   1.3503402  86.7266769
  13.2605057   1.9816759  87.2206802  12.7490253   0.5577512  87.2632370
  17.6209812   6.3644452  24.1641560  17.7074623   6.2872152  25.1143074
  16.9246750   7.0091434  24.0386448  44.8882790  68.6300049  54.3368568
  44.1521606  68.0273743  54.2310257  45.5869408  68.2506332  53.8037758
  43.2224731   1.1629612  79.9773331  44.0543137   0.7018053  80.0850830
  42.6895103   0.8715888  80.7171173  13.1158113  32.3003769  82.2453842
  13.4081287  33.0847511  81.7811203  13.4846935  32.3906708  83.1240158
   7.1585340   3.4454653  11.7630138   6.7087865   3.8223217  12.5192804
   7.6920562   2.7398956  12.1287422   2.9987445  60.2430916  14.9984684
   2.7572899  60.5319176  15.8785315   2.1680527  60.1972618  14.5250950
   8.9743261  34.8717384  10.5615063   9.4919882  34.2880173  10.0069532
   9.3651981  35.7356148  10.4304790  63.2380638   0.3867263  76.9664001
  62.5380287  -0.0273340  76.4616852  63.0288048   1.3205233  76.9448013
  29.1816807  11.4221773   0.2454246  28.7925777  11.7730417  -0.5556527
  28.8223419  10.5380354   0.3189100  26.0309677  54.7443466  23.0182495
  26.3678627  54.8669090  23.9057808  26.8135509  54.6357346  22.4778786
  86.5563507  39.7624779  82.8070984  87.2207260  39.3075867  83.3246994
  85.8434601  39.9274521  83.4241867  35.7831612  19.4136600  67.1074219
  35.3142242  19.6245899  66.3000565  36.7008400  19.3520412  66.8422699
  78.2294083  34.0463638  15.3651009  77.3257904  33.9037018  15.6467838
  78.1681519  34.1715508  14.4181013  69.8770142  57.8156052   6.2081695
  70.2977600  58.3732567   6.8625622  70.5848846  57.2670746   5.8701410
  37.5004578  23.0635529  81.6202240  37.2543907  22.1637039  81.4058533
  38.4515495  23.0335464  81.7239304  81.7123718  60.7302551  20.5445976
  80.8831635  60.9619370  20.1263027  81.4887924  60.0143852  21.1393871
  23.4117470  70.0461884  37.0858879  23.5329990  70.1948013  38.0236740
  22.4668465  69.9345856  36.9812775  22.7674561  40.0293083  64.7075577
  22.6607018  40.9410477  64.9787903  23.6061821  40.0131989  64.2465744
  75.8810272   4.0019875  39.5987320  75.3935928   4.6581173  39.1006012
  76.0658722   4.4260874  40.4367065  16.4720135  36.9379959  17.7776413
  16.4814587  36.4772491  18.6166019  17.1949482  37.5623512  17.8391247
  16.2596111  40.6130028  45.0168495  16.6483517  41.3469086  44.5409393
  15.7262754  41.0242119  45.6970673  48.7098846  60.3858604  34.9375420
  47.7758331  60.4204788  35.1438866  48.7508621  59.9535789  34.0844994
  47.4295197  68.8076630   8.4304066  46.9955521  68.2673645   7.7701168
  47.1091042  68.4681244   9.2660398  69.4674683  56.5996704  29.7882786
  68.7713089  56.0999985  30.2148075  69.4667587  57.4441528  30.2389259
  70.5652237   5.1418219  85.3892670  70.5147018   5.5683923  84.5338593
  69.7779236   4.5991859  85.4331894  15.1990967  37.2694664  21.0124722
  14.9690847  38.0903282  20.5771427  14.4290714  36.7128525  20.8964024
  78.7083817  25.2720261   6.9605813  78.1006393  24.7879314   6.4015350
  78.8493729  26.0996227   6.5007610  46.5003700  10.0032749  10.9606905
  46.6890221  10.4366617  10.1283331  46.7842369  10.6295815  11.6265659
  79.2407379  45.3879852   1.5009511  78.4157410  45.7651749   1.8064702
  79.2578583  44.5096855   1.8811260  84.0009308  53.3671341  62.7330513
  84.4210663  52.6942558  63.2687302  84.5704575  54.1316757  62.8187447
  51.2451515  35.6255112  71.2561035  51.1274834  34.7930717  71.7137451
  51.2113113  36.2860794  71.9480133  62.2246971  34.7322845  84.0491104
  62.1455078  33.7931671  83.8817215  61.3894424  34.9756927  84.4482803
  52.3279991  52.9234581  45.1940193  52.8375664  53.0806580  44.3991203
  52.8429451  52.2839699  45.6860695  59.7437706  36.1377487  78.9839630
  59.8225098  35.2465172  78.6437531  59.7149849  36.0295677  79.9345932
  74.9048996   9.9816322  88.0348969  74.9336624   9.5889282  87.1624298
  74.5070419  10.8413353  87.8975906  15.8119555  12.3320608   9.9384422
  15.9059992  13.2603464   9.7247286  16.3373299  11.8798895   9.2783251
  79.5427170  56.1972847  83.1699142  79.1536942  55.3303413  83.2852402
  80.3819275  56.1460152  83.6274414  67.1406784  34.6829605  65.3406372
  67.3823853  34.9752350  64.4617844  67.5846786  33.8412476  65.4436874
  33.5785332  67.6600571  78.4532700  32.8705635  67.7600479  77.8168640
  33.9293709  68.5439682  78.5621033  46.0388374   9.1582346  86.9229202
  45.4908829   9.3699160  87.6786728  45.5649109   9.5207100  86.1744232
  16.4046898  48.9776382  17.0543156  16.5254288  48.7654762  17.9798641
  15.7797642  49.7026901  17.0543385  68.4860001  65.7598801  14.2891321
  69.0181732  65.2539597  14.9031916  68.1850433  65.1170197  13.6469564
  13.2914419  25.3788013  81.0478134  14.1515570  25.2452354  81.4460526
  12.9616489  26.1806755  81.4533539  79.8406296  22.4615459   9.0653028
  79.4966736  23.3515091   9.1420345  80.1193771  22.3903866   8.1523590
  79.6617584  57.7365952  69.1912079  80.4646835  58.1802063  69.4646225
  79.0429459  57.9013405  69.9026489  63.8019867  20.4497433  75.5895233
  62.8969421  20.6425285  75.3446503  63.7447243  19.6440010  76.1030731
  65.5649796   7.9722476  33.4600143  65.8379974   8.7426586  32.9618568
  64.6175461   7.9271936  33.3313026  66.6982422  36.9153175  66.9268112
  67.5372925  36.9813576  67.3827438  66.8308945  36.2220497  66.2802734
  29.0107632  65.8703308  54.6319923  28.7527962  65.0345840  54.2431297
  29.0669804  66.4725113  53.8900681  28.6184330  39.5461426  74.1754837
  28.6440258  39.1264381  73.3155899  29.4969978  39.4152107  74.5321503
  30.1280918  51.1221313  30.3197346  30.9874573  50.7019615  30.3540955
  29.8943329  51.1137581  29.3915539  77.8542404  30.5893326  62.2379303
  77.3668823  29.7939396  62.0232964  78.7726898  30.3463192  62.1211967
  76.1355743  47.3024826  86.6653748  75.6941071  48.0739708  87.0205460
  75.5963211  47.0402222  85.9192810  34.1840172  54.7254753  66.9710922
  35.0753784  54.8414917  66.6420898  34.2121124  55.0675163  67.8646545
  39.1915474  47.4128532  43.8606377  40.0204163  47.1828651  44.2805405
  39.2059822  46.9412003  43.0278320  44.6817360  38.3291893  16.7101421
  44.2572937  37.4806137  16.5836487  45.6139069  38.1518745  16.5842495
  47.3255386   8.5878096   4.3148031  46.9953880   9.4862709   4.3142266
  47.1160431   8.2550983   3.4420795  25.3597412  15.3593531  61.0764694
  25.7590084  14.7519140  60.4537086  25.8121395  15.1874571  61.9023132
  33.3458900  50.6651649  51.4166603  32.4131775  50.5199013  51.5753365
  33.4278412  50.6755066  50.4630318  81.5907059   2.7015877  86.4891663
  80.6615067   2.8743143  86.6407547  81.7170639   2.8730063  85.5559540
  64.7957153  67.7550888  19.8885612  65.1589508  67.8861923  19.0127163
  63.8524551  67.6746292  19.7470818  14.1844597  46.9439545  36.9045753
  14.1086979  46.3739243  36.1393547  13.2819128  47.0774460  37.1940918
  67.4056244  33.6740456  86.3227844  68.2849197  33.4919777  85.9912491
  67.3171387  33.1086617  87.0900879  43.9787941  13.3835506  16.2684498
  44.5319939  14.1503687  16.1194782  43.3132706  13.6848516  16.8869362
  26.0491695   4.2676034  17.2260475  26.4478893   3.4844630  16.8466473
  26.6839447   4.9643536  17.0592194  72.3862610  51.0808411  85.5742111
  71.8695526  50.3062553  85.3522720  73.0478516  50.7598991  86.1870193
  18.0810394  37.5859337  49.9955635  18.4931850  38.3870659  50.3189163
  17.7075672  37.1768227  50.7761879  84.6922379  21.8866596  14.4870329
  84.8700180  21.1905632  15.1195478  85.3708267  21.7831478  13.8199224
  36.0474701  46.0517998  16.6431904  36.8135757  45.5916557  16.3002892
  35.5867271  45.3944206  17.1645355  67.9144287   6.0325508  33.2661018
  67.0510254   6.4289761  33.3828087  67.9358902   5.7720647  32.3452759
  23.0119877   7.1664863   4.2132964  22.1383266   6.8479209   4.4401588
  23.1267128   7.9521899   4.7478428  77.5287781  15.3547964  72.1051941
  76.8642654  16.0191784  72.2875595  77.9852219  15.2375622  72.9383469
  60.3716736  14.7804184  61.9267502  59.9210472  13.9413977  62.0227280
  59.7305908  15.3492155  61.5004654  24.8763199   4.3209291  48.1344414
  25.6920834   4.6601868  48.5027733  25.1502228   3.5946438  47.5743370
  59.3029099  70.2693710  31.9260197  58.8604546  70.4662247  31.1003571
  58.9473190  69.4214325  32.1920776  34.6631165  64.9600525  44.5568352
  33.9107475  64.7768555  43.9941521  34.5671196  65.8828888  44.7921867
  74.7001953   9.7138548  57.5344887  73.9245682   9.8918209  57.0025558
  74.8947906  10.5484161  57.9609528  37.4807510  43.7138023  58.8986435
  38.2009468  43.3530655  58.3815193  37.8860016  43.9713860  59.7266884
  39.9096985  21.9657402  74.6676865  40.5599442  21.7109985  74.0130692
  40.4154282  22.4130898  75.3461761  39.2330933  63.8853188   1.6065782
  39.0063782  64.7477341   1.9545338  38.4390144  63.3637047   1.7231326
  59.4267769  37.5092049  32.7397842  60.2033958  37.3609695  33.2793388
  59.0845757  38.3516273  33.0388756  42.9708939  52.7195816  88.5495453
  43.1001091  52.9340782  87.6256790  42.3184967  52.0191689  88.5438309
  74.1038055  12.4830475  51.8249969  74.0690155  13.4010191  52.0939751
  74.4000397  12.5111027  50.9152222  27.3291111  24.6299229  84.2146301
  27.6807480  25.2975349  83.6256714  26.4496365  24.9400864  84.4303894
  80.0914307  28.9079227  55.2987099  80.4718323  29.2818413  54.5039062
  79.4280701  28.2951508  54.9813843  82.0033951  41.1960258  64.3907471
  82.7913589  41.3996124  64.8946228  82.2771606  40.5060616  63.7864037
   6.2420387  17.6911068  73.3568344   5.6442380  17.0551395  73.7497864
   7.0954351  17.2577915  73.3703842  72.1297531   2.8302538  30.6224537
  72.3292236   2.9822917  31.5462112  71.9221954   1.8971550  30.5726643
  82.2535477  21.2124634  19.0622482  82.9572983  20.7753067  19.5416851
  82.6982651  21.8801575  18.5400925  81.2718964  41.6902695  45.6520119
  82.0231247  41.1170311  45.4993935  80.5116043  41.1133614  45.5787430
  40.6807671  45.1961937  14.2854738  40.9620667  44.4445724  14.8071709
  41.4595184  45.4482231  13.7892256  50.7812080  58.4918747  11.0236588
  51.0525780  58.5382996  10.1069069  49.9669914  57.9888687  11.0072451
  70.9573669  62.7288055   9.9471521  70.8150711  63.4166298   9.2968607
  71.8361435  62.3993301   9.7589207  34.7750092  39.4200058  74.4292221
  35.2399216  38.8450089  73.8213882  35.4578629  39.9791756  74.7997284
  40.6528053  49.8589439  82.5774231  40.5160828  49.7686691  83.5205002
  40.7766495  48.9621811  82.2664413  40.3435974  28.8302650  60.5655403
  39.7712898  28.7537289  61.3289757  39.8165092  29.2967834  59.9168739
  79.1401672  11.9293365  62.7907982  78.9166260  12.8485155  62.9369850
  78.5579681  11.4451990  63.3763618  14.9103374   8.0932760  15.0081749
  15.5817499   8.7522020  14.8313875  14.2083855   8.2945614  14.3893223
  76.9031906  38.7260246  40.3239899  76.0466385  38.2988625  40.3147812
  77.0024033  39.0444450  41.2212029  76.0872192  67.1593552  27.1702023
  76.2068024  67.2828064  28.1118450  76.9590607  67.2932739  26.7984581
  74.3876343  23.3136272  42.5151291  73.6958847  23.7767601  42.0426636
  74.1598434  22.3881416  42.4266777  22.0471363  49.9282913  71.9224396
  22.0808678  50.6231918  72.5798569  22.2949657  49.1358070  72.3986588
  28.0118484  54.6853714  25.2628822  28.4896870  54.9622612  26.0446968
  28.0027752  53.7295647  25.3136978  26.9805202  28.0808849  87.0101547
  26.4375744  27.5147095  86.4616241  27.0420284  27.6175385  87.8454742
  22.7528210  50.5169296  10.0337906  23.4097843  50.0299034   9.5363626
  21.9892616  49.9399490  10.0511503  37.5627174  57.2610931  50.0863686
  37.8899803  57.2985344  49.1876297  36.8199844  57.8648186  50.0961571
  83.2607193  41.4213562  37.7419472  83.1693039  42.3095551  37.3970184
  82.8415375  41.4540367  38.6018600  30.0382156  50.4669075   9.7077389
  30.6524086  50.5528755  10.4368534  29.1797028  50.3952980  10.1249428
   6.6542649  26.1589699  45.5637550   6.2474413  27.0058422  45.7468758
   7.5186925  26.3786488  45.2162781  63.2282372  61.3300018  40.5857735
  62.4779129  61.2202911  41.1699104  62.8894119  61.1128349  39.7172890
  72.7727966  62.5570679  49.2238350  73.2642136  62.3856888  50.0271835
  71.8791580  62.7275314  49.5214615   0.9953343  50.4602394   1.6243178
   0.3729217  50.9298248   2.1795895   0.6776817  50.6049156   0.7330276
  31.7363720  10.1142035  34.2561378  31.7029743  10.0848217  35.2123070
  30.8206749  10.0597525  33.9827080  66.2887955  40.2473068  27.1573067
  65.9515991  41.0277863  27.5970516  66.1518173  40.4192772  26.2256985
  79.5656662  26.1748085  65.4333191  79.4565811  27.1159019  65.2966690
  80.0651627  26.1072559  66.2470627  10.1306915  55.5131073  14.9238119
  10.6427212  55.1724167  14.1903362   9.2817049  55.7342529  14.5409937
  77.3511200  27.3058872  47.3133583  78.2373581  27.4647694  47.6382675
  77.0401611  26.5570736  47.8220978  25.7570496  52.7859268  13.6227884
  25.6040001  52.3339195  12.7930326  25.8373089  52.0828056  14.2673092
   9.6911173  25.2495308  11.1080046  10.3768101  25.8908253  11.2945490
   9.3779392  25.4812279  10.2336664   1.7076412  15.1556349  46.8825798
   2.1310642  15.1560955  46.0241241   2.2173429  15.7779541  47.4013824
  55.9152451   7.9983797   8.8920975  55.1100807   8.4092054   9.2070007
  56.5350494   8.7224903   8.8041353  18.0653477  43.6274681   5.4201717
  18.6591549  43.4943848   4.6813130  18.1216221  42.8143883   5.9221396
  41.9888535  70.6394577  46.9096489  42.4745064  70.5933914  46.0860901
  42.6067619  71.0248642  47.5308456   5.4866090  19.8349934   7.2993283
   6.1476498  20.2618961   6.7543402   4.7468014  20.4423790   7.2984309
  48.7161942  69.4319763  56.3197708  49.3667908  68.7310257  56.3600578
  47.9589653  69.0832520  56.7901154  71.2107162   7.1707411  31.1679478
  70.5611725   7.2075047  30.4658298  71.9333267   7.7146039  30.8544502
  40.7450371  60.8248062   0.8707984  40.4046783  61.5400505   1.4082114
  41.5447807  61.1778069   0.4808860   8.4467049  69.7999573  22.6811218
   8.4857988  70.7471695  22.8133774   9.1434231  69.4514999  23.2373543
  57.2347221   6.2917328  10.6053076  56.8818512   5.4578724  10.2948380
  57.0806313   6.9007707   9.8831148  72.6869431   4.7218742  34.9771042
  72.5272598   5.6043296  35.3117752  71.9110184   4.5199695  34.4542236
  61.3689308  28.1888294  13.6085062  61.4927483  28.2082901  12.6595478
  60.5119667  28.5923004  13.7465572   1.6731350  36.1526947  10.7162046
   1.4716182  35.7710686   9.8618135   1.1438383  35.6488380  11.3344316
   4.1701722  32.6497192  32.4095383   4.1828012  32.6014290  31.4536419
   4.8241944  33.3147850  32.6244202  60.1113815   6.3357363  11.3495283
  60.4778862   5.5178246  11.0134802  59.1636887   6.2058420  11.3143282
  21.2307358  70.3432846  12.5302620  21.1104240  71.1686859  12.9998131
  20.9086418  70.5212631  11.6466265  82.7263718  24.2714272  83.1488571
  83.4139557  23.8670349  83.6779480  83.1804047  24.5892239  82.3684082
   4.7497101  30.7203255  79.9838409   4.5135016  31.5117512  80.4676590
   4.5219970  30.9180450  79.0753860  13.4180021  33.2599945   7.8359141
  13.1914501  32.5747833   7.2071123  13.8742495  32.7982025   8.5393486
  62.0386200  26.7879753  68.6598587  61.5319519  26.1125221  68.2089920
  62.5647926  26.3065434  69.2982941  86.2295914  37.5843315  21.2689438
  86.0894852  37.8250542  22.1847248  85.7447357  38.2427711  20.7713451
  76.8975220  37.3738251  87.7772827  77.5620728  36.9003639  87.2768478
  76.0792084  36.9181938  87.5798035  63.1452522  49.8055725  32.5661240
  63.3516312  50.4384499  31.8782959  63.5539513  50.1655502  33.3532791
   9.0495367  64.1992874  64.0531769   8.5261993  64.7722702  64.6135635
   9.3919058  63.5311356  64.6469650   6.6271324   1.4749252  17.4156284
   7.0540857   0.7455122  17.8649597   6.5239124   1.1729069  16.5132084
  25.1855984  60.1656685  67.2434082  24.8193951  59.7572937  66.4589539
  24.4423771  60.2448845  67.8413849  70.4266815  18.4696732  43.7952805
  70.3983383  19.4234123  43.7190361  69.5074463  18.2041359  43.8222961
  50.2506180  28.2376556  77.4181671  50.5498505  27.5381451  77.9990082
  50.9690666  28.3569622  76.7970200  20.7349072   9.0478954  77.8976135
  21.5536270   9.5201807  77.7463684  20.0529041   9.7114449  77.7936554
  54.7999802  55.6372604  14.8861513  55.0015221  55.8481064  13.9744740
  54.0196648  55.0850220  14.8374014  45.5518570  46.1897240  56.7819061
  44.7718620  45.6621208  56.9535904  46.2169075  45.5546112  56.5162506
  61.4839478  10.4878740  27.2635174  60.6152267  10.5711193  27.6567440
  62.0865707  10.7676268  27.9525890  76.0114899  36.2365150  74.6424866
  75.6635056  36.5983696  73.8275070  76.5849762  35.5232124  74.3622131
  26.8268261  18.3332424   8.7909899  26.7285042  17.5737381   9.3652010
  27.3506889  18.0123253   8.0569525  16.1242218  45.7321739  73.4362869
  16.8922825  45.1869583  73.6067352  15.5585175  45.1853218  72.8911591
  32.7577248  54.5221786  32.7204819  31.9446011  54.6861229  32.2427902
  33.4483070  54.8119278  32.1243477  58.1386185  50.8304558  25.9315395
  57.8691216  51.1912155  25.0868759  58.9541016  51.2872353  26.1378670
  19.4935093  43.1735077  60.4201088  19.5244026  43.8508644  59.7444878
  18.5708103  43.1268387  60.6704636  59.4833412   5.6996975  25.8257084
  60.1476364   5.4920988  25.1685600  59.3740234   6.6486497  25.7642937
  50.0980606  39.7162819  83.4300079  49.9602127  39.5320702  82.5008698
  49.9270782  40.6541367  83.5161819  14.6380491  66.9244308   6.1854572
  13.9175653  67.0825882   5.5754395  15.1122532  66.1830521   5.8089976
  29.4772663  60.9805832  53.5864830  29.3935471  61.9056282  53.3551445
  28.6246414  60.6019859  53.3721771  85.2721176  11.6877890  64.2838898
  84.7765656  12.4499102  63.9841690  84.6032486  11.0533504  64.5414505
  27.8482323  56.9886551  37.5589867  27.7378407  57.7393684  36.9754829
  28.2471581  56.3144264  37.0089836  20.8800945  67.2065964  43.3255196
  21.4394093  66.8394928  42.6409531  20.4650574  67.9649811  42.9146309
  38.5059166   3.4808993  55.8424568  38.4996758   3.0905924  56.7164459
  37.7053642   4.0045180  55.8082619   8.8740873  59.7064972  43.2221832
   9.6744442  59.2514038  43.4840012   8.9570446  59.8108368  42.2743111
  79.7484512  13.2248650  89.0484085  80.2339630  14.0305967  88.8714676
  79.6263428  12.8248272  88.1874237  85.4429550  52.0108871  15.0744123
  85.1435623  52.7490158  14.5435944  84.9800262  52.1107368  15.9062538
  32.0918999  25.3355541  11.0730429  32.1024208  25.1887074  12.0188532
  31.6472931  24.5666409  10.7162113  73.3034821  44.8700676  67.9197235
  73.6795731  44.0691185  67.5546646  73.9169388  45.1313400  68.6064911
  18.2726288  38.9684601  18.5069866  19.1904831  38.7173119  18.4035568
  18.3016529  39.9030342  18.7118320  76.2893066   2.6997027  22.9384441
  75.7775345   1.9197739  23.1529922  77.1709518   2.5020692  23.2544670
  84.5698853   8.4182615  20.7231693  84.1376038   8.2688274  21.5640221
  83.9101944   8.8621664  20.1902618  71.6703262  14.4977942  83.0195007
  71.2590027  13.7930813  82.5190811  71.7886124  14.1316891  83.8959732
  56.9219360  30.6386871  27.6483784  57.4557838  30.1872330  28.3021584
  56.1533966  30.9396954  28.1331177  52.0903740   7.2932243  10.9467278
  52.3490715   7.3905101  11.8631573  51.9614105   6.3516040  10.8329258
   6.7961836  37.0767365  82.9035492   7.1298170  37.8534088  82.4544373
   7.3905091  36.3740654  82.6403732  60.0639992  32.4241905  16.2288437
  60.5014420  32.8671455  16.9559364  60.5482216  31.6055851  16.1209145
  60.1453514  70.2899399  49.9510574  60.9179153  70.5339508  49.4413223
  60.4401093  69.5629501  50.4995461  57.1396599  32.8300133  16.9150600
  57.9069710  32.2597656  16.8673019  57.4890709  33.6797104  17.1836834
  80.9197540  35.3537750  79.1085739  81.4713287  35.1138420  78.3639755
  81.2184601  34.7875633  79.8201981  34.9602013   2.6485445  87.2626953
  34.1657753   2.9607768  86.8295364  35.1743698   1.8323398  86.8108444
  32.1099472  59.8851089  27.8089390  32.2075272  60.7907562  27.5148048
  32.9284134  59.6923141  28.2662964  76.0116806  11.0091000  39.9196777
  75.1430130  11.4094677  39.9564247  75.9121323  10.2762642  39.3119965
  69.2294006  58.2220497  32.4096794  70.0911789  58.6233597  32.2977982
  69.4146957  57.3500900  32.7583809   2.5377460  11.7593832  89.0688400
   3.2821929  12.3327818  89.2511749   2.7211266  11.3970995  88.2020340
  33.7264633   8.9365854   8.1849833  34.3524551   8.2672338   8.4612675
  33.0155792   8.8777237   8.8232727  59.7834816  44.4963951  64.6156616
  60.6035995  44.0096703  64.5335693  59.8113823  44.8655510  65.4983673
  72.0377808  27.0109825  45.3127861  71.8798599  26.6620789  44.4355431
  71.8381119  27.9442062  45.2389030  29.2738037  11.2498751  69.1695938
  28.4722805  11.7727318  69.1899033  29.1570168  10.6613426  68.4237900
  76.5185471   2.2034845  20.4152927  76.6564560   2.6561294  21.2473545
  76.6798553   1.2812871  20.6147041   1.4583255  43.0956345  79.2610016
   1.4725744  42.5756111  80.0644989   1.7564898  42.4925728  78.5800858
  18.3064842  50.2105026  62.6572495  17.8269863  49.4044533  62.4659386
  17.6259594  50.8495636  62.8687172  14.5630350   9.0203276  86.1831589
  15.1905060   9.6516294  86.5352554  14.9839296   8.6788654  85.3941879
  36.4808617  45.9145622  67.3810806  35.8648033  46.0344276  66.6583557
  37.3359375  46.1210632  67.0036697  53.1501846  37.6075020  63.9036560
  53.1212654  38.5322800  64.1489716  53.7078667  37.2010651  64.5670013
  30.5697517  10.3179369  24.3438778  30.0238609   9.5430908  24.2102852
  30.2380657  10.7080622  25.1525917  56.2840118   7.1306686  45.0689812
  57.2043800   7.2401781  44.8299065  55.9645309   8.0224380  45.2065010
  12.6899462  66.3495255  83.6675949  11.9441528  65.7594299  83.5589218
  13.3402185  65.8292847  84.1395264  61.2446213  13.1037626  34.3021736
  61.6726570  12.7228251  33.5354271  60.5454788  12.4864798  34.5175629
  12.5005302  21.6834393  19.1465282  11.8907051  21.0663242  18.7421589
  12.2579155  21.6879673  20.0724602   3.2545030  52.4079971  54.6919174
   2.4385395  52.8602180  54.4775963   3.8385048  52.6080818  53.9603844
  71.1996536  39.6166954  48.1728134  70.6482086  38.9341087  47.7904472
  71.0504074  40.3832169  47.6192741  11.5220747  50.9514008  66.6226959
  10.6084776  51.1971817  66.4772186  12.0220270  51.7277184  66.3704834
  67.3251648  59.0138512  17.9581242  67.3992920  58.4383278  17.1968689
  66.8634720  59.7857895  17.6307297  44.1677589   3.8189976  66.6701813
  45.0500755   4.1678586  66.7968674  44.0275497   3.2434165  67.4220352
  31.8836231  65.8442383  69.5904312  31.7712193  66.5999908  70.1670074
  32.1818581  65.1431580  70.1698914  73.9196701  32.1864662  27.5005856
  74.0314255  32.9367599  26.9168053  74.1377106  31.4275036  26.9596024
  21.6947689  26.8173008   7.1504908  21.2918491  25.9641819   6.9890113
  21.7638378  27.2174797   6.2837043  80.5789795  61.8910980  73.0645752
  81.4200821  61.4564285  73.2054291  79.9306412  61.1923790  73.1522217
  35.0462875   3.5089352   5.0139947  34.3843918   4.1984487   4.9620481
  35.8535652   3.9290254   4.7172499  50.5144386  19.9544430   2.6352332
  50.2328835  19.1432362   2.2122657  50.9493179  20.4484978   1.9402355
  32.6272888  58.9919205  40.2033386  32.0992928  58.3236542  39.7664528
  32.5076408  59.7779579  39.6703682  71.2959290  16.9970512  20.0971432
  71.7966080  16.9011555  19.2869873  71.6044083  17.8214703  20.4731846
  59.3274994  61.9623222  54.9017448  60.0900459  62.2222481  55.4186478
  58.8840179  61.3079414  55.4415092  50.1038895  21.3935223  78.4191513
  49.9294510  22.1666164  77.8823776  50.0703812  20.6616783  77.8031006
  59.7189484  26.0655422  62.9464645  59.3743210  25.2113686  62.6859818
  59.2085114  26.6951618  62.4372864   4.7457509  46.6339455  24.9343109
   4.0103583  47.2461014  24.9607334   5.3308048  46.9911079  24.2661934
  79.9343109  11.4987354  43.6455841  79.4022369  10.8915730  43.1313057
  79.8549805  12.3348246  43.1863518  69.9420700  23.0724831  82.6840286
  70.6281738  23.5945892  83.0998383  70.2864227  22.8744373  81.8131485
  14.0259590   2.5091627  50.6501274  14.0257397   2.2580113  51.5737915
  13.9628658   3.4642122  50.6615906  81.6498718  59.6765785  31.5215530
  81.8729858  60.4362679  30.9836655  81.2486572  60.0486908  32.3069115
  61.4578972   3.1752689  79.4876175  61.1742744   4.0894151  79.4764481
  61.3719635   2.9090006  80.4030151  20.2309990   1.6444710  38.8910332
  20.3413925   0.7123127  39.0784531  19.5051079   1.6791947  38.2680511
   3.3841715  61.3430595  27.5702000   3.1172483  62.2592163  27.4950981
   3.2884674  61.1412315  28.5009727  42.4671402  20.1470871  12.2919483
  41.5328827  20.2773438  12.1293907  42.5094795  19.8052368  13.1850204
  26.7082748  56.0469093   5.5038605  27.4073563  56.3525543   6.0818734
  26.4598827  55.1934242   5.8589573  85.7351227  42.3106842   0.8602263
  84.9445953  41.7879639   0.9946191  85.9848251  42.1382446  -0.0475988
  61.0955849  17.7336235  36.9267616  61.2587166  16.9816952  36.3573532
  60.4881287  18.2823887  36.4306908  21.1775417   1.7917985  66.6889877
  20.8615875   2.1556983  65.8619614  21.3565521   2.5575306  67.2347412
  15.6227827  28.7534161  67.2438354  15.8297205  28.5049286  66.3429108
  14.6736317  28.6482506  67.3092957  82.5040512  32.7703209  83.6565628
  82.3449173  31.9465179  83.1958542  82.9940567  32.5165558  84.4386978
  18.3928623  35.9768066  12.9245090  17.9733257  35.1173286  12.9634390
  19.1755848  35.8861008  13.4679699  52.6761856  19.2564354  31.6526489
  53.4459801  19.8114700  31.5278091  52.2179031  19.2901230  30.8129616
  42.9914169  67.8309631   9.9808359  42.9392395  66.8793259  10.0697594
  43.3182297  68.1331406  10.8282509   4.0241976  68.1690750  76.9166336
   4.4929161  68.9783783  77.1204987   4.5399656  67.4811172  77.3372650
  14.0946541  47.4421043  70.9937057  14.8943682  47.6901512  70.5298538
  13.9358597  46.5358734  70.7295837  78.2054825  19.8616180  79.2882690
  77.8473969  19.8268738  80.1752853  77.5247345  19.4718590  78.7397232
  11.9076567  65.2716751  17.3520374  11.6001053  64.8363876  18.1471252
  12.7536144  64.8635864  17.1675014  21.3118420  63.5362587  48.7673988
  21.9864559  63.0015068  48.3488655  21.3243408  64.3609390  48.2816315
  85.8417969  69.3205490  86.0139771  85.8619995  68.3662491  85.9422302
  85.6274872  69.4872360  86.9318695  84.2314529  22.2006893  26.5532436
  84.4423218  21.4668369  27.1305008  83.6051331  22.7253742  27.0519028
  10.1274309  32.2791748  56.1185722  10.1471863  31.7455788  55.3241425
   9.5764675  31.7848644  56.7254715  45.8702202  20.0124130  68.1432877
  45.3072243  19.3199863  68.4894333  45.3093872  20.4965420  67.5372238
  16.6263618  68.9171906  66.8538895  17.2916164  68.3743439  66.4308319
  16.5194664  68.5310440  67.7231979  20.3455868  18.4323597   1.6195958
  20.4660072  19.1998348   1.0603899  19.4686890  18.1145172   1.4045172
   0.4904799  25.3090363  78.9986954   0.7967380  25.4792099  79.8894730
   1.2913315  25.1786194  78.4908981  45.2218971  30.5811844  76.9546432
  44.3819427  31.0209141  76.8229370  45.5397491  30.4019337  76.0697250
   9.3655977  47.9121819  30.2084599   8.5375719  47.5089111  29.9477329
   9.8968058  47.1830521  30.5284939  31.0986500  34.0310783  74.2053528
  30.4312859  33.9784241  73.5211868  31.7757988  34.5980835  73.8362885
  15.4441195  10.5852051  12.3754206  15.0109034  10.6427193  13.2270355
  14.8228683  10.1117277  11.8221598  79.3010406  12.9957552  25.4992161
  79.0552673  13.8887539  25.2575932  80.2488327  13.0345507  25.6273651
  70.3181839  40.3671570  38.0400047  70.1083145  41.1185608  38.5946007
  70.5934753  39.6860352  38.6536179  58.2545967   7.1292653  41.7745895
  58.3293762   6.6927128  42.6231537  59.0086555   6.8145123  41.2760315
  22.4751415  68.5687180  58.3643303  22.3264999  67.7875900  57.8314362
  22.5703392  68.2354202  59.2565613   6.9644208  20.5407963  28.1255875
   6.6606236  21.3460064  28.5446072   6.3301620  19.8765030  28.3951435
  12.7486467  27.0076046   7.4062524  12.7530365  27.9511395   7.5673552
  13.5778360  26.8370457   6.9595008  28.4273491  21.8297596  84.3911514
  28.1077461  22.6429214  84.0001831  28.9102058  22.1112213  85.1682281
   2.9498355  65.3587723  43.2372665   2.3405752  64.7761078  42.7839088
   3.3039713  64.8272247  43.9502029  61.9059372  20.0285339  52.0965881
  61.3277321  19.2970848  52.3131371  61.9677200  20.5332241  52.9075775
  12.4017963  15.8788261  80.0926285  11.5816126  16.3506737  79.9480896
  12.2117167  14.9801121  79.8235245  37.8234100  37.0557785  84.7005386
  38.5127335  36.6737366  85.2437744  37.1669464  36.3633118  84.6245193
  59.1303482  61.7830505  32.1405640  59.7564621  62.0990295  31.4891262
  58.2753601  61.8948212  31.7249546  62.7814369  48.1827393  59.0923347
  62.4973068  47.6026230  59.7987061  61.9678955  48.5223045  58.7194023
  35.5564537  30.8794441  15.6956387  34.7163239  30.6088524  15.3252392
  36.0979652  31.0876007  14.9342804  24.5360432  62.3794136  76.2486496
  23.8408470  61.7218132  76.2708817  24.0766621  63.2161102  76.3203354
  47.8973160  41.8720512  17.2962189  48.1729050  42.4253464  18.0270710
  47.2227745  41.3033409  17.6674290  46.1410980   2.3140864  37.8717995
  45.2340088   2.3713415  37.5715561  46.3075562   1.3750101  37.9533997
  23.4503365   5.3974590  53.7432556  24.2888107   5.1060042  53.3851395
  23.6843224   6.0656099  54.3875046  60.3743477  42.1647072  73.2438202
  60.3568611  42.9969482  73.7163696  60.8937187  41.5842400  73.8001862
  48.7139015  67.1123123  79.1616821  49.2510834  67.5418396  78.4959641
  47.8747635  67.5713882  79.1251373  46.6744766  70.7156372  57.9290733
  46.5520058  69.7842789  57.7452278  46.7840881  70.7598801  58.8789482
  51.5212822  49.4261017  30.3551579  50.9007874  49.5755539  31.0685158
  51.2993088  50.0894165  29.7017269  66.9503174  19.8912029  87.9735794
  66.2830048  20.5686588  87.8641129  66.9874115  19.4520264  87.1238861
  63.0376129  35.4588203  42.6264801  62.2944145  35.6773071  42.0642052
  63.0658646  36.1655045  43.2714844   7.6756325  37.3148804  72.9804993
   6.8478622  37.0977669  72.5516815   7.4325204  37.9285393  73.6737213
  70.9973755  48.1276779  62.7171478  70.2206802  47.7350655  63.1156807
  71.6796951  48.0370026  63.3823204  30.6545773  50.1225662  82.9433746
  30.7362404  49.1939735  83.1608200  30.0842590  50.1393280  82.1748123
  50.9158592  62.5241547  16.3442936  51.5154953  62.2230873  15.6616335
  51.3430557  63.2964821  16.7147598  46.9635277  52.6497231  80.8009415
  47.2227097  52.0609741  81.5097656  47.3367004  53.4968224  81.0446548
   6.5177941  55.2857246  22.3706665   7.2618937  55.6721840  21.9089355
   6.3448830  55.8889771  23.0934525  73.4654617  38.8452339  49.6064873
  72.5319061  38.9643478  49.4317818  73.9034805  39.3645706  48.9322052
   0.8947359  62.8091507  75.5238113   0.1171200  63.3619995  75.4469757
   1.5139791  63.3357124  76.0292816  70.5987701  24.8044434  56.8349571
  71.3462219  24.6667595  57.4168358  70.1224823  25.5368500  57.2260666
  62.8151283   0.3248155  52.2417908  62.4897995   1.0543576  52.7691994
  63.6138115   0.6607900  51.8350258  54.4782600  59.8608437  28.0460567
  54.5189552  58.9363937  27.8011742  54.3814964  59.8523331  28.9983158
  21.3481636  27.5009785  13.5867949  21.4870663  26.5623589  13.4605751
  20.7695980  27.7562389  12.8682289  16.9211330  53.2744522  39.6249771
  16.8326206  52.3392677  39.4410515  17.8366566  53.4718361  39.4272690
  74.5740280  13.0032177  86.1064453  74.2328110  12.4453697  85.4074402
  73.8497925  13.0786619  86.7277527  32.2649994  65.1088867  81.4351501
  32.7324028  64.5748062  80.7928696  32.2076302  64.5531921  82.2124176
  72.4348679  42.9849129  26.1228943  71.6403961  42.5004311  26.3472347
  72.8106079  42.5013199  25.3872375  18.4994068  15.4126863  18.0748501
  18.2292328  16.3209419  17.9395313  18.8063736  15.3866024  18.9811192
  58.9444885  67.4650726  72.8846893  59.1900368  67.3641815  71.9650421
  58.5033722  66.6449585  73.1061783   5.3554015   0.9430116  42.4045906
   5.9586864   0.6937287  43.1046867   5.1211820   1.8499045  42.6018677
  13.8723030  10.3961620  71.6257629  13.2828102  11.0152283  72.0564423
  13.7823601  10.5893869  70.6925888  10.6673832  67.3313217  36.3483887
  10.9352026  66.5093460  35.9374580  11.4699526  67.6759720  36.7399597
   1.9117019  30.5642490  81.1722412   1.3831360  31.3102779  81.4556046
   1.6847956  30.4465408  80.2498016   9.4450760  47.2092781  16.0087261
   8.5479183  47.1560822  15.6793175   9.4749413  46.5757637  16.7256660
  21.1140404   1.3807050  19.7045403  20.1771221   1.5730093  19.7424564
  21.4494209   1.6541855  20.5583324  31.6906605  64.6994781  31.6414337
  31.8793583  65.1217957  32.4794502  32.3597450  64.0198593  31.5596905
   5.3303628  37.1764717  42.4672508   6.0856161  37.0833817  43.0479050
   4.5853186  36.8901100  42.9955864  46.5693092  24.6881504  82.8581161
  46.5117722  25.4283390  82.2539291  46.7292900  23.9310074  82.2947540
  21.7437267   3.8509357  52.5954208  22.2990398   4.5149250  53.0040474
  21.4005032   3.3411002  53.3292465  86.1686096  35.4063950  57.7961273
  86.9411011  34.9422112  57.4736137  86.1251755  35.1821709  58.7256813
  13.2726870  39.8413391  84.3033295  13.0791855  40.0932350  83.4003677
  14.0574274  39.2972336  84.2372742  78.4428101  34.4077644  56.4746628
  77.6657486  33.9028969  56.2348328  79.0148239  34.3448219  55.7097626
  39.1766815   4.3937130  78.7676620  38.3475037   4.8434181  78.6049957
  39.6675835   4.4940300  77.9520721  17.3592892   9.7515965  68.8003464
  17.5007782   8.9556799  68.2877731  17.9242649   9.6470461  69.5659180
  83.6421585  30.0453053  62.1479530  83.6012497  30.1043301  61.1934509
  84.5772476  29.9889107  62.3445702   8.8897486  49.0491943  26.9260082
   9.7283764  49.0582390  27.3873672   8.5757113  48.1496201  27.0175591
  73.7520447  31.4355869  63.1825562  73.6002350  32.3761292  63.0900269
  74.5476685  31.3722382  63.7109489  24.1661510  53.9107895   4.4081988
  24.7922039  53.9429436   3.6848347  23.3092861  53.8845177   3.9823740
  18.3973236  47.4423866   2.6065803  18.0014954  46.5718460   2.6479418
  17.7707443  47.9669609   2.1081300   5.0039082  39.8451729  67.6830597
   5.5382609  39.4081573  67.0199432   5.2395759  40.7699661  67.6092224
   0.3580263  50.3075752  57.2191963   0.0324660  50.8735733  56.5192757
   1.2564611  50.1008530  56.9616852  43.2530861  68.2864761  70.9784088
  43.0861969  68.4537354  70.0508270  44.1685066  68.5355148  71.1057739
  24.5864124   4.6886163  57.5507278  25.1577759   4.3369207  56.8680229
  23.8563900   5.0821986  57.0728226  22.9993286   4.8718290  73.2103653
  22.7397652   5.7547998  73.4734573  23.4605103   4.5207682  73.9721375
  30.9575253  11.4091082   2.2902966  30.4143009  11.4354506   1.5026131
  31.5692577  12.1375856   2.1838360   5.3572769  20.3536167  19.3966904
   4.4674230  20.0132008  19.3044472   5.7268581  19.8622112  20.1302853
  73.3629303   1.8471830  83.7374725  73.1838379   2.5092809  83.0698013
  73.1270752   1.0178720  83.3217163  17.7573566  31.8982410  33.0617409
  18.5691948  32.1467438  33.5037766  17.1186581  32.5505867  33.3493881
  59.1319084  31.8455734  73.8093491  59.5072632  32.6672974  74.1257477
  58.2319298  32.0690613  73.5720139  66.5452347  30.1060524  65.2072296
  67.2358170  29.4809055  65.4274902  66.2876587  30.4844379  66.0478897
   4.9559093  11.1791897  62.9744873   4.2516146  10.9633150  62.3632584
   5.1257529  10.3617115  63.4425812  81.8598938  19.9995365  61.6588783
  81.8328171  19.2534943  61.0597801  82.2779999  20.6970711  61.1540375
  48.6713829  47.4780884  30.7098465  48.4263077  46.8177681  30.0616589
  48.1437721  48.2438393  30.4829445  41.4208221  69.6453705  38.4423943
  42.2611084  70.0101776  38.7200165  40.9305000  69.5272064  39.2559395
  51.5799942  51.8428230  55.0922050  51.7952766  52.7671661  55.2165985
  52.4228058  51.4210129  54.9249420  85.8321075  24.7526226  64.3730392
  85.2654724  24.0929127  63.9731140  85.3355408  25.0691948  65.1276474
   4.3814631  32.8721962  40.7565880   4.6320167  32.5029602  41.6034164
   5.0326576  32.5301704  40.1440544  37.3450928  20.1803417  81.5245743
  37.8980713  20.2895985  80.7509460  37.1783371  19.2388153  81.5687637
  68.6461563  16.0526390  49.3665619  67.7992859  16.4875774  49.2671890
  69.2851028  16.7650871  49.3467293  53.8199730  42.6408806   8.7448893
  54.5359383  43.0590363   9.2231922  53.1133537  43.2864189   8.7589331
  12.5793686  54.0755348  48.6840744  13.3295937  54.2450485  49.2538605
  12.3168392  54.9407806  48.3699646   4.8631701  34.1975174  88.3614426
   4.1904707  34.4936104  88.9746552   4.8703694  34.8634644  87.6739120
   9.3713846  19.2649403   9.6874933  10.1472273  19.4031010  10.2308254
   8.6375389  19.5099392  10.2511225  39.6064720  36.9818344  75.3533325
  40.2907600  37.5872078  75.6388245  39.8363037  36.7700005  74.4486008
  81.6239624  22.1668701  43.8071442  81.1601257  21.8182869  44.5684471
  82.3539581  22.6627865  44.1778297  45.1700020  71.0823441  67.8052368
  44.9360161  70.5343170  67.0561371  45.8576965  71.6598892  67.4739609
  19.5249081  49.5989342   4.0760064  19.3026447  48.7425728   3.7106607
  20.3647232  49.8203506   3.6736169  55.1863403  18.9041805  35.2887154
  55.3584061  18.4305191  34.4749184  54.2319183  18.9189072  35.3600616
  84.7181625   3.9926937  72.8092957  85.1556854   4.4409575  73.5330811
  85.2405548   3.2036135  72.6654663  83.6774292  29.4103870  59.2996330
  84.3599243  28.7510719  59.1741829  83.7457733  29.9753094  58.5299416
  66.9414978  70.5819168  58.8724251  67.2492828  70.9490433  59.7011108
  66.5416565  71.3223572  58.4162445  68.2855835  15.1701860  78.4100037
  67.6057358  15.8315086  78.5391998  68.0349960  14.7239380  77.6011124
  24.5019703  12.4582539  21.6864491  24.7324142  11.8697948  22.4053669
  24.3509579  13.3041010  22.1083145  76.3970337  11.2856092  46.9740639
  77.1752701  11.7960138  47.1978226  76.4257812  10.5334034  47.5653305
  52.4780960  24.7859554  18.2296963  52.4771347  25.1388931  17.3399410
  52.7663193  23.8789463  18.1272717  16.4289665   7.1043220  84.8206558
  16.5892658   6.8884296  85.7393112  17.2054920   7.5946636  84.5508347
  56.2436485  60.2647247   8.2401991  57.1835403  60.1633377   8.0900078
  56.1804733  60.9406433   8.9150162  52.2110443   5.6118999  36.3034058
  52.0932503   6.3048534  36.9531517  53.1176567   5.7084780  36.0119209
  72.3523788  53.1670761  26.3999729  72.8028336  53.2788124  25.5628147
  72.9587250  52.6509705  26.9312057  36.2984657  58.4697571  11.7606335
  36.8590889  57.8600235  11.2808828  36.0471191  57.9924850  12.5513735
  50.1782722  48.0503311  73.4149246  50.9530983  47.8021851  72.9106445
  49.9119034  48.8924141  73.0459061  82.6961212  28.4158096  18.8103561
  82.3542175  29.2900963  18.6233883  82.2447433  28.1482639  19.6109200
  66.2143402  15.0777502  53.7930183  66.5723495  14.8349428  52.9391403
  65.5370712  15.7241468  53.5937386  83.3668442  60.5415077  25.7605076
  83.2833023  60.6866341  24.8180695  84.2604446  60.2180061  25.8747387
  30.0522270  60.3164902  86.1788864  30.7249737  60.9601784  85.9568405
  30.5264874  59.4877357  86.2458038   9.9872675  37.7266006  10.0463934
  10.6676607  37.5366783   9.4004631  10.4210119  37.6119003  10.8919363
   8.9751472  41.7033730  10.0577440   8.1201973  42.1053505   9.9037676
   9.0195723  40.9855652   9.4260740   6.7555528  15.3432102  46.5499763
   6.2615356  15.9517107  47.0994377   7.6203775  15.3001585  46.9579697
  55.8022995  15.5504580  31.1212044  56.2629967  14.9424477  30.5430050
  55.2327271  16.0512733  30.5372524  81.3649292  48.8062057  34.4930077
  82.2919006  48.6222153  34.6449966  81.3636475  49.5771179  33.9256172
  67.8993073  16.5206738  66.4002686  68.1737366  16.3783817  67.3061829
  68.2641144  17.3753967  66.1709366  67.7789001  17.6982307  43.9210663
  67.4290466  17.1579838  43.2125702  67.0380020  17.8252182  44.5136719
   7.3001132  44.8610725  70.4233398   7.5239081  44.4928436  71.2780609
   6.4928770  44.4117622  70.1728973  10.8528948   0.2548920  67.4771118
   9.9208250   0.3032098  67.2646408  10.8754377   0.0894958  68.4196396
   1.2893007  67.0723877  81.0418015   1.6335748  66.3753281  80.4833984
   0.7983475  67.6370316  80.4448318  82.6999817   5.4684777  33.3886452
  81.9565659   5.5045333  32.7867622  82.3189316   5.1978931  34.2239990
  34.7995872  48.6296692  83.7664413  35.7558708  48.6712303  83.7614899
  34.5335045  49.1450958  83.0050125  38.0923576  48.4068451   6.1812267
  38.9234276  47.9331970   6.2160807  38.3183212  49.2601051   5.8109322
   6.0760069   1.8248650  70.7210236   6.9569807   2.1617484  70.5578461
   6.1997499   1.1380838  71.3761978  18.3028049  43.5211143  77.3998871
  19.2368851  43.4339256  77.2098312  18.1625977  42.9700394  78.1698837
  13.6919231  11.2644634  14.3403997  12.7647429  11.4343681  14.5068378
  14.1534004  11.9149799  14.8696432  44.3200836  60.5705261  10.0492392
  45.2715454  60.4664612  10.0604401  44.0037155  59.8259850   9.5375738
  48.5468979  19.2739887  68.8429260  47.6087418  19.4593372  68.8012238
  48.8736877  19.8471546  69.5364075  42.6897812  28.9663849  61.6473923
  43.1310577  29.6703987  61.1721306  41.9519653  28.7251244  61.0873451
  27.3881588  35.9628487  72.3921738  27.2297459  35.9790192  73.3360367
  26.7147617  36.5364380  72.0264359  28.5282459  24.5130959  55.2847748
  28.7903461  25.3729305  55.6137390  27.5747375  24.5629654  55.2172165
  49.3796043  19.5899658  66.0468445  50.1904030  20.0980148  66.0199509
  49.0613213  19.6941299  66.9435501  61.0980949  52.6232719  15.9301081
  61.4951820  53.1249504  16.6420574  61.1706505  51.7109413  16.2105007
  78.8286896  68.6128311  28.9220829  78.7397690  68.0505753  28.1525402
  79.3689957  68.1057663  29.5280457  35.0027657  31.6742020  79.4751129
  34.3503799  32.1112328  80.0224991  35.2010765  30.8619614  79.9411316
  27.8107700  59.9247055  61.6604691  28.1292133  59.9972420  62.5602264
  27.6073265  60.8245087  61.4051285  75.3804245  26.9184628  32.1985016
  75.9283829  27.5028458  32.7224007  75.6376266  27.0960732  31.2937717
  29.3455715  27.2970409   2.0714567  29.5233727  26.4744873   2.5275521
  29.6202393  27.1347256   1.1689916  11.0496283  29.1085320  29.0263424
  10.1892014  28.8102341  29.3211594  11.6654234  28.4913292  29.4214211
  10.8219318   9.3239002  55.5767937  11.1370010   9.9606390  56.2182999
  10.4520674   8.6157293  56.1039810  34.6765823  65.7175827  25.0394764
  34.3247490  66.5643463  24.7648182  35.4336128  65.9374924  25.5824108
  62.8387299  21.4619503  83.6810760  62.9431000  21.4131451  82.7308426
  62.1109543  22.0699368  83.8111801  28.4061165  66.2228470  14.2288618
  28.9631004  66.6022110  13.5490942  28.7653446  65.3471985  14.3717909
  65.4627838  31.0759335  43.8032417  65.1305695  30.1786308  43.8299980
  66.3046722  31.0332565  44.2567062  17.0399990  45.9888000  78.2209473
  17.2793808  45.2701836  77.6357040  16.8539829  45.5639381  79.0582809
  50.8666687   0.1138364  18.6591244  50.3148270   0.6762844  19.2025890
  50.2657738  -0.5424112  18.3062859  29.1579666   4.6625237  29.3056107
  28.7866650   3.8291125  29.5950794  29.2393322   5.1796913  30.1069546
  82.7369919  44.8272972  62.0354080  82.6123810  44.4201164  61.1781425
  82.6340866  45.7648964  61.8724594   6.8371644  15.8549318   8.7519875
   6.8897796  15.5282612   9.6501799   7.1199279  15.1170416   8.2118073
   1.8374209  56.3845520  65.3125992   1.6984665  57.0057106  66.0275040
   2.5257728  56.7826843  64.7797775  82.1996231  24.0413418  86.1384735
  81.2848206  24.2780037  85.9856415  82.4154282  24.4485741  86.9774094
  38.1947327  24.7498760  79.3493500  37.9223404  25.6625366  79.4446640
  37.7784004  24.2977810  80.0831833  59.6682014   5.1750045  86.2515869
  60.0432014   5.9177122  86.7248688  58.8368759   5.0040236  86.6941833
  12.3023500  23.7063179  65.8153458  11.8380613  23.1828594  66.4685364
  12.3546810  24.5803776  66.2020187  71.1949310  49.6021919  50.3623161
  70.7249374  49.2221375  51.1045380  70.9042892  50.5138283  50.3361893
  45.6358337  33.8822136   5.1335278  44.7313957  33.5743637   5.0747814
  46.0631523  33.2593079   5.7214217  77.8490219   2.3324392  66.2996826
  77.5061722   1.5714978  66.7683563  77.4860458   3.0849631  66.7667847
  26.4044876  29.1657772   0.6488383  25.7641068  29.7664509   1.0300657
  27.1674080  29.7139492   0.4652891  26.4792709   4.0841842  55.3623047
  27.2845135   3.5715461  55.2914772  26.0526600   3.9787793  54.5119362
  76.3434296  30.9690342  64.4438858  76.7530212  30.3942032  65.0904388
  76.9793167  31.0181293  63.7301140  48.2715797   7.8214016  32.8205109
  48.0579834   7.0168672  33.2930908  49.2184906   7.7769971  32.6877747
  29.7538853  44.0093803  87.1225815  28.8919315  44.2807388  87.4382248
  30.0918198  43.4368820  87.8112640  86.2251816  48.2915688  40.3782959
  85.9705429  49.0768738  40.8627357  86.4769287  48.6148949  39.5132446
   7.8325486   8.9181061  67.5874939   7.8157129   8.0614948  68.0143051
   8.1818533   8.7434502  66.7135849  48.5701752  40.2115631   9.9986639
  48.4792023  39.4987526  10.6310043  48.8189049  39.7775116   9.1825981
  60.8596802  11.7069578  12.8951931  60.6370811  10.7988319  12.6902790
  60.2577972  11.9480562  13.5993528  80.9333801  38.2609215  80.9092331
  81.8689423  38.2335358  80.7087173  80.6172028  37.3826599  80.6973038
  10.9590425  14.9977045  53.0692940  11.7499475  15.3997021  52.7099915
  10.4010363  15.7380800  53.3074226  48.1661263  26.0579567  84.7836838
  47.5914345  25.5784836  84.1869736  47.6221504  26.2322197  85.5517731
  21.2505798  10.2899332   4.1426311  20.4567146   9.7873116   3.9599221
  20.9330559  11.1107597   4.5190005  74.4584732  12.6132269  63.7204132
  75.1514587  11.9563179  63.6535263  74.4203720  12.8271093  64.6526337
  68.7022552   0.8238168  66.8021317  67.8283539   1.0669768  67.1077499
  69.2079620   1.6349535  66.8526459   4.4512906  19.8996811  12.8650656
   4.0363040  20.6180325  13.3425484   4.6877422  20.2795715  12.0188951
   0.6052201  42.7423553   6.6653185  -0.0137104  42.5403633   5.9636374
   1.2889626  43.2598534   6.2399693  53.6699448  26.5565357  59.9130211
  53.3973656  25.7172127  60.2837868  54.1226845  26.3244839  59.1022110
  17.5054398  34.4681282  20.8065147  18.2828979  34.2927094  20.2764034
  16.7704048  34.2942009  20.2185478  73.6262741  25.1523132   2.3384449
  72.7820816  24.7572060   2.5562961  74.2656250  24.4607620   2.5093796
  76.9772720  69.9170303  20.7201061  77.4488983  69.2323456  20.2457600
  76.3171234  70.2267456  20.1000118   2.7044640  16.4820023  29.0703449
   1.9827559  16.1617489  29.6114616   2.3799310  16.4122524  28.1725445
  62.9202271  59.8079643  69.8794632  62.9257774  60.7621422  69.9553070
  61.9947128  59.5800552  69.7916718  33.1924400   9.3224554  18.6218643
  33.4855118   8.6047125  18.0604496  33.8992310   9.4330244  19.2578297
  50.3270721   2.3431113  20.0002708  49.8880043   2.7591887  20.7421131
  51.0405502   2.9412642  19.7780228  52.2744980   9.0311575   4.8589010
  52.2970886   8.6745329   5.7468991  51.7122612   9.8030062   4.9250040
  62.6105118   8.2711468  73.3600693  63.1466560   7.5500159  73.0303040
  63.2313042   8.9858379  73.5017166  55.0592041  47.3213959   1.0084795
  55.6975708  47.8980560   0.5887362  54.2401886  47.8164482   0.9891943
  71.0035477  38.2402611  74.4932556  70.1523819  38.0991211  74.9077682
  70.9548950  39.1298065  74.1431503  29.7785397  65.9209900  40.9405746
  29.0909615  66.5825653  41.0166588  29.7101498  65.4105835  41.7474442
  38.1264763  45.6199722   8.4504795  37.4834671  44.9824715   8.1400452
  38.9477615  45.3519096   8.0383348  27.6466770   9.1228437  17.1333866
  26.8616295   8.9024591  17.6347466  28.1255150   8.2970257  17.0628853
  59.8067245  68.0795593   9.0729465  60.3563614  67.7874069   9.8001156
  59.0712090  67.4670029   9.0675135  32.0395813  66.9853821  26.2989120
  32.4536362  67.6611862  25.7621841  31.1125317  67.0278473  26.0643673
  80.7221375  15.9534121  44.2263680  81.4426498  15.5574923  43.7361221
  80.3908920  16.6426086  43.6505890   8.8175831  44.7308617  85.6746216
   9.5041952  44.0640411  85.6625977   8.0531940  44.2943802  85.2985611
  65.5188370  65.8796921  80.9906921  65.3578110  66.7611237  81.3274231
  66.4562607  65.7397690  81.1244049   0.6633201  13.6293583  62.8390160
   0.1658296  13.3694811  62.0636444   1.2902160  12.9181242  62.9708481
  55.8754234  64.4433975  14.2116013  55.0732040  64.7301865  14.6479836
  55.8356781  63.4874916  14.2413883  11.0343704  58.6300125  35.4036674
  10.5553522  59.1428757  36.0546227  11.8393536  58.3678932  35.8503532
   5.8889089   1.1447531  87.8290176   5.7843943   0.3668999  88.3769684
   6.4060712   0.8437147  87.0819244   3.0861542   4.8729148  54.5687981
   3.3240800   4.0251427  54.9441719   2.5210640   4.6563735  53.8271675
  57.6474609  13.1174164  88.3227158  58.5591698  13.0853987  88.6125336
  57.3062401  12.2425995  88.5084381  22.8493862   5.8194308  79.3426437
  22.6501274   4.9825702  79.7623901  22.7878819   6.4623713  80.0490952
  65.8006668   4.0405750  52.1245537  66.0436325   4.7406683  51.5186920
  66.3023071   4.2260122  52.9184036  52.4220200  24.6482449  80.7145386
  52.7643814  24.0935764  81.4155121  52.0768242  25.4186592  81.1656876
  29.4754868  50.5001450   0.9740433  29.8656311  50.5384827   0.1008025
  29.9734898  49.8211784   1.4292687  21.4301510  68.4386063  23.7987518
  21.8073177  67.7121735  24.2950172  20.5468540  68.5381851  24.1538620
  78.2005310   2.2530417  79.8683243  77.7640533   1.7192060  79.2044373
  77.8931198   3.1436925  79.6995773  15.1537304  51.3129387  36.5173798
  14.3326387  51.3830719  36.0304298  15.1214542  50.4439545  36.9174538
  48.3330612  58.9941368  43.6610832  48.1659279  59.9043922  43.9054947
  47.9939537  58.4827461  44.3957367  25.2538166  69.4290924  42.5410538
  25.0702381  68.9959412  43.3746719  25.2535381  70.3629379  42.7512016
  11.9170685   5.7877927  20.5971069  11.6885366   4.9049263  20.8878860
  12.7101231   6.0037580  21.0876732  86.8595276  22.0056858  46.2686539
  86.9542770  21.2493877  45.6896324  85.9199219  22.0568314  46.4440384
   6.7496305   5.2427182  42.7053871   7.6630416   4.9719605  42.7981339
   6.7650046   5.9044747  42.0139580  31.3815479   0.3904995  69.8995514
  31.6555805   0.4065622  70.8165512  31.3232346  -0.5401197  69.6832657
  52.1837082  36.6562004  59.4531441  51.3218765  36.5255508  59.0576591
  52.0888329  36.3290176  60.3476753  34.9139633  60.9596367  47.1849442
  35.4858818  61.6492691  46.8479652  35.4079781  60.1511116  47.0490570
  75.7668304   5.5995684  30.1219826  74.9745102   5.8236980  30.6100655
  75.8445511   6.2885413  29.4620533  85.2038116  19.0414734  15.0431252
  85.1486130  18.6433659  14.1743927  85.4231567  18.3146935  15.6261444
  57.8142242  64.7242737   8.1503687  58.5325317  64.5514755   7.5417542
  57.6374741  65.6599350   8.0528049  56.2678375  25.1230888  19.4382763
  56.4130478  25.8690262  18.8562737  55.4499016  25.3283138  19.8911514
  13.1607685  17.9583168  23.7254906  13.9599285  18.1726799  23.2442188
  13.4688826  17.5159607  24.5164528  55.8780060  14.6596918   6.8063059
  56.0428085  14.4982100   7.7352810  55.2031364  15.3384390   6.7972269
  68.2346878  42.3579254  38.8867989  67.8399734  41.9016914  38.1436462
  67.4893799  42.6542778  39.4092216  53.2058563  44.1311378  35.6865997
  52.7573547  43.4041405  35.2546768  54.1246872  43.8641243  35.7127151
  15.7553349   0.3111950  80.7713623  15.6826296   1.1539389  80.3233337
  16.6593323   0.0360077  80.6187439  43.4808769   2.6565487  23.9211273
  43.6920357   1.8104450  23.5264721  44.1891403   3.2356069  23.6395454
  70.6476059  62.9732170  69.2905807  70.2494659  63.8433762  69.3139343
  70.2193604  62.4947548  70.0004501  54.8786316  59.0070229  30.7282753
  55.8320351  58.9309731  30.7665920  54.5604782  58.3390846  31.3356228
   0.6951685  51.5344925  61.9416580   0.7717614  51.7053032  62.8803711
  -0.1634388  51.1232033  61.8423271  78.7530518  50.5269775  63.2457008
  78.5539932  49.7447777  63.7602577  78.7229462  51.2442360  63.8788376
  56.2283249  51.5929947  39.2807312  56.9186172  51.8050613  38.6524353
  55.8475914  52.4398956  39.5131760  12.4233303  52.7367630   6.7582827
  12.0313025  52.7985840   5.8872347  13.2686043  53.1776237   6.6723452
  70.7991486  14.2431707  56.3327713  69.8869705  14.4104176  56.0957146
  70.9280243  13.3129225  56.1476746  35.8182335  71.1700287  48.9250870
  36.3279495  70.7249527  49.6020889  35.8579025  72.0957794  49.1651878
  40.2991180  44.1208458  88.2425842  40.9716110  44.3563156  87.6034088
  39.5154190  43.9594116  87.7172394  13.8358469  54.7989082  38.5398064
  13.0095549  55.0660439  38.9424400  14.4659224  54.8035660  39.2603722
  32.3685493  46.1964035  59.0487480  32.6690826  46.7419014  59.7756195
  31.5619698  45.7930031  59.3695717  76.6481171  29.5697708  56.2152214
  77.1630020  28.9924583  55.6514511  76.0698013  28.9794388  56.6982231
  80.4751587  40.7342262  15.5000153  79.5571671  41.0035629  15.5313396
  80.5081406  39.9344025  16.0248260  66.1279984   7.5061417  45.3612823
  65.6450500   7.7690983  46.1447678  65.5902557   6.8189178  44.9678497
  60.0043564  37.5066452  73.1521606  59.2368088  37.4518166  73.7214584
  60.6946678  37.0537987  73.6365509   2.0883999  18.9232845  46.3160629
   1.5332407  19.2869282  45.6262856   2.5857372  18.2297783  45.8825455
  46.2364273  37.9508133  62.7310257  45.4382019  38.4387283  62.5285187
  46.7561264  38.5524292  63.2641296  58.8600616  62.8961296  80.4574203
  59.2279816  63.7293205  80.7518082  58.4947433  63.0874825  79.5936203
  68.5420609  71.2644806  28.3514137  68.4245911  70.7958603  29.1777477
  68.0269623  72.0646515  28.4545288   7.3243527  64.5699844  36.1578789
   6.8790059  64.1647720  36.9019890   7.3142886  65.5068359  36.3539314
  57.6385727   1.6716602  20.6096783  56.9770966   1.9249285  21.2535229
  58.3278351   2.3292530  20.7030621  64.1803970  44.3392715  73.4284515
  63.9855843  43.4198494  73.2469330  63.3233299  44.7436104  73.5632629
  34.1526146  52.2794838  13.5551128  34.4763184  51.3799934  13.6037254
  34.2506409  52.6177406  14.4451714  13.5838470  53.4877052  30.4757748
  12.6991615  53.2630997  30.1874771  14.1267996  53.3704185  29.6962376
  47.3814774  31.3274021  89.0523911  46.6608086  30.8137646  89.4171448
  47.0200424  31.7147121  88.2551498   4.0924754  28.9408226  57.3869438
   4.4408178  28.0498753  57.4201736   4.2891836  29.3072090  58.2490921
  81.6711807  18.6755257  27.7353859  80.7497864  18.5390148  27.9559212
  82.1171722  17.9020329  28.0803890  12.5885315  34.4294434  13.2916460
  12.5512323  35.0495262  14.0198879  13.2513409  34.7907639  12.7031202
  -0.0783023  25.2688599   3.4463954   0.5745233  25.1297932   2.7603114
  -0.2225055  26.2151222   3.4515376  86.3248978   2.0102797  21.4151096
  86.8517609   1.4697813  22.0037632  86.7627258   1.9375707  20.5670204
  38.8404160  46.6591797  40.8508148  38.7652817  46.5101700  39.9082756
  37.9812164  46.9921684  41.1099014  46.9023132   1.1409252   5.3901458
  46.4267235   1.8649880   5.7973080  47.2552719   0.6419002   6.1267767
  83.5767746  39.2540779  24.1424999  83.9786301  38.3994484  23.9864368
  83.7918015  39.4572029  25.0528488  59.6562042  68.4806747  64.3413467
  60.1799583  67.8574905  63.8378067  59.1723518  68.9759445  63.6804161
  71.5304565   4.0265951  77.6841049  70.5839081   4.1451802  77.7629013
  71.6353073   3.1181962  77.4011688  67.5301590  51.5801468  37.4274940
  68.0466156  50.8537445  37.0784302  68.0438919  51.9058533  38.1665649
  43.3822670  30.3689346  74.2679901  42.5819473  30.3219433  73.7450027
  43.1495132  30.9233990  75.0127182  37.5443878  12.0578461  20.0968437
  37.0478363  11.4704962  19.5270290  37.1976967  11.8909760  20.9733086
  31.9858036  28.3299637  77.7153702  32.1380157  29.2011471  77.3491669
  32.3232346  27.7287388  77.0513687  57.5391541  71.2192154  68.7611084
  58.3988380  71.4353256  69.1223297  57.5281219  70.2627640  68.7249146
  86.8399200  33.4833221  21.2841969  86.8244781  33.2842865  22.2203484
  86.2024994  32.8809433  20.9007111  29.7677174  64.4197311  43.1925430
  29.1185703  63.7487450  42.9813271  29.3756237  64.9141769  43.9122810
  80.4827957  53.8944321   3.0332239  80.2518311  53.3141212   3.7585688
  81.3673935  54.1959801   3.2400820  61.3800621  42.7075500  27.4456635
  61.1633682  41.9135513  26.9569492  60.8570900  42.6469727  28.2450752
   3.0345480  14.4991474  87.5073395   3.1513033  14.9005346  88.3684387
   3.8622520  14.0489111  87.3387375  48.1520386  64.0108719  19.7140617
  48.8893242  63.5188904  20.0754471  47.3988647  63.7298126  20.2336464
  86.7667389  33.0602455   1.2469707  86.3132935  33.4881287   0.5206565
  86.2171860  33.2378044   2.0103159  37.5557060   3.6893835  69.3401947
  37.9478493   3.7261798  68.4677811  36.6122437   3.7080665  69.1796951
   5.8051739  55.1039581  83.0810852   5.8578005  56.0590706  83.0461121
   5.7108483  54.8356552  82.1671143  70.8972168  34.2668381  81.4633560
  70.8496933  35.1161308  81.0244064  71.5331116  33.7676048  80.9508743
  44.2960167   6.0345678  64.5402145  44.9902267   5.3910036  64.6820984
  44.4509315   6.7046785  65.2059326   2.3945322   7.4254079   6.4425693
   2.1269090   7.9711294   7.1820269   2.5159543   8.0425472   5.7210240
  52.6083527   4.6313491  79.1890717  52.2925110   3.7414374  79.3457031
  52.1680183   5.1620889  79.8528900  81.3874054  16.0736275  32.5540009
  81.5120926  15.1984644  32.9211197  82.0856094  16.1629601  31.9053421
  81.3594208   3.8607423  58.0065193  81.2323532   4.8093705  57.9927711
  80.4915619   3.5055978  58.1986694  58.7298088  34.8578262   3.3942060
  57.9822426  35.2385712   3.8550892  59.4496651  35.4660225   3.5619521
  25.8585606  32.3088799  17.1613712  24.9723339  32.3516541  17.5205441
  26.4129219  32.1065254  17.9150066  56.4939308  62.0755348  27.4206009
  56.9974365  62.4222488  26.6840534  57.0544395  61.3959923  27.7951469
  39.6424522  28.9317379   5.7853756  40.0536156  28.4231491   6.4843140
  39.5976906  29.8228130   6.1320930   3.5195751  17.4390678  20.4996700
   3.9546218  17.2664356  19.6647072   4.2238355  17.4096699  21.1472702
  25.0957966  29.9197140  13.7835741  25.9908886  29.6032085  13.9054985
  24.8862648  29.7016506  12.8754015  43.5261917  43.1067123  56.1812057
  43.0474510  42.5234108  55.5923119  42.8451080  43.6201401  56.6156540
  35.7702713  13.7515736  87.5635529  36.2940254  14.4830923  87.2367554
  36.3480873  12.9919300  87.4907150  57.1979027  42.0867310  32.2716599
  56.5781479  42.0254784  31.5447617  57.3538017  41.1785202  32.5306702
  26.1092281  65.8896484  34.4336281  25.1570511  65.9612122  34.5004654
  26.2528114  65.2326584  33.7524643  48.6073303   2.0306389  13.5030069
  48.6968727   1.7455308  14.4123631  48.3569679   1.2386798  13.0272455
   3.8832600  66.1487579  61.1119843   4.6016526  66.5588226  60.6303329
   3.2960949  65.8192139  60.4316406  44.0129280  61.0781021  13.1803455
  43.4179993  61.5631294  13.7522192  43.9679337  61.5383682  12.3422756
  71.7147598   3.2541792  23.1666889  71.5282059   2.5682335  22.5256672
  72.4113235   3.7738733  22.7655029  69.2979889  28.4895077  49.9363556
  69.3179855  27.8936348  49.1875114  68.8716049  27.9872799  50.6307564
  82.0346222   9.7989988   7.6952028  82.6707535  10.5140181   7.7129755
  82.5061188   9.0688524   7.2941957  59.2458458  13.1801805  14.4928207
  59.1493874  12.7018843  15.3163252  59.3662910  14.0919647  14.7581024
  17.8468494  71.5875397  58.7488289  17.7734489  72.1571426  57.9830666
  18.2568913  70.7895050  58.4153023  64.4575195  25.6190758  42.6881638
  63.5972672  25.8307076  42.3256493  64.7618484  24.8772659  42.1653519
   8.1918592  43.4392204  61.0673027   9.1419878  43.3230782  61.0678596
   8.0515175  44.2628632  60.6002388  35.6134758  64.8339157   8.2156925
  35.0890083  65.5495453   7.8564816  36.5176163  65.1396484   8.1429300
  59.0815086  60.0918694  86.8004456  59.3029480  59.5264206  86.0605392
  59.1134758  60.9788513  86.4420166   2.6183748  24.7397137  40.0112000
   2.3092382  24.6305637  39.1118965   2.0272379  25.3900986  40.3903961
  33.4655075  46.3317223  73.6010208  33.7056503  47.2034912  73.2870407
  33.0352097  46.4899063  74.4412918  43.7528572  64.2687607  63.2103577
  43.8593330  63.3188934  63.1589432  44.1498032  64.5982590  62.4040756
  41.3516045   0.6441929  81.7694550  40.6995125  -0.0495249  81.8682785
  41.8230705   0.6501722  82.6024704  32.5990944   6.8671312  72.3190308
  32.6122093   7.8214407  72.2458649  33.5147476   6.6066561  72.2192307
  71.2577057  41.0237274  66.4850159  71.3870926  41.9375267  66.7389145
  72.0609665  40.5823936  66.7610931  81.4248581  47.6742592  64.8492966
  80.5212326  47.6408501  65.1632614  81.9451981  47.3435898  65.5815125
  31.6985455  70.1032257  21.9257698  32.2266312  70.6610489  22.4969025
  30.7950535  70.2775726  22.1894665   2.8257110  62.5365829  16.6995640
   2.2958987  63.3285828  16.6086273   2.5734196  62.1759377  17.5495739
  70.9098511  45.4075851   1.1805962  70.8186264  46.3282738   1.4260303
  70.9874878  44.9439850   2.0144320  52.3710327  15.4862986  13.6051846
  52.6005936  15.2538452  12.7054634  52.8912163  14.8922138  14.1462088
   1.9450051  45.1985931  53.2506981   2.0471795  44.5972214  53.9883575
   1.9992322  46.0700836  53.6428680  62.7198296  50.3267288  15.5353403
  62.7029800  49.3759727  15.6449337  61.9454079  50.5207176  15.0072584
  28.7256622  10.4577627  30.6699677  28.5454216  11.2821178  30.2180996
  28.6870499  10.6809893  31.5999718  75.6321564  48.6233521  45.4546776
  76.5341110  48.5359612  45.1463280  75.5582581  47.9840202  46.1632156
  16.7411976  37.9934311  13.4475985  17.1488781  38.4190178  14.2018566
  17.2305412  37.1779251  13.3392963   5.9279656  14.9692612  71.0277252
   6.4091530  15.6695032  70.5868759   5.7957554  14.3061571  70.3501968
  32.8823814  59.2573128  43.0150681  31.9802361  59.4774971  43.2471962
  32.8671494  59.1571426  42.0632439   9.0077219  27.4565830  64.1281204
   8.9757280  26.5990658  63.7040100   8.3489265  27.9763012  63.6675606
  26.7696972  67.2114029  56.0240936  27.1766796  66.6161957  55.3945465
  25.8434505  66.9700394  56.0176697  28.4714127   2.6780872  62.2899475
  28.2206764   2.1773727  61.5136414  29.0626526   2.0973306  62.7688942
  19.6869164  46.9017334  88.5778885  19.6171608  47.2083435  89.4819641
  20.6129093  46.6850166  88.4692459  60.7327194  10.4232531  56.0990219
  61.0830688  11.0835857  56.6968918  59.9132576  10.1422377  56.5061340
  14.5816154  56.6825752  29.6407280  14.3466759  57.1209564  28.8228912
  13.8107662  56.7870560  30.1984978  39.5212708   0.4883989  58.5460510
  40.2566414   0.4759405  59.1586761  39.2535744   1.4067661  58.5118332
  78.0890274   4.9292612  27.2280922  77.8693924   4.8692341  26.2983665
  77.2693710   4.7313132  27.6810951  48.4910812  43.3229942  69.2940979
  49.3064461  43.5087967  69.7598190  48.5462227  43.8481979  68.4957581
  72.1033630  19.0826969  40.0301933  72.8091812  19.7282467  39.9938965
  71.9819260  18.8092098  39.1209717  58.3378525  52.3628578  56.6249504
  58.6871223  51.5333557  56.2991142  58.1507568  52.8706131  55.8353844
   1.3933773  66.6882324  36.3937187   0.5123613  67.0513992  36.3034172
   1.9131433  67.4072189  36.7530670  83.4307022  55.5560493  39.9658966
  83.6108932  54.6398010  39.7555313  83.9929962  55.7443314  40.7173004
   8.6505785  29.0289555  60.7630653   9.1778078  29.6668301  61.2440834
   7.9522586  28.7877769  61.3716850  66.1614685   8.9863844  23.2515793
  66.9383774   8.4301844  23.1942997  65.8016357   8.8065023  24.1201363
  60.8878479  67.4795074  58.6325417  60.2144852  67.7798538  59.2429543
  61.6982460  67.8712158  58.9581947  50.0082588  37.2758217   9.9862566
  50.2283363  36.6597328  10.6849899  49.2114334  36.9186401   9.5941849
  27.9591045  51.8885651  24.8204517  27.1513138  51.5399132  24.4434261
  28.6272583  51.2409973  24.5958176  18.3775311  41.7942505  57.8002815
  18.9602661  41.9171448  58.5496445  17.7294025  41.1580734  58.1026840
  62.4695892   5.4394264  47.0610046  62.6044617   5.5635242  46.1215172
  61.5222969   5.5107007  47.1784554  77.3279266   5.1095800   8.1792612
  76.7215576   4.3845139   8.0281687  77.5604095   5.0384264   9.1050692
  21.2095661  49.1851311  49.7958374  20.3173161  49.4906998  49.9593964
  21.2613888  48.3436050  50.2490311  51.6821938  68.2208252  59.8859940
  52.0617867  68.2555237  59.0079651  52.4132271  67.9763184  60.4534798
  39.0801544  52.3414993  83.0991592  39.6070480  51.6476173  82.7027512
  38.2279701  51.9349556  83.2564316  77.5599060  20.8880844  11.2127142
  77.0272064  20.2173214  10.7854643  78.4591904  20.6737633  10.9645500
  11.0767632  54.0459518  75.7638321  10.3072271  54.3404655  75.2766876
  11.4361496  54.8448143  76.1497040  73.0375366  14.9611473   0.7247180
  72.8330917  15.3836966  -0.1094801  73.1960526  15.6869278   1.3283293
  20.5602989  13.1677628  64.6400299  20.0015221  12.7298794  63.9979591
  21.1803455  12.4933538  64.9174271  31.1492290  66.3894043  35.7743340
  30.8982887  65.9577560  36.5909996  30.5939617  65.9836731  35.1085358
  11.9359789  36.3448677  86.6737289  11.7834549  35.9762344  85.8036270
  11.9145355  37.2923737  86.5395432   4.3391075   8.0851545  48.7596588
   3.4983661   8.5030174  48.5731735   4.1109509   7.1911135  49.0143471
  60.1188698  28.5175114  86.5711823  59.2951584  28.9320240  86.8279037
  59.9455299  27.5785179  86.6380997  78.6238632  68.0958176  53.8028412
  79.5487595  67.8508453  53.7749290  78.5653915  68.8740616  53.2486305
  12.9249573  29.9591389  57.0158119  12.2496719  29.3694439  56.6804276
  12.9031782  29.8333244  57.9644547  77.9992981  51.4868584  30.4875031
  77.9447861  50.5312386  30.4804554  78.1130295  51.7134705  31.4105091
  15.9061031  70.3748093  55.0228424  15.4826612  70.4139786  54.1652908
  15.3483934  70.9073868  55.5898972  30.1224575   2.7681003  88.1225967
  29.4271755   3.4176676  88.0183029  30.8793354   3.1545832  87.6821442
  23.8047333  10.3896255  80.5614777  23.0538082  10.5364437  79.9863358
  24.5595665  10.3831711  79.9729080  12.5563965  20.7131596  11.0841732
  12.1861668  21.3814373  10.5074892  12.9224167  21.2063999  11.8183222
  62.2474136  52.0025368  54.5440102  62.8834534  51.8540649  53.8442650
  62.5124016  52.8346443  54.9359474  72.3782043  54.4110565  41.6278839
  71.9734344  53.9814377  42.3814201  71.6809235  54.4539070  40.9735184
   2.2076075  51.2885437  78.0933456   1.2520820  51.2834778  78.0369720
   2.4637744  50.3869324  77.8991470  23.9317341  57.3109055  77.6520691
  24.2939758  57.9040222  78.3102646  23.7735863  56.4946442  78.1263428
  44.3599243  67.4246292  61.1721230  43.4712563  67.3029251  61.5063133
  44.7172127  68.1408920  61.6970558  29.0702477   0.2942192  73.0683365
  29.9890747   0.2070198  73.3220825  28.6984062   0.8921369  73.7167664
  85.7326355  23.7129669  24.0760670  85.3031464  22.9236145  24.4057522
  86.3013611  23.4001312  23.3725662  85.5921097  10.1965570   9.5246830
  85.4555435  10.4468021  10.4384441  85.0982513  10.8447161   9.0224676
  21.9746113  23.0894737  79.2331238  21.0206318  23.0197487  79.1971283
  22.1914253  23.7504997  78.5756531   8.1011257  70.1501312  11.3375301
   7.8238029  70.8573837  11.9198704   7.4626303  70.1627045  10.6245098
  33.3405685  51.2022400  60.7536545  32.6458778  51.6272621  61.2566376
  32.8896027  50.5295181  60.2434540  76.8620911   4.6168122  67.2224808
  76.2414932   4.3092346  67.8831482  76.3892670   5.3022594  66.7504272
  12.2034712   7.7113781  87.1690140  12.4870672   6.9796090  87.7170258
  13.0175428   8.1228962  86.8788910  31.7277050   6.2865658  19.2056313
  32.4278641   6.4783897  18.5817623  31.6855087   5.3306556  19.2318382
  56.9222679  62.3248100  30.5110664  56.9761047  62.4708252  29.5666027
  55.9868889  62.2180481  30.6839828  37.2639618  52.6759338  43.7052917
  36.9385490  52.6871147  44.6054077  37.5650520  51.7773590  43.5706024
  31.2335186   9.0896883  30.0934353  31.6637421   9.4592743  29.3223667
  30.4201469   9.5875931  30.1755905  61.4091873  27.7917767  30.9274902
  60.9630203  28.6134548  31.1324577  62.2723160  28.0600338  30.6124077
  27.9061966  25.7000408   6.7308917  27.9333420  25.0153999   6.0624895
  27.0153084  26.0467567   6.6825700  45.1745491  13.2581892  64.9895554
  46.0611305  13.3095713  65.3467102  44.8362808  12.4211960  65.3077469
  18.8419514  45.3135452  67.0907288  18.1982918  45.6334229  66.4585800
  19.1275959  46.0977707  67.5593796  82.0752182  52.5997543  42.5010643
  82.6125717  52.2275658  41.8018112  82.3339310  52.1157951  43.2853394
   6.8369036  51.9903526  79.1132660   6.1790624  51.6308060  78.5181198
   7.6448612  51.9991798  78.6000824   4.7078443  60.3439255  38.9424973
   4.0768294  60.9023094  39.3966522   4.7150068  59.5307655  39.4474258
  85.8136826  50.3419876  53.0459175  84.9493332  50.1986313  52.6604462
  85.7226410  51.1553192  53.5423393  72.6667404  71.7556458  11.0106058
  73.1128159  71.1585388  10.4100018  72.1674423  71.1819611  11.5918303
  68.7345734   2.4859371  86.7845154  69.1716156   2.4464097  85.9338379
  69.1982727   1.8438730  87.3220825  60.8125420  51.8288994  25.3092003
  60.5057907  52.6957779  25.0433903  61.7613792  51.9252205  25.3908386
  31.2424755  62.9973679  36.6884537  31.0449009  62.4769249  35.9097748
  30.5616550  62.7564087  37.3166695   2.6485364  13.8152275  66.9517288
   2.4530349  13.2539749  67.7020721   1.8425244  13.8142128  66.4354248
  20.0729675  69.2421112  28.9727402  19.5046864  68.4887924  28.8121319
  20.8789444  68.8635635  29.3239346   4.7614365  57.1054268  16.8973236
   4.1265969  57.4259148  17.5380249   5.4699345  56.7376060  17.4254990
  62.4438324  15.2823715  23.5785332  62.0496864  14.7902441  22.8583317
  63.3837814  15.1243792  23.4904118  23.2505341  10.4884291  77.1580276
  23.2997932  10.9521580  76.3221130  23.6491051   9.6359663  76.9828720
  73.8881607   8.5899744  65.6955338  73.8399124   8.0304508  64.9203949
  73.4563980   9.4024925  65.4316711  33.9160156  38.9564819  76.9500885
  34.2558365  39.0340729  76.0586090  34.0883827  39.8101654  77.3472595
  14.1923532  29.0724945   5.3221455  14.6812859  28.9226322   4.5129995
  14.6879244  28.6016083   5.9921494  80.8428726  55.8090553  55.7442741
  79.9918594  55.4325447  55.5201111  80.6609421  56.7355537  55.9015312
  56.3355980  50.7298088  54.6855240  56.7468109  49.8953743  54.4600143
  57.0255051  51.3801346  54.5538521   2.3419504  36.6718559  21.0767708
   2.4338365  35.8503036  21.5593052   1.4494697  36.9618950  21.2654171
  47.8381462  36.7243080  88.4439545  48.6073265  37.1095772  88.8636703
  47.9443626  35.7812386  88.5687408  13.1294441  48.3585663  44.3974571
  13.4148655  48.2799644  43.4871864  12.1803322  48.4697266  44.3421173
  22.9393005  50.2306290  63.0067215  22.5824051  49.5490646  62.4372253
  22.1894245  50.5302086  63.5206985  47.2315559  48.4140549  57.7679482
  46.6880531  47.7554779  57.3353806  48.1179199  48.0545044  57.7316818
  44.4979134  24.0400906  85.2228928  44.7751083  23.9096928  84.3160324
  44.6099167  23.1825924  85.6332397  24.5448914  13.8867512  83.9423523
  24.2459278  14.2844763  83.1246338  25.2757759  14.4373102  84.2232895
  45.5282898   6.5812845  87.2012939  46.1192970   6.2162490  87.8598404
  45.7902489   7.4989157  87.1267166  53.7462845  71.0912857  53.5262909
  54.5108185  70.6210175  53.8588066  53.9687386  71.2987137  52.6187019
  72.3172150   2.6780181   9.3080072  72.9572983   3.3701341   9.4738321
  72.6243744   1.9374224   9.8308840  57.7717743  41.1640587  10.5079947
  57.3778839  40.2936707  10.4488049  57.4900093  41.6093178   9.7088785
   4.9520373  41.9356689  48.6644440   5.4038239  41.3204193  48.0868721
   4.3195009  41.3972740  49.1401138  70.2209549  13.2777386  11.0489645
  71.0150375  13.1067591  10.5425653  69.8803482  14.0974627  10.6908169
  59.1725578  62.1332054  85.2357178  59.4928513  62.9773712  85.5535583
  59.3569260  62.1452942  84.2965164  27.3948803   0.2142154   9.9305420
  26.6729488   0.5064930  10.4869785  26.9669914  -0.1808711   9.1709032
  17.8406544  19.7181301   3.1862962  17.6670170  19.5673466   2.2571321
  17.9463062  18.8413715   3.5555711  47.8922577  26.9828186  22.8430424
  47.1801491  26.7642536  22.2419071  47.7910995  27.9211044  23.0031033
  50.5564919   3.7750070  53.6832123  51.4229546   4.0095162  53.3508224
  50.5330162   4.1386852  54.5683250  24.7331982  46.8031349  55.2339020
  23.8592720  46.8233109  55.6238747  25.3129597  47.1141281  55.9291687
  84.7688599  57.0740242  33.8280830  83.8765640  57.3434334  33.6102333
  85.2362442  57.0958328  32.9930344  85.1860580  38.1762428  51.7362938
  85.0774612  38.9275093  52.3194199  85.9032822  37.6742821  52.1234055
  82.1846466   9.6285381  85.4969635  82.8374100  10.3091841  85.3330994
  81.8930054   9.7875175  86.3946838  76.3888092   9.1009521  48.7076950
  76.2006912   9.1813087  49.6427803  77.3377914   9.2087793  48.6441612
  73.5073090  65.1976013  75.5076752  73.9440384  65.1382294  76.3573685
  73.6344604  66.1065979  75.2360229  62.0552979  30.0906601  79.8964310
  61.2940598  30.5027943  79.4879074  62.6541214  30.8160877  80.0736313
   9.0590525  49.1973152  13.7388687   8.7615576  48.5810661  14.4081726
   9.1886244  50.0197411  14.2111568  23.3126392  12.8107157  10.7509651
  22.4932652  12.3164625  10.7749052  23.8674812  12.3864527  11.4054737
  86.4571152  26.1852970  85.6929169  86.5755310  26.7143021  84.9040146
  86.0339966  25.3845463  85.3830643  59.2293091  27.9837399  36.7804909
  58.5511856  28.5554619  36.4206123  58.8743668  27.1001778  36.6826897
  64.2761307   3.1763296   2.2799559  65.0136185   2.7170331   1.8782243
  64.6822739   3.8401592   2.8372779  49.6783676  63.0629234  48.9680481
  49.5524025  63.9952698  49.1443977  50.3427849  63.0370331  48.2794914
  16.7702770   3.1493366  48.9287109  17.5366230   2.7531500  49.3434143
  16.2571640   3.4983461  49.6575050  69.4601974  28.9187260  37.5290108
  69.5593414  28.0235157  37.8530540  68.6348953  28.9079475  37.0442543
  21.8776150  54.9547348  89.1381683  21.8614941  55.5984268  88.4299088
  22.6840210  55.1458015  89.6171646  86.2511520  42.1857147  46.8464355
  85.9438553  41.5391769  47.4818802  87.1367340  42.4044647  47.1364822
  67.8019714  45.8730621  17.2305031  68.1345673  45.0334740  17.5478401
  68.5643234  46.4518089  17.2402515  55.8811760  17.5410061  62.3198662
  55.9251900  18.2429752  62.9691238  56.6884995  17.6319408  61.8137093
  29.4913197  44.4792099  82.4621582  28.7013664  44.2298813  81.9825363
  30.0839634  44.8148460  81.7895889  64.3015060  24.8234596   0.2653159
  63.8579102  25.6051769  -0.0638856  63.7859421  24.0933475  -0.0772732
  24.8175373  58.8881760  10.6701679  25.4090004  59.3939629  11.2274647
  25.1197624  59.0634079   9.7789974   7.7875276  25.9693928  56.2561913
   7.9306374  26.1793060  57.1790619   8.1754274  25.1014004  56.1450500
  74.3356171  20.7066402  30.2232952  73.6512985  21.3435631  30.0176907
  74.2922134  20.0698032  29.5100021  44.1731720  43.1477242  88.0195770
  44.8522682  42.5152016  87.7851181  43.3501472  42.6920776  87.8428116
  41.9122581  24.3310165  84.3535919  41.5237198  23.4578114  84.3008347
  42.6831093  24.2169857  84.9094849  19.5837517  57.1681137  51.9440994
  18.8733597  56.8907738  51.3656044  19.4627247  58.1131783  52.0359497
   6.9272118  47.5105247  14.8553953   6.4915481  46.6609726  14.9238949
   6.2681780  48.0871887  14.4689150  15.0044060  19.6179543   7.1128111
  14.9252062  20.5710869   7.0741181  14.4314222  19.3591080   7.8345599
  79.9314651  11.5286617  34.2226219  80.1975174  11.4661970  33.3052635
  80.3409576  10.7723541  34.6427956   8.4815540   7.5644503  27.7243366
   7.8029771   8.2061510  27.9340649   8.0329990   6.7197990  27.7642670
  46.5640526  22.8763981  31.7691135  46.3323669  23.3018456  32.5946732
  47.1562309  23.4936466  31.3395042   1.1871094  22.6334953  69.7044678
   1.3201945  21.7136688  69.4754715   0.4812126  22.9243450  69.1271057
  79.8143845  -0.1415471  80.5997925  79.4637527   0.7392651  80.7319336
  79.7131577  -0.3013576  79.6614761  61.5834389  46.1770782   0.5207847
  62.2471962  45.6430168   0.9571763  61.1357574  46.6325531   1.2337753
  10.5502672  29.8349857  19.1914120  10.5396328  30.7337532  18.8622704
  11.4761229  29.5920601  19.1946945  79.3623886  59.6064758  23.6144333
  78.6613693  59.3670692  24.2206383  79.8395157  58.7901268  23.4655933
  47.0875473  61.0989532  23.6604862  47.9363480  60.7230835  23.8939209
  46.4723549  60.3701515  23.7418022  11.5948563   0.7077076  53.7050972
  10.8353186   0.5378184  54.2622986  11.2526760   0.6593285  52.8124580
  81.3502121   6.2552161  86.6620331  82.0686264   6.4870524  87.2505569
  81.7563553   6.2042785  85.7967682  81.9310608  13.7269154  35.1617737
  81.9190216  12.8207798  35.4700050  81.0579529  13.8668556  34.7952652
   0.8482444  62.1372910  14.2732592   0.6710035  63.0012703  14.6452274
   0.0640913  61.6255531  14.4718971  10.4820843  27.4802475   0.4576715
  10.5725212  28.1696091   1.1155722  10.8675890  27.8535576  -0.3349558
  49.8005447  18.2483940  57.2011032  50.2086143  19.0501270  56.8740959
  48.8672676  18.3648930  57.0231857  43.3727455  41.0630150  20.6532841
  42.5836792  40.6437988  20.9965954  44.0508499  40.3911018  20.7235680
  40.4888954  51.2216530  88.0205231  40.8236237  51.5821381  87.1994019
  39.5584793  51.4464989  88.0191498  85.3947067  53.2890167  60.1892738
  85.2284241  54.1066399  60.6583939  85.9410095  52.7773781  60.7859421
  55.8578262   0.8011771  44.1335793  55.5300026   0.6782025  45.0244446
  56.0248489  -0.0859489  43.8152390  20.4052124  38.2193451  73.3389587
  21.0333691  37.6759758  73.8147736  20.8689785  38.4808350  72.5434875
  67.4557114  37.9293556  24.9965477  68.0063934  38.1388474  25.7509327
  66.8721771  38.6830826  24.9093037  18.3892193  10.6200352  71.5245743
  18.4800148  10.8891363  72.4386749  19.2134666  10.8823738  71.1146698
  19.1354885  54.3812065  25.7928314  19.5407238  54.5914536  26.6341476
  18.9069271  53.4542770  25.8620605  48.2319031  33.2035065  72.9354630
  48.3269691  32.9347267  73.8492203  49.1051559  33.0898781  72.5602951
  53.3097115  15.4050770  56.2909203  52.4623032  15.7986975  56.0830917
  53.9341736  16.1264477  56.2140923  82.6670303  10.4016371  28.9865780
  83.4249191  10.1947784  29.5334320  82.6851730   9.7423906  28.2928238
  42.4656448  47.4014816  71.6306076  41.9545441  48.0027390  72.1723633
  43.3690147  47.5259056  71.9215927  57.3132858  17.7689114  57.2821350
  57.4222031  18.6360703  57.6725235  56.4134064  17.5217018  57.4950447
  79.0367279  22.7968273  57.0897484  79.8349380  23.2074757  57.4221001
  79.1479034  22.7918720  56.1390381  -0.1125310  29.6044579  84.7725143
   0.8161685  29.7714729  84.9333115  -0.1296695  28.7591896  84.3236771
  47.2195473   0.6937668  24.2861366  46.9636230  -0.2210549  24.1685143
  46.5345879   1.0644470  24.8426056  39.3644600  57.6060028  82.3548813
  38.5401649  57.9366112  81.9978561  39.3169708  57.8041306  83.2901459
  28.5785713   1.0975697  70.4821548  28.4673328   1.0987837  71.4328690
  29.4708366   0.7789707  70.3458176  78.0878296   6.8466358  79.0503082
  77.3488998   7.2030354  78.5571518  78.7019806   7.5772290  79.1229630
  37.3335648  13.3424568  72.8263931  36.8924484  13.1936960  73.6627655
  36.9032745  14.1164246  72.4629974   5.8076692  49.1252213  78.2031708
   6.6254034  49.5746002  77.9896317   5.1240172  49.7657356  78.0067215
  53.2603722  38.9715233  19.8239346  54.1408005  38.7892189  20.1523266
  53.2341728  39.9231644  19.7243404  33.5050163  17.6493111  63.6656914
  33.8268738  17.8335953  62.7832642  33.5136223  18.4991283  64.1061096
   4.2215409  41.8751984  39.8758621   4.1447701  41.0089149  40.2757225
   3.3238363  42.2061577  39.8471718  38.1804848  15.2534399  68.1016846
  38.3206635  15.7282343  67.2824478  38.8923950  15.5440235  68.6717529
  16.5007458  60.9321404  27.0602436  15.5497370  60.8508682  27.1324253
  16.8323402  60.6209450  27.9025211  60.5790253   7.9296131  58.9924011
  60.8670540   8.8125877  59.2239761  60.8800354   7.8079338  58.0919495
  67.1208649  31.1079216  10.9096966  67.5724564  31.9214172  10.6849394
  67.8228378  30.5019379  11.1468582  74.1290283   5.5825391  55.8062668
  75.0103836   5.5838928  56.1796837  74.1470413   4.8837790  55.1523247
  51.7597313   6.5747013  69.1081848  51.9803085   5.6810718  68.8454971
  51.4132271   6.4847689  69.9959183  49.2389297  40.7180862   3.2096407
  50.0090790  41.1948700   3.5191174  49.5750465  39.8580971   2.9573038
  76.0061646  51.7466431  34.8205872  76.5330658  52.2196426  35.4646988
  75.9486847  50.8557510  35.1658936  19.9810238  49.2300072  69.8041763
  19.6288147  50.0758934  69.5273132  20.7718563  49.4494934  70.2967606
  13.6342964  67.3343658  51.6886101  14.4501276  67.8265991  51.7799911
  13.4237146  67.3906555  50.7565575  79.8993912  34.3088341  38.5253868
  79.7663193  34.5659027  39.4377708  80.7299042  34.7167664  38.2803001
  18.1911278  41.2956581  78.9274902  17.6016064  40.9397507  79.5923462
  18.8700237  40.6283379  78.8274078  28.1441669  43.3262024   6.6257510
  28.3985138  43.0065575   7.4914112  27.1873016  43.3020248   6.6331301
  34.6457367  57.7244568  26.0823307  34.5276527  56.7926140  26.2665977
  35.4619904  57.7685699  25.5843201  26.9436607  26.1429062  12.8550434
  27.1251259  26.1611767  13.7947073  25.9884758  26.1240215  12.7958927
  86.1287689  41.2523308  76.1289825  85.4369049  41.8586464  76.3934402
  86.6846466  41.7646294  75.5418015   9.1516466  32.7744713  75.8597107
   9.0307446  32.2679176  76.6628418   9.5449572  32.1564178  75.2436371
  27.8946571  38.9942131  63.4373741  28.1247749  38.5264587  64.2401733
  28.3336258  38.5054588  62.7411957  23.8098221  20.5546417  17.9614449
  24.0550880  21.1229286  18.6916008  23.4982357  21.1554165  17.2845306
  60.2094078  18.0738716  16.4231014  61.0178795  18.4363327  16.0608463
  60.1659660  18.4265499  17.3118992  57.8603134  55.2203293  43.9490089
  58.1665840  55.7376747  44.6938477  58.4836273  54.4964867  43.8876762
  64.5321045  11.6781998  69.7045898  65.4228592  11.9901657  69.5449829
  64.6457291  10.7847881  70.0288391  74.2119370  60.5473099  61.6371422
  74.6706619  60.4019852  62.4645996  73.3748474  60.9351540  61.8922539
   9.0272827  45.0618935  17.5782185   8.5778093  44.8598251  18.3988113
   8.6732922  44.4324570  16.9499416  11.0140734  48.4825592   6.6761475
  11.2205486  47.8042641   6.0330920  11.5454617  48.2581291   7.4400125
  69.1658020  58.7229996  48.1272545  69.2837906  58.3625908  49.0061302
  70.0158920  58.6042900  47.7035942  56.1834984   3.8943369  51.0161438
  55.6795807   3.6664279  51.7973976  56.6360245   4.7044835  51.2509117
  51.5495300   0.7785805  23.4591103  50.9299011   0.2907163  22.9166355
  51.0409737   1.5136653  23.8015327  72.2909546  55.8321075   7.9982362
  71.5204391  55.7617111   8.5617723  72.1101074  55.2379189   7.2699080
  33.7771721  58.0965004  30.3450718  33.3826981  58.5189400  31.1080704
  34.3441086  58.7680855  29.9658794  73.2489243  71.0009766  44.3878174
  72.7804031  71.8122253  44.1913681  74.1350403  71.1502838  44.0580750
  14.2882767   6.6522107   2.9659176  14.4931011   7.0183358   3.8262844
  15.0223799   6.0690794   2.7728322   0.3062355   5.5200706  24.8103886
  -0.0768399   6.3817201  24.9748440   0.0174542   5.2943797  23.9261379
  30.0128422  43.9321327  52.4643288  30.6837177  44.5427361  52.7698135
  30.4285526  43.4612885  51.7420235  63.6000557  71.1830826  34.0487862
  63.8637161  72.0772247  34.2660942  63.9658394  70.6476898  34.7529106
  76.5027618  14.6712847  22.6654854  76.4509506  13.7359800  22.8623447
  75.6129990  14.9112091  22.4066544  82.2486343  64.8818741  54.0938950
  82.4055099  64.8995438  55.0379868  82.9510193  64.3333359  53.7446175
  13.3127470  40.1134033  66.5437012  13.8596029  39.6890144  65.8825836
  13.9301510  40.4024277  67.2156448  67.5836639   6.7590356  60.8167191
  67.7503357   6.5682721  59.8936501  68.4146423   6.5725460  61.2536736
  49.2112045  67.2736130   3.8688872  49.7130241  67.9104080   4.3777118
  48.2965317  67.5018921   4.0347047  37.7106781  47.5564766  63.9407082
  37.1493340  48.0088654  64.5703659  37.3918686  46.6539307  63.9408340
  78.9125290  34.0796280   0.7876779  78.6092834  33.2446327   0.4312327
  79.5957718  34.3650093   0.1810705  24.2279930  32.6704483  54.2061882
  24.9805832  32.4311676  54.7470970  23.8324223  33.4137077  54.6615143
  62.0598564  40.6629486  39.2496567  62.1682320  41.4224701  39.8220291
  62.5714417  40.8762093  38.4692535  76.9221115  67.4014664  51.1647491
  76.0571823  66.9931946  51.1266060  77.1722031  67.3470078  52.0870934
  86.6006851  47.9713821  12.1773977  85.6654739  47.9709282  11.9734163
  86.6917725  48.6125298  12.8822861  29.3619881  65.6952438  83.1369553
  30.0142059  65.0778427  82.8058167  29.3595524  65.5560684  84.0839844
  13.2628870  20.1638546  76.9931717  13.6096048  20.9004555  76.4897461
  12.5777969  20.5486736  77.5397949  83.9224396  65.1066437  86.4796295
  83.6712723  65.2663498  85.5698853  84.5131454  64.3546906  86.4365463
  65.1349335  32.3817024  62.4183731  64.3031845  31.9248714  62.2929382
  65.0448761  32.8143883  63.2674370   3.8478427  43.7052841  57.2626953
   3.8868275  44.6033859  56.9338646   3.5376818  43.7934570  58.1639481
  84.8779678  18.9048061  31.8661861  85.0057983  18.1237869  32.4046097
  83.9356918  19.0691967  31.9025536  59.4175110   8.3393145   8.9258184
  60.0274582   7.6626248   9.2195711  59.8545074   8.7475605   8.1784229
  70.0467148  61.8224869  12.4351358  70.9646912  61.5691681  12.5320368
  70.0204544  62.3195953  11.6175642  77.2559204  11.4218578  58.7671661
  76.5267105  11.4866657  59.3838387  77.5467300  10.5124159  58.8348465
  85.0045547  22.2113056  52.7763710  84.2967758  21.8877087  53.3336487
  85.7616882  22.2676430  53.3593025  65.6387558  17.8100338  37.7624474
  65.0637054  18.5751972  37.7709389  66.4019012  18.0782700  38.2741928
  85.3922806  23.8103085  84.4434357  85.6326904  23.3271561  83.6528625
  85.8420715  23.3496323  85.1517410  16.9930592  35.4083710  64.2123718
  17.5295334  36.1336212  64.5324326  17.6200066  34.8035965  63.8156166
  13.9855175  38.8119431  73.9823456  13.7985582  39.7265472  73.7707291
  14.4862747  38.8521576  74.7971191  25.3645477  24.3840809  74.8097229
  25.5583458  24.5702229  75.7284317  26.0952396  23.8398094  74.5163116
  52.9550133  56.2761688  72.3664017  52.7937622  55.7764549  71.5660858
  52.0965118  56.3423271  72.7845306  47.4639397  48.8162498  62.7695885
  46.9669495  48.0244713  62.9753151  48.3775597  48.5307770  62.7636032
  52.2636147  70.6080017  69.0793839  52.2766495  69.7273560  68.7045212
  53.1774254  70.7877655  69.3004303  36.8831520  31.8104572   7.1453619
  37.4207649  31.2583179   7.7131176  36.3284302  32.3054810   7.7482419
  39.6328239  33.7516251  65.6172638  38.9055023  33.6923561  64.9978104
  40.1355743  34.5116730  65.3243408  69.3268356  45.4445419  80.1823654
  69.2280350  45.9264679  81.0034714  68.4533234  45.4563255  79.7911301
  67.9943466  44.1757393  65.0618057  68.6057129  44.8658791  65.3190384
  68.5444794  43.4022026  64.9383926  37.7017059   8.9727039   2.7947645
  36.8586884   8.6049767   2.5295625  37.5579681   9.2802057   3.6897588
  11.3256750  55.5995445  86.3112640  11.1405430  54.9128761  85.6706009
  11.2986431  56.4120903  85.8060226  20.1197529  66.8380280   9.2903433
  20.2577324  67.7844009   9.3298864  20.9654713  66.4622498   9.5348587
  58.6673508  60.4414787  28.4238358  58.2325592  59.8015518  28.9874706
  59.2112885  60.9556694  29.0204697  13.1830072  10.0302181  21.9256210
  12.7428665   9.5240126  22.6084576  13.6511755  10.7168121  22.4006367
  62.9617653  30.3049202  60.9155426  62.1575508  30.6773376  61.2771721
  63.2745590  29.7062225  61.5937424  16.8086834  26.7755966  16.6639118
  17.2779903  26.9211006  15.8424435  16.1845150  26.0782890  16.4628963
  26.8480759  22.3867798  77.9553223  27.3247948  21.8261948  77.3431778
  25.9251537  22.2168407  77.7667236  65.7770844  25.6211891  68.2420502
  66.4294662  25.2036819  68.8044739  65.1582260  24.9215469  68.0328903
  35.1104774  64.9569702  11.2837543  35.6204071  64.1963882  11.0049849
  34.9866409  65.4684296  10.4841862  45.7099609  11.5222387  17.8114262
  46.2348518  10.9881830  17.2151814  45.0172768  11.8862267  17.2601223
  83.0075150  35.1973267   5.2453675  82.4331284  35.8939362   5.5632434
  83.8605881  35.3953056   5.6317625  28.0884323  60.0855637  68.4559479
  27.2618427  60.4301071  68.1179047  28.2000332  60.5183640  69.3023911
  32.1586533   7.2439966   1.4173788  31.9708481   7.7288418   0.6137081
  32.4065170   7.9173398   2.0509441  76.3556366  39.3975716  23.1165886
  75.5974426  39.2166481  23.6721401  77.0864334  39.4824829  23.7289295
  38.2765236   5.4105682  71.7863617  37.3343315   5.5133848  71.6524353
  38.5912628   5.0096364  70.9761581  61.3389626  71.5554810  27.7573967
  60.5125732  71.9265366  27.4481449  61.6629219  71.0422287  27.0172253
  62.4399300  42.1046638  12.8783407  62.8094902  41.3308334  12.4530802
  61.5673485  42.1947136  12.4952984  83.3317947  56.5410156   4.9794140
  82.4782867  56.8882790   4.7202477  83.8705215  57.3176613   5.1305003
  50.6220512  24.2818222   3.3255413  51.5575409  24.0798740   3.3078456
  50.2831802  23.9190254   2.5071421   5.8940539  44.8920288  53.3279266
   6.8097191  45.0630150  53.5482712   5.5793748  44.3270187  54.0335999
  27.7749138  43.2356682  75.2952576  28.2260475  43.9924316  75.6694489
  27.8004379  43.3848495  74.3500977  45.7497559  54.1698990  41.5753860
  46.5881691  53.9647064  41.9891396  45.3233261  54.7728157  42.1843872
  28.7742691  69.3499908  38.8572540  28.4334393  68.8174744  39.5759277
  29.7196503  69.3749771  39.0051079  54.7027435  33.2675285  78.0362701
  54.7522621  32.3293037  78.2193298  55.5349312  33.6178093  78.3540802
  81.2917099  19.9055729  76.3104553  81.2443619  20.6578979  75.7205429
  82.2107468  19.6391315  76.2855148  18.7789421  63.6542549  25.4379635
  19.4726524  64.0103836  24.8828373  18.9995251  62.7275887  25.5321140
  59.8959389  21.6278057  48.7717323  59.4556541  20.7799072  48.7130051
  59.2263908  22.2224483  49.1098709  73.2750473  62.2315903  88.5252075
  73.3260956  61.3854065  88.0806808  73.6867447  62.8463745  87.9179382
  31.2866249  29.2934933   4.8593926  31.8429451  29.6848354   5.5328836
  30.8686333  28.5510712   5.2956548  21.2574368  55.7761230   8.2296629
  20.6458035  55.5728264   7.5219855  20.8780880  55.3567467   9.0019646
  35.2068863  70.5000763  25.6526756  36.1423111  70.6545258  25.7844276
  34.8467369  70.4420624  26.5376358  83.2384949  43.9916496  19.1931801
  82.9099350  44.8213539  18.8469524  82.9882050  43.3420677  18.5361958
  71.8897858  43.4802780  15.6563540  72.4032288  43.2058220  14.8965588
  71.8776245  44.4360046  15.6046438  76.9548874  63.3045044  41.6363335
  76.2601318  63.9629364  41.6390038  76.7641220  62.7519455  42.3943024
  32.2219048  69.1398544  84.4041595  32.0504684  69.2173004  83.4656296
  31.6106815  69.7540970  84.8107758   5.9123168  35.7389755  40.0997849
   6.2147112  34.8676300  40.3558044   5.6384645  36.1482239  40.9206085
  29.1545753  65.4316254  11.0989761  29.8420830  66.0052719  11.4373503
  29.0383816  64.7693634  11.7802525  79.3433075   2.2134719  75.7528152
  79.4594421   1.5153372  75.1083374  78.5795822   2.7004948  75.4433594
  68.6004410   2.0586925   6.0849600  68.1006012   2.2710371   6.8731875
  69.4953079   2.3309441   6.2882252  39.3453369  49.1795807  62.3950195
  39.6654739  49.7990150  63.0508003  38.7866631  48.5776405  62.8867302
  42.0167236  40.2710228   1.8779159  42.7703094  40.6536827   1.4285704
  42.2764130  39.3666039   2.0534501  85.3426514  60.0778961  62.1733856
  86.1899567  59.7030029  62.4137154  85.0646362  60.5602417  62.9520264
  83.2372360   2.3454595  34.7920494  82.8677216   1.6992685  35.3938179
  83.2480850   3.1608450  35.2933083  48.0368385   4.3257589  49.4559517
  48.3811340   4.9165516  50.1257668  48.2042923   4.7777267  48.6289597
   8.3360138   1.7707565  20.1260090   8.0258408   2.5354297  19.6409321
   8.2320423   1.0412303  19.5150986  65.7170486  55.2183838  23.7475529
  66.5161514  55.3553314  23.2387180  65.5398254  54.2811394  23.6675415
  16.9824219  12.7732124  78.8025055  16.5075836  13.5751581  79.0207748
  16.3179016  12.1964083  78.4257507  62.1721497  26.8735676  62.1035919
  61.2637367  26.8022690  62.3967361  62.5759544  27.4833145  62.7211494
  65.8684921  31.6638393  40.9647369  65.9351044  31.2813492  41.8396645
  65.0738983  32.1966400  40.9961243  66.5931015  70.7127991  25.2055130
  67.4203262  70.5519333  24.7515831  66.8347626  70.7726288  26.1297684
  68.6425018  47.9430122  56.3976669  67.8526993  47.5099564  56.0737610
  68.5167542  48.8661194  56.1779137  80.9226685  31.4408226  15.1549644
  80.9729614  31.7428627  14.2480612  81.8210754  31.1951694  15.3757639
  25.9224243  18.0198021  88.2924347  26.1242294  17.5509491  87.4826889
  25.3324623  18.7231236  88.0212936   1.3813617  47.5695000  69.5571747
   0.5702193  47.2518272  69.9538651   1.8372921  48.0170784  70.2699432
  64.2662201  19.7783527  58.0530128  63.5281601  19.9691334  58.6318893
  64.5294876  20.6327419  57.7110443   1.7820023   6.3443851  72.4608383
   2.3618054   5.6066036  72.6498871   1.4321595   6.5989790  73.3146667
  24.1511383  71.1699829  84.7361984  24.1968365  70.4090958  85.3151627
  23.4114685  70.9862289  84.1571045   2.4214163  12.5594749  13.1305323
   1.5497804  12.7493229  12.7834864   3.0176160  12.7821999  12.4155693
   8.4141817  38.7648163  81.2934875   8.4387255  38.9791412  80.3609161
   9.0940781  38.1002464  81.4044876  50.0661888  59.5125999  46.1585922
  50.3204422  59.0737953  45.3467789  49.2355347  59.9399910  45.9498291
   9.7067766  46.0169640  37.1211777   9.2333355  45.3607330  37.6324959
  10.1525383  45.5137787  36.4397545  18.7638607  67.4225616  80.7247314
  18.6897659  66.4694290  80.6769257  18.5019894  67.6385574  81.6197205
  75.7528839  12.4827137  81.6584930  76.4972305  12.0643349  81.2259064
  75.9663849  12.4464836  82.5908813  51.2407913   8.7820625   7.5051103
  50.8143845   9.2440519   8.2268953  51.2585640   7.8665538   7.7839637
   3.4393785  57.5475655  57.2487259   4.3468018  57.7208900  57.4992714
   3.0599120  58.4149895  57.1079597  47.8804588  54.0766640  56.3984184
  48.4038124  53.2776985  56.3352356  47.0005569  53.8081474  56.1340256
  47.9887581  45.0090103  82.6746445  47.1452599  44.9616013  82.2246475
  47.7626152  45.0475082  83.6039505   0.0875982  36.8877487  68.3686829
   0.8276163  36.2813950  68.3993912   0.4589685  37.7018661  68.0287857
  68.8371658  14.2336922  61.0322952  67.9553604  14.5141487  60.7873726
  69.3136139  14.1902552  60.2032356  15.4349127  64.4507446  64.7061386
  14.7828522  65.0454636  65.0767593  16.2473164  64.6723785  65.1612320
  81.9272156  54.1552773  80.9600067  80.9917450  54.3384438  80.8729706
  82.1591187  54.4981270  81.8230896  82.7288361  37.3925209  19.7121639
  81.9990768  37.9857101  19.5338192  82.5318680  36.6092567  19.1984234
  72.5471420  23.3211403  74.9488754  73.1579285  22.6537876  75.2616196
  72.8234100  23.4959316  74.0492401  17.5454884  -0.0168026   5.9886513
  16.6051445   0.0507202   6.1542640  17.6315422   0.1052616   5.0431743
  65.8479462  59.6637497  83.4421692  65.2483368  60.1458588  84.0116196
  66.6473923  60.1901245  83.4357300  67.0844040  68.5703964  83.1129990
  66.3067551  68.2589645  82.6498489  66.7586517  68.8454285  83.9700165
  46.9635201  42.2308388  88.0415344  47.4089355  41.4101410  87.8310699
  46.9888420  42.2788582  88.9971924  37.5771980   1.1420732  21.9168835
  38.3244133   0.5837325  22.1317139  37.2273750   0.7725729  21.1061249
  82.6373520  42.5197792   2.9989672  82.3907623  43.4444656   3.0182612
  82.7171936  42.3125648   2.0678818  21.6971912  58.9054604  39.0214615
  21.7594280  59.8523598  38.8960228  21.5455914  58.5569267  38.1429558
  56.4473000  27.9458866  57.4236526  56.5189667  28.0926399  58.3668137
  57.2069817  28.3950100  57.0529671  76.5135651  18.6066036  27.7687378
  76.1067123  17.7967319  27.4608212  76.1117630  19.2936916  27.2370434
   3.6903179  17.3349361  16.6208515   4.0798721  17.2169380  15.7545052
   4.4218268  17.6003056  17.1782608  77.1729660  60.9572678  30.2455921
  77.2456284  61.8344307  30.6218052  77.6894608  60.9983139  29.4407406
  38.4916611  28.6324768  67.0202332  37.7173119  28.5326595  66.4664688
  38.1606979  29.0308247  67.8252258  77.4242935  13.2533140  41.0921173
  77.0103989  12.4610090  40.7498093  78.3460312  13.1661243  40.8491707
  35.6054802  65.2836380  52.1008110  35.2060585  65.1888580  52.9655151
  35.9557495  64.4152298  51.9022903   3.3964329  71.2126465  20.9943142
   3.4919274  71.7655640  20.2188148   3.8330812  70.3937454  20.7598515
  83.8567429  58.0795822  67.1290207  84.4794846  58.1783104  66.4088211
  83.1917267  57.4802818  66.7901688  50.7508621  12.6870356  56.2245407
  50.6475143  11.8645773  56.7032013  51.6978264  12.8167582  56.1729355
  16.6608658   3.6889944  68.2462692  17.5048542   3.3952451  68.5892334
  16.8633118   4.4933968  67.7685776  33.7205925  61.1190376   3.1555045
  33.0412064  60.4631042   3.3117716  34.3214722  61.0221977   3.8942864
  84.8893433  44.2493210  72.4558029  85.4278259  44.2035179  73.2458496
  85.1792374  43.5073967  71.9250107  69.6607742  50.0644264  29.9429646
  69.0733261  50.0488968  29.1873913  69.0767365  50.1192207  30.6993523
  83.3948212  51.4747505  22.5182419  83.9188080  51.0732841  23.2114124
  82.9242401  50.7428627  22.1193371  51.6233635   1.5918576  67.4582291
  51.5613098   2.3658621  68.0179596  51.9476471   0.9025313  68.0377960
  68.7523270  26.8506680  28.1919727  69.4838715  26.9817753  28.7951984
  67.9795685  26.8189201  28.7559528   7.2074394  52.6667213  30.3472652
   6.9737139  53.0225258  31.2045918   6.4642682  52.1134224  30.1068745
  80.5846710  -0.1546193  34.1212997  80.9637909  -0.5712854  34.8951797
  80.4963531   0.7669482  34.3645020  84.9441528  35.6787224  10.2037487
  84.9152451  35.5747185  11.1548424  85.3694687  36.5254631  10.0682211
  17.3140869   7.6121020  55.4683113  17.1346989   6.6737580  55.4086304
  17.8955746   7.7922435  54.7296295  70.7724304  14.2601509  20.4965115
  71.3270340  14.0567493  19.7433319  70.8511734  15.2081604  20.6028633
  27.6815643  48.5784149  51.0489426  28.2838726  49.0946732  50.5132828
  28.2320309  47.9026337  51.4445915  38.9911194  71.0929184  68.1586685
  38.9553185  70.2965622  68.6885452  39.8263283  71.0345612  67.6947174
  73.8772812  59.5954475  45.2414360  73.8312912  60.3346786  45.8477783
  73.1721649  59.0117950  45.5214157  36.2398872  42.8286705  62.4338722
  36.8934212  43.1683197  61.8225098  35.4296150  42.7972450  61.9252472
  63.4934654  16.4881840  82.6333466  62.6886902  16.7768536  83.0637360
  63.2185478  15.7619009  82.0737381  30.0589504  66.1355286  79.6954498
  30.8840752  65.7896652  80.0357132  29.4553070  65.3935242  79.7312698
  74.2932739  23.7218227  66.5925217  73.6430054  24.0195904  65.9563446
  74.1067581  22.7900295  66.7074127  80.1314774  44.3806076  54.9703026
  80.7935715  43.7448158  55.2416649  80.4605026  45.2205086  55.2905273
  84.4358368  58.0006409  77.4710770  83.5172806  57.7920265  77.3008881
  84.4130859  58.8652382  77.8811874  16.1243649  65.6416397  49.0363960
  15.1949511  65.5083084  49.2225342  16.2204151  65.4040451  48.1141434
  69.7412796  16.8383598  22.9050617  70.1992950  16.7633095  22.0679111
  70.3796463  17.2438507  23.4918289   8.2482243   4.2964644  33.3890686
   9.1054583   4.6261992  33.1195183   8.2791348   3.3601654  33.1925468
  48.3275566  30.1856937  15.6006966  49.0194359  29.9705353  16.2261887
  48.7888870  30.5747414  14.8576984  66.0049438  26.5489216  76.0280151
  66.5694580  26.5335484  75.2551575  65.4205627  25.7996311  75.9127197
   6.5813870  55.4554939  63.1817093   7.2552495  55.8572464  63.7301025
   6.7352509  55.8177757  62.3091774  33.0022125  45.0729294   4.9213681
  33.5790291  44.4871941   5.4117007  33.3107414  45.9520226   5.1409979
   7.1842704  25.8806686  85.0516586   7.8751230  25.2816601  84.7685623
   6.9029245  25.5379963  85.8999863  84.5796738  36.6342163   2.3947051
  84.7091751  35.8539276   2.9337883  85.3261108  37.1959801   2.6032298
  41.2356186   2.2035666  47.8947868  41.7368164   2.4613268  47.1210976
  41.6460762   1.3892419  48.1857033  47.6664162  57.2522125  55.9753723
  47.5498123  56.3142662  55.8240662  48.3988914  57.3065643  56.5891762
   2.0071404   4.5058479  39.1376762   1.8014587   4.7465858  38.2343636
   2.9612525   4.4308281  39.1542320   6.9418058  39.7064934  54.5405350
   7.0246577  38.7764206  54.7510796   6.5208154  40.0896873  55.3100586
  22.8600597  15.4701252   9.6152401  23.4777164  15.4278202   8.8852119
  23.1396561  14.7710953  10.2063522  48.9945145  61.1861076   9.9956722
  49.0949821  61.2525940   9.0460835  49.4453697  61.9576073  10.3388214
  20.3119316   3.9290309  15.7060413  20.5948048   3.0649207  16.0052528
  21.0861301   4.3017120  15.2841902  16.4164581  60.3542404  67.9123306
  15.5203161  60.2208672  67.6035080  16.5473804  59.6710396  68.5698471
   9.4925318   2.7103064  80.5718765   8.6078329   2.4990585  80.2736893
   9.3647451   3.3739827  81.2496948  23.8865204  70.6547165  39.7459831
  24.6564217  70.2435226  40.1389313  23.7544403  71.4532700  40.2569580
  24.7903690  19.9715767   8.0232611  25.4440460  19.3345718   8.3116474
  24.3915672  19.5722313   7.2501431  85.1714096  10.7822542  87.9290161
  85.6242294  11.5546541  88.2675171  84.8260803  11.0597506  87.0804977
   2.2506151  29.0606709  55.5880165   2.8975434  29.0219803  56.2924423
   2.7618587  29.2614021  54.8040695  68.5124512  15.4645224  18.8901081
  69.4520874  15.4597940  18.7076454  68.3997345  14.8138037  19.5829945
  22.9854546  64.5278244  19.1488991  23.8454380  64.8528137  18.8823605
  22.5781746  65.2685013  19.5980663  11.2260494  62.5851097  54.8080368
  12.0602617  62.9698601  54.5391693  11.4666309  61.7546959  55.2188454
  70.3976440  21.7206249  86.2171631  71.2984161  21.6693096  85.8974457
  70.0492783  22.5209465  85.8242798  52.6614761  36.8491631  88.2023697
  52.9895287  37.7417984  88.0936584  53.0383949  36.3643837  87.4680939
  51.7818375  59.8888283  82.5147324  51.3219414  60.7272873  82.5561066
  52.1229477  59.7588348  83.3995972  71.4565353   6.5263128  62.4662094
  72.2087326   5.9934101  62.2084579  70.7159576   5.9201422  62.4477043
  80.6751480  35.2563629  14.5988493  80.6831665  36.1667099  14.8945484
  80.0641632  34.8176231  15.1908283  43.6850090  12.1376963  36.4877167
  43.0559044  12.0650120  37.2054710  44.4245491  12.6142979  36.8647652
  62.5151711  34.5934105  63.5727844  62.6803246  33.6525383  63.6336746
  61.6569214  34.7127495  63.9794731  49.4977493  13.9013586  48.9834328
  49.6725235  13.9165659  49.9244194  49.7970581  13.0380735  48.6981544
  20.3898315  36.4563751  23.6899071  19.8217201  36.8992043  24.3202896
  20.3606701  37.0110168  22.9103203  67.6735077  64.3664246  19.0275040
  68.0608749  63.4996300  18.9056625  66.7424698  64.1949692  19.1689072
  46.7456970  49.2756615  32.8460655  47.1474686  49.1194839  33.7007141
  46.2324409  48.4860573  32.6748085  85.1906433  40.4534416  48.8959236
  85.1278076  39.7020836  49.4856224  85.2663345  41.2093124  49.4783020
  19.8800297   5.3616819  35.3627968  19.8289700   4.7565804  34.6228790
  19.5287304   6.1849537  35.0236168  50.7198029  67.1049500  19.9984379
  51.6368256  66.8639832  19.8671627  50.3257027  67.0300446  19.1293545
  23.3752346  31.1692600  82.1224289  22.6381321  31.2557983  82.7269287
  23.8952465  30.4496956  82.4802628  76.5769196  19.1583729  76.8973694
  77.1518936  19.5388985  76.2334137  76.2976456  18.3232269  76.5221786
   5.7930260  40.8530807  77.2456818   6.1273975  39.9872246  77.4795914
   6.2627749  41.4551735  77.8227921  41.2684212  38.3075333  85.2106247
  40.5104980  37.8754082  85.6043930  41.9270020  38.3158913  85.9051971
  11.9929628  35.5553818  55.8290558  12.8531265  35.4971733  55.4131699
  11.3789043  35.2783203  55.1490555  17.6128311   1.7635261  63.1741371
  18.4340725   1.9406887  63.6328430  17.7521915   0.9156690  62.7523003
  33.0814743  39.7744293   8.9943600  32.9916229  40.2983894   9.7903643
  32.4154129  39.0923424   9.0801363  21.2329941  33.0220337  76.4312057
  20.7068520  33.1137352  75.6368484  20.7365532  32.4134445  76.9783783
  60.2315292  26.9570236   0.2029718  60.3576012  26.5034904   1.0364258
  59.4381294  26.5672340  -0.1641984  12.6748905  66.1598816  24.2636681
  12.9134550  65.7607956  23.4269772  12.2374258  65.4591217  24.7471886
   4.3169308  58.1040497  86.9913788   4.1988006  57.1742821  86.7969437
   3.4452424  58.4086342  87.2436066  67.4546127  58.4351845  70.5728836
  66.8360291  58.0325127  69.9634247  68.0213776  57.7151337  70.8495407
  18.6314812  10.0085382  65.9521637  18.4913597  10.6454906  66.6528015
  19.0186596  10.5173473  65.2398224  30.5100880   0.5260135  32.2252579
  30.1233253   0.2560857  33.0581970  31.4177227   0.7403145  32.4409103
  74.3245392  21.8053665  89.1342010  74.6930161  21.0634403  88.6546173
  73.3822632  21.6375580  89.1478653  71.7668839  51.5036850  65.6567841
  71.1825027  51.9365311  65.0343933  71.6290207  50.5688019  65.5044174
  30.6526089  43.4690552  72.4584198  31.4649620  43.3676033  71.9624100
  30.9171677  43.3738403  73.3733902  36.0332336  56.2621307  44.8787537
  35.1236115  55.9758568  44.9616241  35.9742813  57.1436729  44.5104561
   3.6255867  66.0276260   7.0115094   4.0785918  66.6058960   6.3978148
   4.3173990  65.4747925   7.3748245  45.1883240  26.9076729  81.8257523
  45.1335678  27.7405968  82.2942276  44.3553467  26.4737778  82.0104523
  34.2878990  52.8091431  85.2117462  34.0494881  51.8827858  85.1763763
  33.5058403  53.2449760  85.5503769  70.2570343  56.6174278  44.2108994
  69.5262680  56.2143364  43.7421417  70.5668716  57.3071098  43.6238976
  66.0115891  17.8725014  83.0384293  66.2757034  18.1384087  82.1576538
  65.2846069  17.2659531  82.8976059   5.7629905  20.6606388  24.3032322
   5.8209395  21.6006203  24.1320400   4.8439360  20.4446487  24.1453743
  21.6217690  44.2944412   7.9925733  21.6552296  44.0778542   7.0607996
  20.8943348  43.7739944   8.3334723  65.3325806   4.2330637  47.6926155
  65.6947479   4.8493700  48.3291931  64.5701904   4.6839375  47.3297005
  81.0490265  24.0686626  20.6268177  81.8222427  23.6785259  21.0344372
  81.2671814  24.9964867  20.5385914  69.0878525  69.0012131  77.6016235
  69.0273666  68.3324738  76.9194489  69.9866791  68.9340363  77.9238510
  36.2565880   2.7892699  53.2281723  37.1407166   2.4696567  53.4081650
  36.3825302   3.5025249  52.6023598  79.5727844   6.0885477  55.0994034
  79.1370010   6.2280731  54.2586555  78.8663177   5.8461523  55.6980476
  53.7742615  28.5072651  64.4167862  53.1848259  29.2584095  64.4844818
  53.2110748  27.7852325  64.1380005   2.3061197  57.4069672  73.6505280
   2.7524319  57.0377731  72.8884735   1.4979801  57.7793121  73.2976837
  43.4893036  45.6849937  75.4866562  43.5263939  46.5497437  75.8953857
  43.4200554  45.0755234  76.2214890  69.3001251  36.1361771  27.1555443
  68.8935394  36.9824753  27.3418102  69.5751877  36.1987457  26.2408562
  16.8065395  67.3536224  44.1611404  17.5676651  66.8350830  43.9003029
  16.0576878  66.7823105  43.9907036   3.1686089  23.6551228  65.5927658
   4.0517387  23.6598263  65.2235870   2.6003504  23.4449387  64.8517227
  11.4012403   6.2821217  72.1519775  11.7352619   7.1593399  72.3394623
  11.8068504   5.7244444  72.8158417  79.6039124  58.9443436  39.2087898
  80.4532471  58.7034721  39.5787239  78.9639969  58.5588455  39.8072357
  65.4463196  53.4819145  36.7967110  65.8074799  53.8717918  36.0006027
  66.0423279  52.7616959  37.0023537   1.4495392  41.2639809  11.5739346
   1.8390245  41.2150993  12.4469423   1.3588470  40.3511086  11.3006706
  25.4018402   6.6735525  37.3335190  24.6581745   6.0712013  37.3526878
  25.0091534   7.5418406  37.4235458  57.5504150  62.1641197  52.7504044
  57.9231415  61.9710770  53.6106606  57.6686554  61.3559380  52.2513123
  86.8483047  20.6523190  32.2250710  86.1547012  20.0414581  31.9760799
  86.8989563  21.2681084  31.4939938  28.7366028  35.7682037  76.8977356
  28.2610035  36.1253204  76.1477356  28.5251522  34.8346634  76.8929901
  29.6406288   0.9175180  80.0435486  29.4799385   0.8198979  80.9821014
  29.4052620   1.8256433  79.8534317  21.8030777  41.8390656  80.4969711
  22.2786331  42.6687317  80.4553909  21.2374954  41.9253807  81.2643661
  42.1924210  36.2779617  63.8546753  41.9313049  37.1000099  63.4396019
  42.0351257  36.4203949  64.7880554  22.5984726  18.0740929  10.3689919
  22.1153889  18.4810600   9.6497984  22.7050476  17.1617012  10.0998907
   3.4336829  52.5464973  18.0834579   3.3853533  51.6414032  18.3911972
   2.8586600  52.5704422  17.3185997  30.1750946  26.2689018  84.1776199
  30.9596710  26.1819477  84.7190170  29.4485645  26.1241016  84.7837677
  12.7861595   6.3496642  18.1318779  11.9919815   6.6395555  17.6830158
  12.5341034   6.2956371  19.0537128  42.2776146   7.8543115  80.8915863
  42.6079941   7.5810418  81.7473907  42.1776085   7.0380902  80.4016724
  30.5280247  66.0510788   2.0893517  31.3632011  66.4030609   2.3972776
  30.5231476  66.2333679   1.1496818  72.2910919  47.5813293  67.8638077
  72.2120209  46.6976967  68.2232132  73.2297516  47.7671013  67.8891678
   0.8004333   7.9234700  38.6532135   1.2461172   7.8012528  37.8149643
   0.2576745   7.1412616  38.7521820  66.2994690   0.8867856  29.4037609
  65.6059952   1.3106346  28.8981133  66.2916794   1.3393358  30.2471886
  79.7972260  63.0543633  63.4321785  79.6939240  62.2010384  63.0109978
  79.0001526  63.1635361  63.9508133  16.2735939  35.1196823  69.9110489
  15.3176327  35.0936737  69.8698883  16.4660950  35.5096855  70.7637329
  65.5192642  18.2912903  45.3094940  65.0415878  19.0936966  45.5197334
  64.8453140  17.6847496  45.0026970  51.3077087  16.5071545   5.5991364
  51.5130539  15.5935831   5.7977643  51.4492188  16.5847778   4.6556420
  76.1848755  65.1191101  14.6420870  76.7818756  64.5904236  15.1715355
  75.8467636  64.5118561  13.9839430  83.0882797  63.6385918  74.7107162
  83.0351791  64.1979980  73.9358063  82.2272186  63.7161522  75.1215591
  22.4290237  25.0755043  71.1713791  21.7961636  25.2777519  70.4823151
  22.3138924  25.7745781  71.8150177  23.6114292  66.8879852   3.9898329
  24.1484299  66.0960693   4.0168595  23.5057259  67.0739670   3.0568433
  81.4926300  54.3211021  13.5460491  81.6246643  54.0377159  14.4507542
  80.5531235  54.4934006  13.4837255  37.4987106  21.3885612  73.7680817
  37.0544052  22.1303139  74.1787262  38.4121094  21.4756413  74.0407639
  86.5644684  70.0496140  69.2831116  87.1718063  70.7563629  69.0643005
  85.7369766  70.4936676  69.4683380  54.9652252  29.2198906  31.3611259
  54.3025398  28.7936516  30.8176174  54.6546021  30.1203575  31.4554977
  15.8150978  17.0664196   3.3049676  15.3767509  17.2353268   2.4709687
  15.8076591  17.9112625   3.7548742  33.2618523  66.3769531  50.6535263
  33.2350121  66.2047043  49.7123337  34.1528168  66.1437836  50.9143753
  81.6968002  37.5483284  61.2535172  81.2395477  37.8854294  62.0239182
  82.3156128  38.2403946  61.0203896  35.6149063   6.3915458  59.7332039
  35.2017975   5.6993113  59.2170792  35.4325562   6.1537538  60.6422882
  72.9408493  34.8626823  16.7955284  72.7736130  34.6739044  17.7189064
  72.1808090  34.5051041  16.3364887  84.5111237   0.6793096  23.6870251
  84.0362625   1.3496870  24.1782818  85.4196243   0.9807536  23.6871643
  68.2504501  14.8066425  88.0929184  67.9375458  14.0077934  88.5173721
  68.6418304  14.5047884  87.2732010  39.8287697  16.6033096  85.1499481
  39.9354057  17.1538486  84.3742065  38.9281311  16.2838421  85.0949554
  65.5581665  62.0873108  77.3399582  66.2980957  61.4870872  77.2479401
  65.8762283  62.9162102  76.9821854  35.2257767  69.9522629   3.9171255
  35.4429092  70.4607239   4.6985049  35.8409843  70.2609024   3.2519240
  26.3780289  38.9705925  88.2180710  26.4974213  38.0615540  88.4930725
  27.1387596  39.4302101  88.5734253  76.4254303  11.4958277  77.0604782
  76.7917099  10.6155291  76.9759598  76.5090179  11.8750429  76.1855850
  44.3602104  41.8975258  10.6271257  45.2600327  42.0212059  10.9292192
  44.4501457  41.4708176   9.7750320  33.8920250  42.0825806   7.5637784
  33.9474335  42.7487144   8.2489262  33.6992264  41.2712135   8.0336084
  15.0237837  36.6627121   5.7347722  14.9107637  36.4829941   6.6681309
  14.1547747  36.9299469   5.4353704  21.8742199  31.2972755  56.6858253
  21.0072422  31.1045475  56.3288383  22.0291405  32.2137260  56.4570274
  23.8848801  49.5414886  28.4139023  23.6345253  49.8140640  29.2966595
  23.7963886  50.3339729  27.8843975  42.7582893  17.9792385   6.6414943
  42.3470192  17.8617077   7.4978094  43.1599007  17.1316586   6.4503198
  83.7789688  48.4051628  86.4883957  83.1621933  48.7268906  85.8308945
  84.6277008  48.4153671  86.0459213  86.5397415  40.0054665  42.0817299
  87.1285934  40.0978355  42.8306961  86.3255157  40.9046631  41.8331642
   2.7413380   0.3921679  28.9762917   2.5079279   0.5474541  28.0610676
   2.8920937   1.2660520  29.3366127   3.1579170  40.4696083  46.9194984
   4.0712051  40.5880585  46.6585312   2.8701997  41.3423958  47.1872559
  16.8571396  16.0944557  86.8842087  17.6480694  16.3413258  86.4049225
  16.4095325  16.9239235  87.0511322  26.0299721  10.7406645  14.6398697
  25.7325153   9.8903313  14.9634209  26.2639732  11.2287989  15.4293003
   4.2710619  56.1773071  61.2334938   4.3353848  55.2382545  61.4074974
   3.6300581  56.2464371  60.5259857  26.2143955  28.9277534  65.4532394
  26.5018139  28.6461582  64.5847244  25.5898590  29.6326351  65.2819901
  28.9501381  26.9681816  73.3870544  29.0933151  27.8364906  73.0105286
  28.3706989  27.1231709  74.1330185  66.2573242  70.6782532   2.1525593
  65.5420990  70.7733688   1.5235648  66.8609238  71.3895721   1.9382600
  65.1710968  22.3371830  69.3091049  64.5803146  21.6321602  69.5739746
  64.7863235  22.6820736  68.5033569  62.1260834  67.3896790  10.6762209
  62.5397987  66.9312744   9.9448290  62.2999535  68.3157349  10.5076160
  49.4463120  17.2475414  22.3640499  49.9593544  16.4697056  22.5831127
  49.9534225  17.9770718  22.7202244  68.5979385  68.0422440   9.0953503
  68.2807846  68.2265091   8.2112179  69.4492035  67.6252213   8.9623775
   3.5153944  18.1393585   2.4476523   4.1423516  18.6019917   3.0036442
   3.4915152  17.2504387   2.8018916  73.6788406  30.8449497  58.5339928
  74.0370560  31.4710255  57.9047546  72.9541855  30.4263763  58.0693321
  36.0178185  56.4401550  13.5468502  36.7405624  56.3922043  14.1726093
  35.3027763  55.9647980  13.9699173  64.3866806  20.6370144  38.0290565
  63.5127449  20.6401882  38.4195099  64.9353256  21.0945015  38.6661797
  40.8096046  41.5305443  27.3711739  39.8736610  41.7282410  27.4052238
  41.1030426  41.9032822  26.5397949   3.9860013  53.1626778  44.0004578
   4.5323815  52.5126495  43.5586853   4.3679528  54.0047112  43.7528267
  38.4668427  44.5816917  61.2792397  39.2902184  44.1275711  61.4583092
  38.7101364  45.5057983  61.2238121  11.2286682  61.8047981  83.2428436
  10.3886194  61.3700867  83.0959625  11.6639156  61.7790222  82.3907166
   4.9583569  55.8802299  31.1958485   5.4496260  56.6864204  31.0379047
   5.0012703  55.4069214  30.3649616   0.2478611  32.8225288  23.7895432
   0.7831531  32.7757988  24.5816975  -0.6520683  32.7322350  24.1029224
  28.7598610   6.1360717  16.8091984  29.1530476   5.3783889  17.2422733
  28.5866795   5.8383207  15.9161234  41.3522339  50.4898567   1.7941794
  41.0074997  49.8201714   1.2034918  41.0715523  51.3187447   1.4063718
  56.5279083  35.7257767  64.7911148  56.9518127  36.3346634  64.1863098
  57.2114487  35.5000610  65.4220352  74.8463440  28.7423534  48.8756828
  75.2518845  28.5919533  48.0217819  73.9773865  28.3479462  48.8009491
  65.6327286  61.7138252  64.1922836  66.5668030  61.5349197  64.0839310
  65.4041824  62.2583160  63.4389420   5.2264676  58.3719406  79.7686844
   5.3334146  58.4046249  78.8180389   4.6246009  57.6425743  79.9170609
  68.5951538  63.0186348  86.6026688  67.9435501  62.3291168  86.4753418
  69.4139481  62.6354408  86.2880859   7.3801770  67.2200317  63.2342911
   7.5895948  67.8486176  63.9251289   7.0288367  66.4609299  63.6996422
  39.3719254  33.6309853  70.2877426  39.9985161  34.2922707  69.9939499
  39.8229256  32.7974014  70.1536865  85.9702225  43.5370369   8.8409824
  86.4153748  43.5262604   7.9936609  85.0395966  43.4843292   8.6233034
   6.4199309  59.2223015  85.1404495   5.5787425  59.0998039  85.5804825
   6.8294749  58.3573952  85.1615753  55.6974831  28.8878441  70.9450226
  55.4163857  28.2649441  71.6152573  56.0815735  29.6129303  71.4379349
  71.0431900  40.7088928  12.6067944  70.7131958  41.4823151  12.1494675
  71.6583557  41.0566978  13.2524223  52.5045624   1.1665487  87.3312302
  51.8083611   1.5076787  86.7698288  52.0541840   0.8869741  88.1282425
   9.8424864  18.7481785   1.4254620   9.8769064  17.7961426   1.3323126
   8.9364424  18.9319592   1.6735351  10.4849291  71.8461914   6.7742171
  10.9159756  71.0561142   6.4483171   9.5523329  71.6880188   6.6276655
  20.8490276   3.4183729  59.3663902  21.3939190   3.4445591  58.5798531
  19.9549274   3.5261648  59.0420532  79.0511093   2.9486325  23.3763580
  79.8001862   2.8386841  22.7906837  79.2545242   2.3968127  24.1315727
  32.3547325  64.8990021  43.1672287  32.1967621  65.7778244  42.8223495
  31.5081902  64.4579697  43.0958862  73.6251602  30.5814590  10.6940956
  72.8339233  31.0861244  10.8825073  73.3033829  29.7668629  10.3079252
  56.5089302  48.2377052  20.4997730  56.6926918  49.1572418  20.3076267
  56.5396461  48.1818161  21.4548473  22.0531635  16.3234749  17.2281113
  22.5950012  15.5366659  17.1682987  21.7851753  16.3605061  18.1462841
  39.2309875  66.2215652   3.1280780  38.4242630  66.4742050   3.5770800
  39.9158211  66.3273010   3.7884238  27.9332218  51.1020012  72.8613815
  27.7216473  51.6713638  73.6011734  28.7619362  51.4436150  72.5255737
  21.6923313  41.5561714  38.0061722  21.6807346  40.5991058  38.0174332
  21.0050602  41.8112869  38.6216431  12.2212687  57.6980705  20.5016537
  12.0703583  56.8337708  20.1189728  12.8362160  58.1212425  19.9024906
   1.5236398  56.7462463  79.2095718   1.0261160  56.1523209  78.6474762
   1.8645827  57.4119682  78.6122437  80.5855408  55.8836021  41.5591621
  80.9074402  54.9851913  41.6331558  81.3459244  56.4280357  41.7632217
  10.2710257  31.7675629  73.5015488  10.1711063  32.7120399  73.3823242
  11.2168608  31.6221294  73.4796982  38.2987976  25.4043713  73.1526413
  38.7186966  24.8844337  73.8378983  38.1588364  24.7865314  72.4350586
  85.6358871   7.4096665  47.1981087  86.4568100   7.0027156  46.9211311
  85.8042755   7.7033076  48.0934601  77.0563812  55.7969017  76.4305115
  77.8028946  56.3351479  76.6936569  76.4187088  56.4230194  76.0876083
  85.8195801  52.1726227  82.0117111  86.0158768  53.0689392  81.7390976
  85.3514481  51.7931709  81.2680054  47.2570152  34.3305130  78.9074478
  47.5928993  34.2952156  79.8030930  46.7207909  35.1230621  78.8838043
  71.4580231   6.4914923   3.1637621  71.0478210   6.4387279   4.0270019
  71.9586487   7.3070407   3.1859188  17.1290703  19.2131824  14.9511108
  17.1960850  19.8033524  14.2004833  17.2776623  18.3415489  14.5844946
  76.4863281  11.4427109  15.7632017  77.0796356  12.1762438  15.9249067
  77.0646362  10.7058496  15.5661554   4.6553974  27.3895073  76.7084808
   5.1582360  27.0295238  77.4391022   5.0870113  27.0436745  75.9272385
  45.5638046  21.7193604   8.1651449  45.2887878  20.8679237   8.5052233
  46.4485359  21.8405247   8.5098257  69.1219330  28.1365910  53.5487137
  68.5506439  27.3754368  53.4461861  69.8285141  27.9922466  52.9193192
  40.1928101  62.1069984  36.0434990  40.9749107  61.7417831  35.6297760
  40.0615692  61.5691376  36.8243408  39.2456512  50.2353287  67.9513626
  39.0209503  50.0424957  68.8616104  38.5874748  49.7670288  67.4378128
  54.9201241  27.2252331  25.4902878  54.5224876  28.0923271  25.5694542
  54.8388329  26.8437462  26.3644104  81.8284912  37.0464554  26.0060482
  81.4038086  36.9702034  25.1516113  81.2617722  36.5542107  26.5999775
  66.2209702  52.1172218  85.1736145  66.5658798  52.5281448  85.9663391
  65.3545074  52.5075569  85.0590668  39.7480240  44.3164978  54.4335747
  39.6802101  43.7433128  53.6699715  40.1430817  45.1201477  54.0954819
  58.5496635  41.7314034  44.1197166  58.8258476  41.0967598  43.4585190
  58.5658913  42.5735130  43.6649475   5.8792353  66.9951172  59.6716461
   5.7766042  67.8298340  59.2145424   6.7495270  67.0440521  60.0671577
  31.4226589  46.1521225  16.9796124  31.5676193  47.0315247  17.3287067
  31.4939537  45.5771904  17.7415867  20.9261322  38.3143196  83.9969177
  21.8555450  38.5344734  84.0598068  20.6464119  38.1945686  84.9044647
  36.8722229  19.4335518   0.0918601  36.4953537  19.0357075   0.8766667
  37.4970856  18.7836285  -0.2296700   3.6596372  46.8889122  61.5295410
   4.0069766  46.2274818  60.9311295   4.2281575  46.8388405  62.2979889
  10.7083521  55.6644363   6.4857292   9.8941612  55.9536324   6.8976617
  10.6338243  55.9561081   5.5771022  73.6678238  22.2395554   9.8495741
  73.4387054  21.8798828  10.7065277  73.0217667  22.9295826   9.6989193
   6.3374505  28.5007553  66.0515137   5.9016557  27.8049240  65.5594406
   5.6213770  29.0165596  66.4222107   3.1652813  60.2043953  64.7596741
   3.4998205  59.3272820  64.5726318   3.0583856  60.6086235  63.8986244
  55.1474838  53.0772781  31.5138454  54.4051437  52.4732285  31.5307522
  55.6106148  52.9106331  32.3348045  68.0983734  54.7919426  16.8087311
  68.9946976  54.8988266  17.1271858  67.8536377  55.6594048  16.4864845
  33.9971161  25.3505802  82.7092819  33.5188408  25.3976440  81.8814774
  34.5042419  24.5411339  82.6472168  56.6088295  57.8735924  79.8546448
  56.2306900  58.7503090  79.9225464  57.5034561  58.0216942  79.5481491
  48.0651131  59.6508179  83.7042236  47.9951134  60.2211380  84.4697723
  48.5450134  60.1718712  83.0604630  82.1484222  57.6960449  33.4671021
  81.3439484  57.7683563  33.9807472  82.0813141  58.3955574  32.8171730
  59.1179924  62.4120369  38.9799118  58.2075119  62.1698914  39.1491013
  59.3477707  62.9984703  39.7006950  82.5107193  40.9734383  81.9633484
  82.5004959  41.7031364  82.5827560  81.6222229  40.6188660  81.9962540
  65.0419617  50.2084846  41.8686028  64.2666321  49.6746635  42.0421638
  64.7432098  51.1101952  41.9864922  72.8290863   7.2825360  75.7721786
  72.7778244   8.2018938  75.5106735  73.1803970   6.8339705  75.0030212
   7.1554317  46.6503677  50.0651894   6.2878704  46.8309135  49.7032852
   7.0851407  45.7667046  50.4263420  24.5759430  24.9971256  43.3464088
  24.2558994  25.3148766  42.5021095  25.4888706  24.7604198  43.1828041
  73.4947815  47.1886292  30.2956753  73.3818436  46.9522858  31.2163372
  72.9997940  48.0016594  30.1946526  71.1524658  48.9294510  58.3788147
  72.0111923  48.5225296  58.2637749  71.1978989  49.7345505  57.8630867
  14.5804148   3.6258066  22.2386017  15.4499035   3.3010652  22.0045834
  14.0996361   3.6408715  21.4110413  10.5379601  39.0095291  43.9841499
  10.8561211  39.5857506  43.2891884  11.2865753  38.4510574  44.1937141
  16.5997734  51.5604439  73.2636566  17.4427395  51.2352295  72.9476242
  16.2308083  52.0337029  72.5179214  18.5740528  28.2683964   5.0449481
  18.2859154  28.6977711   5.8504572  19.3638134  28.7447853   4.7888961
  27.2572823  70.9877472  15.6124058  27.6320419  70.1174240  15.4770660
  26.4113693  70.9564056  15.1655493  73.0783463  61.0806046  64.5251617
  73.8961105  60.5837212  64.5496368  72.9789200  61.4221420  65.4138107
  77.8912964   5.0556455  24.4318104  78.3210678   4.4912009  23.7892113
  78.1388626   5.9436512  24.1741447  19.3019600  43.3676834   9.3433380
  18.8460369  44.2089844   9.3673449  18.7901764  42.8013458   9.9208946
  38.3747253  18.6654053  66.1223068  38.0776405  17.7682953  65.9701004
  38.5074959  19.0257511  65.2455215  34.7499733  55.5519562  76.2314453
  33.9809265  56.1042061  76.0906677  35.3497009  55.7919044  75.5250549
   9.5207748  67.3236008   4.7972145   9.7346001  68.1637497   4.3914309
   9.3727436  66.7320328   4.0593987  69.7568054  58.8143883  19.0637150
  69.4785919  58.3668442  19.8627987  68.9430161  58.9873581  18.5903587
   7.2059698  47.3769798  19.1504173   6.8866253  47.8730927  18.3966789
   7.8672156  47.9438095  19.5475159  62.4448509  50.1852875  73.1108704
  61.8516655  50.7811089  73.5684280  61.8720665  49.6576767  72.5542984
  45.6280708  46.1862144  37.3938484  46.4099731  45.7502403  37.0550499
  45.8837204  46.4951363  38.2630119  41.3949738   6.5211139  36.8181725
  41.0013008   6.9750633  37.5632744  40.7225838   6.5501599  36.1375275
  78.1429443  21.2710152  66.9249725  78.9415970  20.9178276  67.3169556
  77.8813705  20.6133862  66.2805099   7.7784104  48.1497345  36.6827965
   7.4942293  48.1225967  35.7691574   8.3579903  47.3936577  36.7759094
  52.1439171  35.2086525  10.7808132  52.9576416  35.6443634  10.5273523
  52.0690231  35.3695183  11.7214212  31.5570831  20.7125835  81.8996582
  32.4646378  20.4110966  81.9406967  31.6229439  21.6406822  81.6748810
  70.6057358  30.0784893  20.7187424  71.1731186  30.0782413  19.9478283
  71.0954285  30.5723934  21.3763809  17.1097298   9.7444048  50.3995285
  17.1628113  10.2457037  49.5858231  17.5491638  10.2939291  51.0484886
  40.5505486   8.2196932  87.4678421  41.1029205   8.8522110  87.0084534
  40.0242310   8.7508640  88.0653992  84.8643723  43.8511086  49.6668968
  84.5231018  43.3901482  50.4332390  85.7094574  44.1980400  49.9527550
  80.9555435   9.9483328  87.9407349  80.8228378   9.2385406  88.5690765
  81.3734818  10.6433220  88.4492111  61.8302574  49.0404167  10.1899433
  62.4111519  48.5589676  10.7790127  60.9483833  48.7957039  10.4703779
  39.6172256  58.0668907  87.5848923  39.9798393  57.3138390  88.0514221
  40.3811226  58.5938110  87.3502579  31.3411274  49.1666718   7.3628559
  31.6586246  48.3467751   7.7412758  30.8855610  49.6023445   8.0831881
  76.7009506  46.3456306   1.6572303  75.8417587  45.9806290   1.8688836
  76.5300522  47.2692909   1.4731734  55.0275955  26.5790634  28.0194435
  55.8113594  26.7435150  28.5437527  54.3391380  27.0831509  28.4532146
  46.3587456  30.1917229  69.4108047  46.3330765  29.4796791  68.7716141
  47.1887512  30.6369343  69.2401962  24.6244392  38.2291489  63.0784607
  25.4694309  38.3842926  62.6563797  24.3985538  37.3303261  62.8390350
  73.1687088  38.2862625  71.7111816  72.6528778  38.4763794  70.9275970
  72.9677887  39.0051155  72.3104401  86.4544220  23.4770451  55.4570465
  87.2807999  23.9600525  55.4630890  85.9013519  23.9563618  54.8401222
  16.5649166  15.6961508  27.1532345  17.3593922  15.6325264  26.6231480
  16.6632309  15.0117989  27.8152218  72.2828903  49.6521835  30.2322521
  71.3494110  49.7174988  30.0308056  72.3696976  50.0518532  31.0976791
   7.5690961  10.9374943  87.2241211   7.4885435  10.9470501  86.2703629
   7.1581678  11.7542753  87.5073853   1.6299286  42.3008194  39.3827896
   1.4771852  42.6707954  38.5132942   1.0088366  42.7577286  39.9499855
  86.5129089  29.9970284  37.4186821  86.8522186  29.1394157  37.6748123
  85.9924240  29.8241329  36.6341858  11.4338198   2.2235434  65.4908752
  12.3789129   2.0872827  65.4240723  11.1678696   1.6931803  66.2420197
  81.0467377  67.8636093  13.7265825  81.9343796  68.1165619  13.4729195
  81.0458298  66.9078445  13.6741161  60.6867752  45.3467560  79.9295044
  61.1751442  46.0993462  80.2631683  61.1226120  44.5876083  80.3167725
  60.5113297  24.9398899   5.0889578  59.7915497  24.6693802   4.5188918
  61.2934875  24.5710564   4.6785679  65.7382202  67.1289062   7.1153479
  66.1398315  66.9010391   7.9538093  65.8807602  68.0715637   7.0298343
  78.8503265  47.3799210  65.9228516  78.0439835  46.9003601  65.7329559
  78.5981979  48.0174103  66.5908813  41.8917580  52.1497536  14.1526728
  42.1020584  51.6713562  14.9546337  41.8187218  51.4714127  13.4812946
  71.2921295  66.2510300  47.0597343  70.6865540  65.7134018  46.5493736
  70.7891617  67.0351639  47.2797279   7.3280964  22.1385803  79.5500259
   6.7474065  22.5692291  80.1773758   6.8069172  21.4173622  79.1972504
  60.5581474   3.6346159  75.0384140  60.6581879   3.9105425  74.1273193
  59.9935303   4.3010879  75.4298935  32.1674652  59.7109070   6.0858583
  33.1057663  59.5447311   6.1764531  32.0516548  60.6077385   6.3997269
  50.3705711  44.8216095  26.5690994  50.8653870  45.6409874  26.5652733
  49.5527763  45.0335693  26.1190796   0.8874898  16.4263306  80.3631668
   0.3640417  15.6700735  80.0980148   1.0889622  16.2667465  81.2852173
  66.9312210   4.9624710  72.4752426  67.6380386   5.0976996  73.1063919
  67.2121811   5.4404259  71.6949539  40.5956345  52.2210693   4.4383240
  41.0860405  51.4556580   4.7381196  40.7092285  52.2211113   3.4878881
   5.9661345  17.0443916  48.4722633   6.8746390  17.3444881  48.5004311
   5.4602752  17.8310032  48.2683487  53.7341576  70.0026550   6.5796156
  53.5895920  69.6353912   5.7075768  54.1623802  69.2993698   7.0677190
  62.4377823  63.5635948  51.6262169  61.9758911  62.7617912  51.8711586
  62.9318962  63.3252602  50.8418198  71.3406448  44.8127556  46.0255775
  70.7957611  44.4979591  45.3043098  70.7451935  44.8576736  46.7736740
  29.5780182  66.6580811  28.5852547  29.3953323  66.8525772  29.5045090
  29.4479733  67.4919357  28.1335850  43.6517487  67.8430252  48.2436790
  43.2176170  67.0032883  48.3940468  43.1806717  68.4598846  48.8038559
   4.6841178  42.5786972  86.9925919   4.0505848  42.7547455  87.6882019
   4.3599567  41.7839279  86.5689240  34.9450722   8.2255793  73.9056625
  34.1183357   8.6439943  73.6655350  35.5974350   8.9216480  73.8272705
  79.9003830  13.7711039  37.5551453  79.0600739  13.9569101  37.1361275
  79.6837921  13.1756449  38.2726059  38.9099350  66.8023834  37.0421181
  39.7500114  67.2491226  36.9375916  38.9298286  66.0997620  36.3923798
  64.4791412  20.7714500  41.5966225  64.2793655  20.8771763  42.5267525
  64.9166489  19.9219284  41.5406723  65.0553436  44.0328598  68.3216705
  65.7621841  43.8804359  68.9488678  65.4339981  44.6271248  67.6738281
  42.9515610  61.6889610  20.5422649  42.0704002  61.4198799  20.2826805
  42.8161697  62.2421417  21.3116093  54.2148628  28.4741764  55.4907646
  54.9447479  27.8764877  55.3286819  54.4922104  28.9913864  56.2469406
  21.5479736  53.8333015  79.2585220  22.4907017  53.9592896  79.1506958
  21.4725876  53.0937271  79.8614960  57.7440376  20.6169109  66.6116867
  58.6416054  20.9227581  66.4810486  57.7799530  19.6798725  66.4195938
  63.4436188  15.8937483  54.0395126  63.4401245  16.7277870  54.5091934
  62.8187027  16.0184727  53.3252602  16.5856075  34.0405273   5.3914838
  16.1266270  34.8546028   5.1844802  16.0942326  33.3635559   4.9261966
  18.0999088  65.2111130  34.7391434  17.2606506  65.6255951  34.5389481
  18.3487549  64.7696457  33.9271011  59.0332909  48.8418045  10.8986502
  58.6822052  48.7586098  10.0120564  58.4188271  48.3532982  11.4463997
  77.9554138   0.8628500  25.2248688  77.9674835   0.2703734  24.4731655
  77.2372055   0.5426883  25.7706757  75.2134247  55.1502571  21.7903900
  75.4727859  55.9953957  22.1574097  74.3692780  54.9602776  22.1997204
  49.7531967   2.1801386  26.4731636  50.6686554   1.9767696  26.6650085
  49.3799515   2.4258313  27.3196602  29.0356293  62.1142921  70.4420090
  28.6271553  61.6814842  71.1917191  28.7033482  63.0114288  70.4730911
  70.0509415  36.1784668  41.5889702  70.3120422  35.3954163  41.1043205
  69.1144180  36.0605888  41.7479286  38.6667824  15.7569761  12.8902283
  39.0333595  16.3760872  13.5215416  38.0154343  15.2637768  13.3889551
  45.5768318  46.3976784  48.1057472  45.2530708  47.2714310  48.3247566
  44.8039169  45.9271278  47.7936287  42.9044991  64.8470688  19.2419815
  43.2758408  64.9490433  20.1183033  43.3180618  64.0556564  18.8972130
  70.3337555  45.6260910  19.1550655  71.1058884  45.8405037  19.6785889
  69.8406830  46.4452248  19.1088848  57.6442490  13.9508400  17.6878376
  58.1862679  13.2067499  17.4255753  56.9036026  13.9330673  17.0817375
   1.8899482  43.9070435  67.3452530   1.9779676  44.7382545  66.8787994
   1.1971982  44.0645752  67.9867401  61.1386261   0.4502351  56.4924164
  61.7293777   0.4264194  55.7396355  60.7212906   1.3102027  56.4422531
  68.1451874  60.6095161  43.8147469  67.3551941  60.1755257  43.4925652
  67.8651047  61.5042076  44.0079155  55.7240295  28.8505230  10.1450958
  55.6689491  29.6792164  10.6209793  56.3741341  29.0100040   9.4608688
  75.2848434  67.1447144   5.7263761  75.8173599  67.1205978   4.9313412
  75.9216843  67.1718292   6.4404721  12.7374458   4.4813237  56.9867859
  12.7391882   4.7751846  57.8977623  13.3013029   3.7078340  56.9835548
  77.0363159  30.4262123  11.7634401  77.6168747  31.1594028  11.5594378
  77.6241608  29.7289238  12.0540686  46.2152443  45.4283867  64.8594742
  46.5581131  45.0438766  64.0527344  46.9853287  45.7887268  65.2992020
  72.8995972  36.5481415  51.4030876  72.4374695  36.0552368  50.7250633
  73.4422073  37.1705475  50.9189186  -0.0538512  44.2093124  23.9151268
   0.7528657  43.7602043  24.1675987  -0.3240736  44.6782341  24.7046337
  38.4614983  29.1383667  73.6173401  38.5687485  28.5133305  72.9003601
  37.5138321  29.2360649  73.7101669  58.9620857  56.2971878  49.4277000
  59.4734802  55.5177231  49.2105637  58.0557060  56.0463028  49.2494621
  82.5824890  19.0930500  87.4000320  83.1760178  18.4606838  86.9949875
  82.9085617  19.9458256  87.1124878  58.3025780  36.8745880  15.2599640
  58.3242226  35.9458275  15.0293894  57.5963745  36.9455338  15.9022045
  34.1772461   9.3210592  76.8183899  33.8089027   9.7217617  77.6057892
  35.0891876   9.6116476  76.8059540   9.5024271  61.2304573  64.2213364
   8.5568523  61.1135902  64.1293488   9.5984135  61.8387566  64.9541321
   2.7465374  27.7534447  49.5003586   2.3535426  26.8821716  49.5520401
   2.2483549  28.2784443  50.1267891  29.2772331  14.7768879  85.4676895
  29.1476135  15.5352936  84.8982620  29.9562302  14.2626858  85.0308990
  86.1990433  67.2414627  24.3931007  85.6915741  67.6415710  23.6869698
  86.9149780  67.8566666  24.5518456  29.3373508  48.2450752  66.6786728
  29.5836716  48.7625999  65.9120407  28.4078274  48.4342842  66.8067932
  71.4875565  33.9604759  52.6720963  72.2759476  34.4751053  52.8448105
  71.5540848  33.2134552  53.2668800   1.9566654   9.3529634  45.4164696
   1.4399623   8.6014776  45.7071915   2.5079269   9.5698719  46.1683311
   3.7858803  48.6475258  51.8467751   3.9963841  48.2820663  50.9874954
   2.9595528  49.1119461  51.7136269  74.6690903   0.7106396  24.1269493
  73.9870758   1.3404138  24.3603477  75.0251541   0.4209098  24.9668961
  63.6313133  19.7745628   4.5767331  63.6755676  19.1990910   3.8131189
  62.7448196  20.1349049   4.5540304   1.6748878  46.3247223  10.7062664
   2.0485976  45.5236588  11.0735102   1.1731116  46.7069054  11.4262571
  58.3068581   4.6290278  76.5249786  58.6959877   5.3906531  76.9547806
  58.4740372   3.9032681  77.1262741  80.9769821  62.5292702   5.6310377
  81.8613052  62.4218979   5.2807899  80.9974670  63.3755188   6.0778937
  72.6092224  44.6094513  32.4618797  73.1643829  44.2678261  33.1628265
  71.8095245  44.8917427  32.9057579  73.6713181  59.0085068  14.6938648
  73.9652176  58.5295639  15.4687624  74.2315750  58.6876450  13.9871931
  85.5333557  70.2433319  88.7422028  84.9549637  70.9796524  88.5433884
  85.5673447  70.2168732  89.6984329  62.4244576  31.0278034  21.9411697
  61.6986542  31.2450428  22.5261879  63.1352806  30.7685108  22.5274544
  26.8742447  58.8620605  44.0732765  26.2955952  59.2193489  43.3996735
  26.9928341  59.5815392  44.6933746  73.6098022  48.2153091  49.9958572
  72.7259369  48.5206909  50.2002106  73.4796448  47.3553810  49.5960884
  58.2751846  43.5105858  36.7205009  59.0805130  43.5306816  36.2035141
  57.8970909  44.3828354  36.6088829  43.8598747  70.2508316  59.3079491
  43.5335083  70.0755920  58.4253349  44.4001312  69.4894104  59.5191078
  37.4220238  70.2536621  86.7564316  36.7382660  70.8762360  86.5092316
  37.9224510  70.7049332  87.4362488   4.2659035  46.8310776   6.7797914
   4.2683129  46.0439644   7.3244715   4.7665110  47.4726448   7.2837925
   1.4126351  54.0813828  45.0220337   2.2152433  54.0284882  44.5031357
   0.7074369  53.9700584  44.3844299  22.1907864  62.5747528  59.2329330
  21.7343483  62.6538658  60.0705719  22.9712944  63.1197395  59.3330650
  80.3665695  52.7502174   5.6445770  81.2581253  52.4678841   5.8486819
  80.2779770  53.5977058   6.0806398  74.2566681  52.0373116  24.0698338
  74.6341629  51.7916336  23.2252197  74.7611084  52.8032341  24.3439407
  71.9913864   9.5004234  80.0529022  71.8802338  10.3689451  80.4396133
  72.8297577   9.1910343  80.3958893  36.7887726  55.5783844  18.8618698
  36.4657974  56.3350716  19.3510971  36.3282890  55.6207161  18.0237789
  58.5441284  23.2838383  35.1722641  58.7170334  22.3434315  35.1278801
  57.6982574  23.3926182  34.7376366  85.1984253  29.5067101  35.0698586
  85.3225021  30.1635723  34.3847542  84.6497803  28.8364372  34.6624870
  69.6676559  34.4274406  20.0924759  69.3051682  33.7828560  20.7002144
  69.5525970  34.0327950  19.2280407  54.4839134  68.0654831  80.6438522
  54.4603004  67.1192017  80.7860641  54.5875435  68.1629181  79.6972809
   4.3507471   3.6593277  51.7651367   4.1485324   2.7351520  51.9108772
   5.2387180   3.7668555  52.1059837  78.8906937  45.2566681  61.9594154
  79.4262009  45.7628441  61.3484726  79.5227585  44.7474327  62.4667740
  80.3232117   7.4912682  39.6243553  79.7191925   7.8119364  40.2941055
  79.9178467   7.7447486  38.7951050  67.3254013  12.2494755  70.2594223
  67.8394241  12.5451641  71.0108032  67.6691360  12.7525396  69.5211792
  83.5722198  19.9095383   8.9867783  83.0194168  20.4789944   9.5219002
  83.9456406  20.4914627   8.3248491  24.8745136  54.2647057  53.6939201
  25.8006992  54.1253548  53.4964561  24.7267723  53.7785034  54.5051003
  74.9986725  56.3429680  19.2688618  75.3907700  56.0774689  20.1007252
  74.7028656  57.2408066  19.4192467  29.2280731  71.0129929  34.7569122
  28.9352303  71.7865829  35.2386131  28.9689445  70.2749786  35.3086510
  75.2699509  57.7309570  22.5794983  74.9851608  58.3012123  21.8653984
  76.2177658  57.8572159  22.6233768  67.5544281  66.2322845  27.2422676
  67.4976273  66.7633591  26.4479294  68.4062500  66.4541550  27.6183071
  40.7663040  59.0425758  75.5676651  40.3739548  58.9026680  76.4294815
  41.6993675  59.1607132  75.7456131   6.9242725  20.7210827  57.4028091
   6.0976944  20.3009930  57.6405563   6.7838874  21.0381165  56.5106125
  15.6129961  43.7855263  53.6002541  14.9244623  43.1847496  53.8852425
  16.3650284  43.5661812  54.1503143  83.0345612  10.0094252   4.4623637
  82.3376541  10.2406807   3.8482990  83.5248718  10.8222570   4.5853677
  67.5519257  35.6358223  31.2524509  66.6618042  35.3382454  31.4405136
  67.5844727  36.5276489  31.5985966  26.7535934  50.6990128  58.9111137
  26.9237881  51.6044998  58.6515808  27.6220512  50.3257828  59.0618248
  84.3383408   6.8121562  72.2247849  84.4833679   5.8661885  72.2433777
  84.5288849   7.0659690  71.3217316  79.5273209  39.8751144  78.5700607
  79.0628738  39.1128082  78.2245026  80.3748398  39.5314255  78.8525925
  79.9873962  70.4059906  64.4399261  80.9336777  70.5265884  64.5189362
  79.7551117  69.8434830  65.1787491  83.7574463  27.8373680  63.6258583
  83.6839371  28.6844902  63.1862984  83.6094284  28.0338860  64.5509033
  10.1694698  70.3930664   3.7643034  10.8424520  71.0522308   3.9340856
   9.3523846  70.8084259   4.0401216  13.9251604   9.4015055  79.3271103
  14.3635445   9.3119974  80.1733017  13.2830248   8.6917763  79.3137741
  10.0041571  69.6981506  13.6438589  10.1264334  70.2699203  12.8859940
   9.3904390  70.1721954  14.2049894  38.0193481  59.0730896  63.2014923
  38.1656265  60.0095024  63.3355331  37.2109642  58.8862152  63.6788025
  64.8270340  35.8885422  31.8056164  65.1638412  36.5503616  31.2016373
  63.9102707  36.1297379  31.9382591   1.1463248  29.9840546  50.7522964
   1.1358134  30.8632088  50.3738670   0.2971924  29.6111393  50.5153580
  12.2066450  51.6775894  27.3904438  11.7270813  52.1340752  28.0817261
  12.3087616  52.3308182  26.6982784  51.6710358  44.3481979  14.8860092
  52.4812775  43.9069595  14.6309576  51.9500275  45.2220726  15.1593933
   4.1959434  13.9721527  58.0324745   3.4575803  14.1492033  58.6153183
   4.0996413  14.6084013  57.3238525  85.3742294  51.4810486   3.1555953
  85.2267838  50.5449867   3.2907841  84.6117783  51.7739944   2.6565156
  63.4518890  39.2496452  78.8535690  62.9213715  38.6738892  78.3028564
  64.0982895  39.6244621  78.2553024  12.7173986  61.1067467  36.5664215
  11.8497200  61.0183678  36.9608231  13.0429945  60.2090607  36.5002785
  79.0996399   6.1554108  84.6228180  79.5007782   6.9584045  84.2903748
  79.7974472   5.5018902  84.5759201  73.0266800  52.6391182   4.1617465
  72.3236542  52.9447517   3.5885317  72.9652557  53.1991043   4.9356165
  34.7531166  49.3752365  58.5465012  35.5818443  49.8537674  58.5251694
  34.4050446  49.4593697  57.6588058  35.3725052  20.3854961   9.1210527
  35.1633911  19.5794563   9.5930729  35.8576698  20.0923729   8.3497381
   4.2455983  15.3269606   3.1287313   4.6306610  15.3908558   4.0027313
   3.8116710  14.4738131   3.1199675   2.6149316  55.4795074   6.1627402
   1.7837461  55.0913391   5.8894467   3.0698905  54.7731018   6.6212544
  64.3207245  71.2349854  31.5257282  64.1211700  71.0279083  32.4387054
  64.9942474  71.9132996  31.5756760  20.5122490   4.5602217  80.4918289
  19.6251812   4.4631705  80.8381271  20.4255371   5.2029142  79.7877960
  80.7917786  54.8477707  75.3573532  81.2036209  55.0142822  76.2052231
  81.5228348  54.7994270  74.7413559  11.0271959  62.1786270  48.3048439
  11.3575306  62.2866631  49.1967163  11.3781033  61.3348427  48.0200272
  28.7911663  32.6057014  65.7210693  29.2262363  31.9043159  66.2058487
  29.4952660  33.0310097  65.2315903  19.5043221  39.5833092  13.2183733
  19.1831589  39.0786972  12.4710751  19.5997009  38.9386444  13.9194746
  82.3024139  27.8179512  56.9210472  81.5898132  28.1297398  56.3631783
  82.9317017  28.5391483  56.9312439  37.3755608  38.8906937  78.3068695
  37.6949387  39.5656357  77.7079697  38.1524925  38.3749313  78.5227432
  46.2702751  30.6634617  18.3979397  47.1331902  30.2492867  18.3893909
  45.6533203  29.9322090  18.3684292  19.4043026   0.9594485  16.2122707
  19.5721722   0.0226909  16.3149204  18.4811287   1.0639908  16.4426003
  24.5575047  24.5931187  80.4368973  23.7901382  24.1807728  80.0402222
  24.2049446  25.3404846  80.9199905  25.2159691  60.7782173  20.6270447
  25.6625843  60.2688026  21.3032570  25.8989410  61.3392372  20.2595673
  32.5830421  64.2107468  84.0630188  32.1917801  63.5104218  84.5852127
  32.6863518  64.9380112  84.6767349  67.2512589   3.3057065   3.7448845
  68.0702133   3.2309272   3.2550313  67.4264450   2.8602159   4.5737882
  65.8440247   4.7886491  85.4908905  66.2762833   4.0145721  85.1300659
  65.7503281   4.5974913  86.4241180  74.1858292  33.6743011  14.0884151
  73.7928391  34.5370407  13.9562435  74.4813995  33.4097443  13.2172785
  44.5341911  17.6233902  84.1482620  45.2337265  17.0029202  83.9435654
  43.7667923  17.0744762  84.3095856  71.2494659  10.9760885  45.1377449
  72.1685562  11.2426701  45.1169090  70.7646484  11.7699261  44.9118919
  27.0662937  19.9510384  11.0447598  26.2078247  19.8507652  11.4561071
  26.9365025  19.6539650  10.1441298  32.5192375  40.0428009  16.6646614
  32.0607376  40.7882271  17.0524101  33.2666817  40.4313927  16.2101803
  48.2221909  54.4522324  88.4666138  48.9181099  54.2073593  87.8567276
  48.4657707  55.3270683  88.7692108   2.9563427  24.5915165  25.3668957
   2.9620812  23.7619858  24.8893223   3.7669694  24.5805073  25.8758125
  67.8974152  26.6420097  83.5679779  66.9814072  26.3656445  83.5398712
  68.0645218  26.8236523  84.4928055  47.8790016  11.0443630  36.2778282
  47.3409538  11.7225933  36.6861649  47.3351936  10.7020559  35.5683746
   1.7520977  12.3041534  27.7829380   2.5800285  12.7135439  28.0342598
   1.8557200  11.3845158  28.0273972  55.3213272  12.9429684  11.4435978
  54.7021027  13.5694609  11.8181667  55.8351173  12.6377926  12.1913395
  32.9471741  34.6818581   9.1950617  33.2695160  34.4113197  10.0547934
  32.6330872  35.5762901   9.3276138  82.8805466  63.3468056  21.0793381
  82.0398331  63.3221436  20.6223660  83.0106354  62.4508362  21.3900547
  65.9743271  19.9956017  18.6463223  66.7088470  20.1967697  19.2261829
  65.3959579  19.4453545  19.1744766  41.6276512  27.9293346   3.5912135
  40.9615631  27.7658329   4.2589149  41.4447517  27.2848091   2.9075706
  15.9726515  41.3617096  56.0887489  15.8779011  40.8438492  56.8881721
  16.8880501  41.6414757  56.0916939  31.0413189  69.3389893  54.0838089
  31.7666492  69.0073318  54.6130867  31.3639450  69.2990723  53.1835022
  28.9601173  10.7600327  33.6520958  29.1658154  11.6855974  33.7834320
  28.6273041  10.4659777  34.5000343  50.5144157  57.8526306  80.2538757
  50.9207878  57.0317802  80.5318985  50.6185493  58.4376488  81.0043030
  82.8593063  34.1552086  69.2337875  83.7395859  34.4460182  69.4720306
  82.7892456  34.3453255  68.2982788  36.7631226  61.6339569  59.6724777
  36.5604248  62.1593513  60.4464989  36.2311821  60.8445244  59.7728348
  28.6303673  70.5531006  30.9017162  29.5084095  70.9027481  31.0534439
  28.1747265  70.6805420  31.7338104  11.6083431   1.0965512  69.9962921
  12.2055120   1.5267302  69.3842697  12.1062040   1.0319676  70.8112717
  11.4341784   4.9926949  40.6544724  11.6721201   5.8688078  40.9578552
  11.6487770   4.9957552  39.7216454  16.5085411  56.3912926  32.8688087
  16.7563496  55.4965172  33.1016045  15.5590210  56.4153976  32.9873924
  24.5925350  50.0636711   1.5747252  23.7296810  50.4635048   1.4658625
  25.0004330  50.1355820   0.7117768  49.5587273  65.7430954  48.9772453
  49.8958435  66.2364120  49.7250595  49.6138573  66.3542786  48.2426376
  36.9862061  40.1221275  81.7058716  36.2706299  40.1698837  81.0719147
  36.6826897  40.6430550  82.4493408  80.5510559  10.4248486   3.4504373
  80.1549301  10.6718674   2.6147966  79.8493729   9.9801674   3.9259689
  53.2356224  25.0991573  75.3439789  54.0682449  24.8411827  75.7394714
  53.1033249  24.4715595  74.6334457  18.9388409   8.0808611  34.8571587
  19.4133511   8.5236826  35.5607071  18.2492695   8.6965485  34.6088600
  68.9293213  27.1779060  46.7453384  68.9300613  26.5344696  46.0366631
  69.0783386  26.6618004  47.5375900  43.0294609  68.1249466  75.5148010
  43.6621895  68.6758347  75.0539322  42.4422455  67.8087997  74.8281708
  54.6441040  65.2957764  80.6443634  54.9391785  65.4238739  79.7428360
  54.5776138  64.3458862  80.7419357   8.9707708  49.7091827  24.2010174
   9.0265560  50.6594162  24.1001358   8.6927958  49.5805092  25.1078815
  57.5730667  15.6533833   4.7656016  57.0817795  15.0071096   4.2584519
  57.2524910  15.5488272   5.6614432  77.3015518  21.3113804  87.0512390
  77.1216736  20.4463654  86.6829681  77.4528427  21.1485729  87.9822769
  45.6454315  49.5926514  60.7276306  45.6271172  48.7661400  60.2451591
  46.2884445  49.4503059  61.4222565  59.6831474  45.1219559  51.8241158
  59.0249023  44.4672127  52.0570412  59.3040009  45.5882416  51.0790901
  49.9862938  63.6427269  31.6012783  50.8300362  63.6523705  32.0532074
  49.4546394  64.2839432  32.0728874  43.4915695  68.4523926  66.3294754
  43.0836754  68.5448761  67.1904678  43.4489784  67.5143433  66.1437912
  49.0436783  18.2963638  85.3093109  49.7558937  17.6601448  85.2444611
  49.4840698  19.1369171  85.4348221   4.3971605  67.3194885  31.2155571
   5.2695937  66.9669266  31.0400696   4.5346065  68.2618332  31.3121033
  60.1857376  38.6581688  39.5289955  59.5718498  39.1130600  38.9524117
  60.9090576  39.2746696  39.6428795  50.5479164  40.6581993  22.4816589
  49.6423950  40.9035759  22.6715298  50.9824791  40.6676521  23.3344765
  44.6089592  20.9752884  70.5568466  44.9816360  20.4123764  69.8782578
  45.0858231  21.8008728  70.4717331  65.5138779  65.1168213  76.8673325
  65.1139374  65.9196320  76.5329971  66.3927155  65.3820114  77.1385422
  81.1133194  70.4467545   6.2236543  80.7775803  70.2655182   7.1015291
  81.7234268  69.7304230   6.0479474   3.1372452  61.6698189  62.5770416
   3.9374330  62.1364632  62.3358459   2.8136241  61.3072319  61.7524033
  23.9596920  61.9016571  24.1305580  24.8154602  62.3240814  24.2043839
  24.1074924  61.0062981  24.4350548  45.4446030  51.9111824  29.0284653
  44.5499382  52.0005836  29.3568153  45.7847672  52.8057785  29.0135384
  40.9449425  55.8070183  10.2083826  40.3086548  55.0948906  10.1432419
  41.6274529  55.4662399  10.7865572  21.0852737   2.0554628  27.3315392
  20.8735199   1.4681445  28.0571079  20.3784790   1.9207563  26.7002506
  12.3220806  17.7161903   4.9560456  12.2207489  17.7779617   5.9058604
  11.5831051  17.1788158   4.6707811  60.5831757   9.8202772  36.8073273
  61.3437500   9.4978495  36.3237953  60.0756569  10.3074999  36.1582718
  26.7297306  22.7430649  70.8419266  26.9811745  22.1463547  71.5468674
  25.7726460  22.7287827  70.8460007  30.3056049   5.1111927  79.4310837
  30.7039680   4.6676769  78.6821976  29.6140919   4.5165005  79.7215729
  74.2935257  55.1799469  33.8079720  75.0409012  55.7617607  33.6695709
  74.5363083  54.3681183  33.3627472  13.3279581   0.9269280  42.3505974
  14.2390757   0.6822258  42.5125160  13.3163099   1.8798403  42.4403419
  19.1080685  10.9004564  53.5392265  19.6271954  11.2288122  54.2733383
  18.2027702  11.0994844  53.7780914   4.1682024   7.1717377  -0.0405322
   4.3990393   6.2429752  -0.0591429   4.9844656   7.6168995   0.1870134
  77.1539536  14.4985046  63.6107407  76.5572891  13.7503347  63.5890961
  77.3500519  14.6216745  64.5395050  45.0226974  47.5533257  30.0121651
  45.8919640  47.9400978  29.9072170  45.0000076  47.2586098  30.9225845
  53.9153900  41.6296120  20.9965553  54.6335754  41.7228203  20.3706532
  53.1297379  41.8430443  20.4931412  85.5230026   9.0292034  73.8172379
  85.0293045   8.3124199  73.4188461  85.8337784   9.5475559  73.0749741
  68.3961487   3.2106850  55.8455124  68.0370483   3.2938378  54.9621277
  68.4651947   2.2666883  55.9881096  74.0774841  70.6154709  73.8416977
  74.2098389  71.5273895  74.1007843  73.3964233  70.2949219  74.4329910
  14.7684135  68.4277649  61.2001038  13.8121071  68.4586945  61.1726532
  15.0453825  69.2797775  60.8630714  13.8186054  33.0451546  84.6474075
  13.6553125  33.0894432  85.5895386  14.4951057  33.7038765  84.4903488
  13.3731995  13.6365156   7.3534293  13.3568468  12.7165499   7.0895591
  13.8794775  14.0731974   6.6684303  73.2121658  26.1406746   5.3733521
  74.1091385  25.9581127   5.0934534  72.9205399  25.3285275   5.7876010
  52.7395897   6.1003051  49.0086288  52.1692009   6.4452076  48.3216591
  53.4905319   5.7391891  48.5375481  42.4228058  65.4147339  48.7528915
  43.1918907  65.2610550  49.3016396  42.0398064  64.5463333  48.6287003
  14.1840420  44.4839096  88.1553116  14.8507881  45.0474663  88.5478516
  14.3530741  43.6181908  88.5270538  38.7106323   1.8736141  53.8333855
  39.4257812   1.2729038  54.0430107  38.7500992   2.5412242  54.5181999
  75.5905151  22.6317520  60.9891319  75.1591644  23.4860687  60.9715652
  74.9018097  22.0210609  61.2517548  56.2773705  21.9130650  14.0878725
  57.2217484  21.9741879  14.2315588  56.1235847  22.4169540  13.2886982
  58.7890663  32.3132973  85.4464951  58.0976143  32.0336266  84.8465729
  58.8708305  31.5921535  86.0705872  33.4543343  44.6478806  71.5778046
  33.3548889  45.3661041  72.2027054  33.8062325  43.9251938  72.0975342
  23.9412613   5.7227736  29.0005264  24.8974133   5.7021747  28.9607677
  23.7453232   6.1893620  29.8130150  72.5288544  63.6907425  12.3994589
  72.8051453  64.4434586  11.8766632  71.9844971  63.1736183  11.8057499
   1.4567450  13.1903753  78.6745224   1.1282141  12.3097324  78.4935074
   0.7761049  13.5939093  79.2131500  69.6431503  41.0476151   6.2046237
  70.1315079  40.4490852   5.6393776  70.2565155  41.7597046   6.3861294
  75.5209045  59.7408295  33.8483696  76.3072357  59.1986008  33.7858963
  75.1846848  59.7792282  32.9529839  65.6140594  18.8538990  70.6496811
  65.2439423  19.4394035  71.3103027  66.4898911  18.6476116  70.9761734
  28.6927567  24.1696739  79.1226120  29.2655010  24.3667126  78.3814163
  28.2091465  23.3896122  78.8508530   3.7955732  29.7303200  37.1596832
   3.5084968  30.3139191  36.4573784   3.4848034  30.1499882  37.9618874
  50.0567856  24.3746071  68.4365158  50.2809448  23.9052219  69.2400436
  49.1309853  24.5953712  68.5384293  43.5273056  68.3550339  82.8922958
  44.0563354  69.1443024  82.7764893  43.0366592  68.2734299  82.0744705
   6.1100264  31.7726440  38.9319305   6.2427702  30.8489265  39.1449013
   6.5682850  31.8950005  38.1005096  10.6165743  32.2490883   5.9970255
  11.5288029  32.1000557   5.7483110  10.5522976  31.9063358   6.8884411
  32.8252716  30.8131008  88.1268539  33.6715813  31.1182671  88.4537430
  32.7943344  31.1187458  87.2202911  45.8872261  48.4342804  66.2851257
  46.6319809  48.0698433  65.8068390  45.6315880  49.2053719  65.7788544
   5.5491624  55.2759018   0.4904293   5.4094725  56.0149841   1.0824353
   5.0713072  54.5516510   0.8945961  76.0590363  54.2632713  47.3461227
  76.1052399  54.3905373  46.3985443  75.2538300  53.7637749  47.4817123
  77.7005386  56.6559105  22.4560966  77.7814407  55.7025108  22.4828033
  78.4429779  56.9737701  22.9698868  39.2105293  47.9002419  85.7163010
  39.9392586  48.4914627  85.9050980  38.5874138  48.0537148  86.4265137
  68.2646332  58.0849991  13.1403027  67.9730606  58.4998283  12.3284321
  68.8793182  58.7115974  13.5220928  16.5683784  56.7432861   0.7036462
  17.2936344  56.1238098   0.7841946  16.3542194  56.7413368  -0.2292866
  84.9676743  56.2102470  21.6425056  85.7059326  56.1695595  21.0345993
  84.5418320  55.3570099  21.5595932  17.5043736  30.5847435  63.5028114
  16.6927338  30.1309776  63.2757225  17.2185860  31.4385223  63.8278008
  50.3715935  27.4253979  73.3524170  50.6966743  27.5675106  72.4633942
  49.9502068  28.2518444  73.5883179  46.9377899  69.3398743  51.1351547
  47.1260300  70.2462006  51.3787994  47.6778336  68.8404312  51.4802933
  61.8569298  17.7823086  67.2089920  62.1960678  17.7204552  66.3160248
  61.8869667  16.8844185  67.5393372  50.4887772  67.6857986  66.1729736
  49.5860214  67.5730515  66.4705505  50.5052795  67.2887268  65.3021698
  27.4502087  21.3622417   7.7664285  27.3010445  22.1721706   8.2542763
  26.5894299  20.9456215   7.7249703  38.2178497  12.6049585  77.2573471
  39.0470963  12.1300735  77.3127289  38.1398964  13.0500202  78.1011963
  12.0524368  10.1236734  10.0723486  12.0282927   9.7729006   9.1820641
  12.9182606   9.8823118  10.4014778  81.7589951  54.0835114  48.9666519
  81.5768051  53.5465546  49.7378311  80.9035797  54.2121277  48.5568314
  78.7242661  55.1831512  68.7110443  78.8271713  56.1214867  68.8696823
  79.1441879  54.7656288  69.4630890  67.0903320  57.6762047  76.8754349
  66.9838638  58.2535324  76.1193924  67.4464798  58.2419319  77.5605164
  74.8898697  57.6966324  61.1656570  74.7196121  57.4421005  60.2587624
  74.6800537  58.6300659  61.1958618  39.4008102   5.7369318   3.8708384
  38.4682808   5.6415424   4.0645585  39.8421822   5.4462786   4.6689253
  39.5519142  20.7826462  13.2090321  40.0018311  21.5795307  12.9283524
  39.2369347  20.9832191  14.0903883  43.4094620   0.2719588  51.5844345
  42.6074562   0.7898849  51.6535110  44.0230331   0.6997595  52.1817207
  38.9019623  61.1440048  87.8260498  39.1806450  60.4357376  88.4065094
  38.1590347  60.7805023  87.3442230  71.6052628   9.9353533  77.3969803
  71.8427124   9.9862013  78.3228607  70.6485367   9.9050608  77.3963928
  37.0346718   6.9460115  67.9478149  36.3057098   7.0733204  68.5549698
  37.7346992   7.4990478  68.2947235  82.2273636  21.7525845  10.4203682
  82.2825775  21.5858383  11.3613138  81.2928467  21.8749485  10.2532358
  51.9907799  16.6026840  78.7616501  52.3407745  15.9998932  79.4176788
  51.1233978  16.8379345  79.0910950  49.3841133  25.9061661  14.9280157
  49.2480965  25.4293346  14.1092587  49.6749840  26.7757339  14.6532831
  19.9208603  23.8126640  81.9466324  20.5466175  23.7387886  81.2260742
  19.2047729  23.2260399  81.7030716  21.7948112  31.3884640   8.7488766
  22.5300636  31.6623554   8.2005873  21.6644554  30.4655132   8.5311565
  26.5184574  12.4664450  45.5443954  26.2621098  13.3661718  45.7469025
  27.3160877  12.5562687  45.0229073  24.9452038   3.8247511  75.5314484
  25.2683659   3.6259136  74.6526642  24.5114689   3.0199270  75.8149338
  79.5157394  16.4894867  53.1414185  79.7193527  15.5542059  53.1462326
  78.5897903  16.5342579  53.3798447   5.9824433  69.0561447  14.1383915
   5.7273555  69.6830750  14.8152399   5.1740894  68.5886612  13.9280329
  50.8425522  66.2473679  26.6771946  51.4771614  66.8740921  27.0246391
  50.6902275  65.6362152  27.3979740  52.2541199   1.3771833  37.2759247
  52.0351143   2.1702991  37.7650414  51.4751740   0.8261038  37.3520126
  12.4557381  51.3793335  84.3376236  11.8029299  50.7326355  84.6056824
  13.0634966  50.8903809  83.7828369  17.1706848   6.4569693  87.3835068
  18.0855236   6.7229290  87.2909470  17.2094231   5.5111756  87.5256577
  37.1080055  10.6549511   8.0314493  37.7860222  11.2342243   7.6836481
  37.5105591  10.2489252   8.7991257  78.1798401   0.3283758  56.7253151
  77.2250214   0.3924619  56.7463303  78.3569183  -0.6122897  56.7301521
   6.0708508  48.2249031  44.3496971   5.1652517  48.0560951  44.0896492
   6.5928907  47.9347725  43.6016808  66.0591812   5.9403777  56.7451286
  65.4281540   6.1467433  57.4346542  65.7249451   5.1364560  56.3473511
  44.4006195  34.8213158  78.3337860  44.6963692  34.2933578  79.0754242
  43.4955788  35.0484085  78.5472336  57.1573944  52.1817322  -0.1441228
  56.8433685  51.4687462   0.4119975  57.9668236  52.4737854   0.2751188
  49.9734077  40.9849396  77.0846024  50.9064445  40.7767982  77.0361328
  49.7544823  41.3085022  76.2107468  50.4510918  56.3118057  73.4778900
  50.3490181  57.2306747  73.7258606  49.7711296  55.8535080  73.9717026
  74.8480606  11.1459713  60.3277550  73.9066315  11.1926308  60.4943924
  75.2011414  10.6705828  61.0798035  37.4892120  34.5678749  14.9465542
  38.3541222  34.8757324  15.2174463  37.0543022  34.3256340  15.7641163
  65.2694702  22.3334713  59.1356049  66.0360794  21.7609425  59.1081161
  65.1802902  22.5701771  60.0587769  59.6639786  19.8257847  35.5187531
  59.0202370  20.0230598  36.1991272  59.1561852  19.4102669  34.8218155
  39.3058548  59.9726944  41.4021263  39.7467232  60.1962585  42.2218132
  39.4975090  59.0438538  41.2726898  68.5294418  25.7456093  25.2760105
  68.7357025  26.2490292  26.0635757  68.0142975  26.3453808  24.7364426
  36.6110725  53.0063629  46.6868973  37.4560890  52.9448509  47.1323204
  36.1914978  53.7745628  47.0742645   8.4594965  51.3651276  17.8064785
   7.6070790  51.0170441  17.5448437   8.2521181  52.0736275  18.4157848
  64.8343811  42.7578545  27.7735710  65.1557312  43.5662498  28.1729031
  63.9460564  42.9692154  27.4864426  84.3108902  43.4983444  87.0160904
  85.1405640  43.2473793  87.4221497  84.4365540  43.3194656  86.0841827
  22.7470036  64.2231445  86.7205505  22.2692833  63.6492310  86.1216888
  22.7862968  65.0644836  86.2657547  63.3841972  39.8914642  22.8100204
  62.8079834  39.2711258  23.2565556  63.3990440  40.6589012  23.3819046
  29.6972866  56.9990654  48.4808197  29.3217010  56.7452126  49.3238678
  30.4092770  57.5977592  48.7063522  47.4520111   5.0161419  21.6063709
  47.5812187   4.7025070  20.7112904  47.6645927   5.9485846  21.5664654
  78.1589584  55.4246445   2.3221853  77.7219696  55.5300331   3.1672683
  78.9584885  54.9389572   2.5249002  81.0355377   4.9039416  74.8157883
  81.2274246   3.9993079  74.5687103  81.7850723   5.1710491  75.3478394
  81.2737656  31.2543259  56.9964790  82.1616211  30.8966923  56.9899673
  80.9217682  31.0372314  56.1332283  14.0934057  48.4458237  41.7526970
  14.4404011  47.9788933  40.9925652  13.1441736  48.3436775  41.6837311
  36.2025642   4.2114577  37.1200752  36.2386284   5.1534629  36.9540710
  35.9930725   4.1402168  38.0513496  41.9911346  57.9573746  18.2059288
  42.6596565  57.9149361  17.5221825  41.7228470  58.8760681  18.2218914
  56.5454254  10.8935680  15.9456549  56.9963760  10.1081991  16.2556076
  55.7121735  10.8929577  16.4167461   0.6304239  57.0038986  55.2856178
   1.5447543  57.2104111  55.4794846   0.6191019  56.8268890  54.3449936
  46.7331772  60.6174202  74.1516724  46.0401459  60.5660477  74.8099289
  47.3080254  59.8784485  74.3509293  70.9539490  53.6556396  16.8164806
  70.2786789  53.1652565  17.2852821  71.5502167  53.9572678  17.5018349
  86.7265625  56.9432335  46.0360603  86.2264862  56.1354980  45.9189110
  86.6544800  57.3937302  45.1945801  86.6198578  54.4261856   9.3100700
  87.0343094  53.5634003   9.3019924  85.6906433  54.2468948   9.1663980
  21.0010052  55.1021881  24.0177364  20.1551418  55.0256233  24.4591942
  21.6343651  54.7712326  24.6545696  65.8183594   6.9536929  63.0206299
  65.3352203   6.1620522  63.2575226  66.2024536   6.7534552  62.1670456
  40.2628632  24.1678810   0.0310166  39.6398811  23.4428139   0.0800245
  41.1169434  23.7444077  -0.0552946  47.3767815  40.5134163  23.0423756
  47.4883842  40.6271057  23.9862251  46.6037445  39.9552574  22.9581108
  74.7933884  31.5659065  84.3520432  74.9556580  31.0753002  83.5463104
  75.4840622  31.2798634  84.9498520  82.0452423  29.4635315  65.6536713
  81.6849747  30.1365032  66.2312088  82.2661896  28.7389641  66.2388382
   6.7256384  48.4220123   0.4137165   7.1822004  47.6732597   0.0301092
   7.3119240  49.1633224   0.2622019  25.5041237   8.5370073  82.1515350
  25.1571484   8.6585922  81.2677536  24.7288857   8.4039669  82.6970062
  59.5597572  17.1541271  39.3800621  58.6686935  16.8093586  39.3219528
  59.8718758  17.1649246  38.4752426  78.2609940  26.9671822  86.1439362
  77.4282761  27.2821560  86.4955139  78.0390396  26.6143036  85.2822876
   6.1433616  51.5325394  68.7205582   5.8246932  51.4837341  69.6218414
   6.7315140  50.7823868  68.6335220  44.0731697   8.0061541  69.3223877
  44.2421379   8.1967335  70.2450790  44.8170471   8.3902826  68.8583527
  50.6510353  12.8545218  36.4187546  50.0356522  13.3926706  35.9208260
  50.0984154  12.2244539  36.8811989  71.2747574  46.8646049  56.1720543
  70.5088730  47.4238243  56.3021355  71.3285828  46.3422012  56.9723206
  38.3817635   2.1493044  48.4639130  38.6532936   1.7684687  49.2990570
  39.1876411   2.1982925  47.9497185  52.5637970  68.1014633  72.1574707
  53.5040550  68.2365646  72.2753372  52.2479630  68.9256821  71.7871475
  83.8998337   9.3724594  78.2703857  84.6511841   9.6886463  77.7686615
  83.7185593  10.0727844  78.8972168  33.0206757  51.9124451  69.2007065
  32.9260521  52.2080498  68.2952271  32.7910118  50.9835701  69.1746597
  25.5182343  69.4932785  66.8957748  25.1225548  70.3465958  66.7182312
  26.4606495  69.6608200  66.8920212  63.9819336  31.3613682  83.1154175
  64.5817032  31.8364239  83.6905975  63.3145943  31.0086288  83.7040253
  71.5723419  18.8981209  60.8748474  71.9658585  18.0554028  60.6485748
  71.1119003  19.1684685  60.0804024  52.6891861  43.2551422  77.6954803
  52.5196571  42.9846840  78.5978928  51.8507690  43.5987663  77.3869095
  75.7570343  37.6102219   3.6587853  76.3283310  37.1981316   3.0106871
  74.8746948  37.3352699   3.4095695  10.2398262  44.8567314   0.8611549
  10.9396954  45.4311600   0.5505969   9.4417439  45.2251244   0.4822316
  59.9874725  64.9770889  63.6461754  59.0584793  64.9731750  63.4155540
  60.0936546  64.2224350  64.2253571   7.5255427  32.6449051  44.0107269
   7.1917019  33.4303665  44.4441223   7.9419174  32.1432686  44.7116013
  49.9315643  36.4874992  81.3946075  49.2842598  37.1231308  81.0893326
  50.2355461  36.0535164  80.5974350  20.3763523  44.9891167  55.9946098
  20.0769520  45.6313477  55.3510818  20.8472137  44.3346596  55.4786568
  66.9002762  64.6622314  31.7726345  67.2871017  64.5721588  30.9017220
  67.1865082  63.8798103  32.2439270  70.1754074  64.0601501  45.8384781
  70.5558090  63.6388474  45.0677452  70.5255432  63.5652847  46.5792542
  26.2164421  33.0441475  71.5228424  25.3212986  32.7970009  71.7549362
  26.2837639  33.9650040  71.7752838  81.5171661  44.7742271   0.2106006
  82.0198517  45.2629204  -0.4411035  80.7505264  45.3213501   0.3813232
   3.8905170  28.9166965  67.7279053   3.7174611  28.0676823  67.3211441
   3.3852878  28.9002762  68.5407486  74.3878098  15.8133373  12.4893999
  74.3065109  14.8908043  12.2474194  73.6661835  16.2453194  12.0323687
  66.4965134   1.8632839   0.6445808  67.0614700   2.6057134   0.8587078
  66.2876892   1.9806757  -0.2821578  43.4939232  11.6433153  81.7335358
  42.7155762  11.4599619  81.2074280  44.1497879  11.0230656  81.4151535
  21.6698971  35.0548973  81.7995148  22.5104046  35.2303200  82.2226105
  21.0896263  35.7430229  82.1250992  22.0122337   5.0769281   6.4693632
  22.0613194   4.1821966   6.1327949  22.7357826   5.1382570   7.0930195
  83.4371796  53.8902588   4.2286344  83.8136444  53.7072105   3.3678205
  83.3920746  54.8454056   4.2721334  28.7200298  22.0412769  11.5411930
  28.2172012  21.3090916  11.1844034  29.2049942  22.3865871  10.7916584
  70.0542221  22.0912647  39.3754654  70.9979935  22.1644230  39.2334709
  69.8232727  22.8822289  39.8625717  46.4905243  55.9418945  48.7165833
  47.0506020  55.6676216  49.4427528  45.8522186  55.2343788  48.6259499
  47.3372002  16.0614910  85.7767105  46.5566216  16.4073486  86.2095032
  47.8264847  16.8390865  85.5080490  71.8941269  35.2588882  49.0554695
  72.3198166  35.4976349  48.2320480  71.6506805  34.3401871  48.9416656
  20.3509731  69.6921844  16.9125576  20.3875656  68.7489090  17.0710850
  20.8680954  70.0744476  17.6215649   0.0507162  24.7334995  32.0237007
   0.8698397  24.4263210  32.4121704  -0.6147678  24.1354713  32.3638840
  45.5445175  38.8531837  20.5153351  45.0387001  38.4318733  21.2102337
  46.4578705  38.7047234  20.7602386  61.1285133  50.1337509  20.8743992
  60.9325714  49.9635353  21.7957382  60.7993889  51.0190735  20.7191315
  54.2344933  12.5895061  57.5151520  55.1469994  12.8469038  57.6467400
  54.1981583  11.6785412  57.8067894  27.4581394   0.4401646  48.3680420
  28.2130966   1.0233412  48.2894554  27.7317238  -0.2215272  49.0032959
  52.2188950  36.3839035  35.2449570  52.5440674  35.4854584  35.3023415
  52.7627106  36.8752289  35.8606682  78.3816681  10.6492577  31.1570816
  78.3821640  10.4334555  30.2245255  79.1520920  10.2017012  31.5069046
  40.9102173   1.2592434  51.2125130  40.0649834   0.9263642  50.9108391
  40.6990738   2.0787675  51.6597595  82.9373016  44.9604149  56.4975128
  83.6877823  44.6190376  56.0112267  83.3214798  45.5419083  57.1536407
  71.0005035  19.7447987  29.5489082  70.1376114  19.8173103  29.9568329
  71.1611786  18.8027649  29.4942284  83.6235886   0.7580845  84.3042526
  83.9506912  -0.1089870  84.0646210  82.6763687   0.6996613  84.1793976
   4.7772946  54.8833008  77.5638123   5.1987982  54.2774239  76.9543228
   4.2981157  55.4929161  77.0025787   2.7932422  49.9489021  55.8822365
   3.3388121  50.0131569  56.6661110   2.9206920  50.7842522  55.4325905
  15.2698612  49.4297180   9.2014780  14.4227943  49.8539658   9.0646420
  15.9088526  50.1370621   9.1143732  16.4638844  64.9476852  78.9562531
  16.2837563  64.0951309  78.5601044  15.7938833  65.5268860  78.5931244
  82.6335526  36.1222382  75.5259781  83.0901413  36.2416039  74.6931992
  83.0566864  36.7403793  76.1218719  40.3007011   7.9934206   3.0050137
  39.4189072   8.2765598   3.2468822  40.3259506   7.0648913   3.2361593
  17.5361767  21.1549263  69.2165604  16.7811146  21.5473099  68.7782135
  18.1463776  20.9525928  68.5073776  18.4245529  54.5380058  63.9815941
  18.4452248  54.5589790  64.9383392  18.1303883  55.4132004  63.7291412
  14.0246973  14.3847456  83.2832718  14.5985928  14.1368504  84.0081329
  14.0323553  15.3419018  83.2882614  28.5352859   1.9168192  55.4648819
  28.3730125   1.0136495  55.7372475  28.4882221   1.8909103  54.5091896
  34.9959145  66.8220139  68.4639053  34.1259308  66.5619659  68.7667847
  35.5503120  66.0638428  68.6484528  38.6034241  58.6999893  47.9043770
  39.1958084  57.9931297  48.1606255  39.1659203  59.3349838  47.4609680
  84.3652420  66.8731918  80.8578873  84.9600220  67.3806534  80.3056564
  84.8328934  66.7759857  81.6873932  52.5829811  14.6200399  10.8505259
  52.0402184  13.9935417  10.3718424  52.5363541  15.4229498  10.3314934
  22.3443604  51.7115631  45.4379539  22.0686722  52.5080757  44.9843025
  22.8402233  52.0259361  46.1939468  22.1708584  63.0145988  10.9597607
  21.8340969  62.1666794  10.6701822  21.4739151  63.3743973  11.5084372
  34.6341362  24.5378666  71.5108414  35.1769600  23.7494678  71.5102768
  34.6332283  24.8286839  70.5988846  50.1712341  67.5317078  47.1876411
  50.0640373  68.4343262  47.4876747  51.0603752  67.5006943  46.8345108
  36.5662460  65.4126968  34.8295059  36.1932564  65.0413742  35.6290245
  37.4913292  65.1688690  34.8610840  55.5741005  43.6611176  56.7813644
  55.8349266  42.7707710  57.0169220  55.5071907  43.6464119  55.8266182
  32.6118698   6.9161839  27.5202484  32.4412079   7.8378372  27.7143154
  32.3950005   6.8225942  26.5926495  72.8619308  65.2918701  14.7668257
  73.7774429  65.2272797  15.0386648  72.7997589  64.7249069  13.9981136
  50.9287491  33.1395454  21.0643234  50.8283882  32.6241302  21.8646393
  51.0755234  34.0339012  21.3722458  11.2510366  50.4513359  77.3997498
  12.2074852  50.4428558  77.3627625  10.9861860  49.6600838  76.9306946
  85.6839294  20.4842930  58.4817429  86.1576767  20.2115479  57.6959915
  84.8036118  20.1263752  58.3669891  81.5791779  60.9538536  80.8109589
  82.4977875  60.8682480  81.0660172  81.0995789  60.4542542  81.4717331
  29.3411674  22.0023727  52.7015686  28.8789768  22.3016663  51.9186020
  30.2215271  22.3678932  52.6144180  81.7527542  28.3562698  11.0755758
  81.7387238  28.0177650  11.9708128  82.6812973  28.3849392  10.8448801
  40.9422722  24.7285995  78.8502502  40.9168129  25.6539707  78.6067886
  40.0825348  24.5584564  79.2351303  48.7613220  19.2091999  77.0636597
  48.2082062  18.5021133  77.3958130  48.5292091  19.2800522  76.1377335
  28.2422447  52.8601646   5.3791089  28.8680344  53.5843620   5.3916154
  28.1994514  52.5964470   4.4599504  74.3295975  57.9525299  54.0498886
  74.2166443  57.5258636  53.2005196  73.6615829  57.5549278  54.6083717
  63.3032951  17.7004890  76.7504272  62.3519363  17.6508694  76.8436050
  63.5308304  16.9437904  76.2101822   8.6663284  20.0051174  76.0119705
   8.8852711  20.9189720  75.8298569   7.8378692  20.0478954  76.4895248
  80.0223389  56.8065987  77.6433029  80.7426758  56.3283119  78.0539093
  79.8739014  57.5566978  78.2191086  82.8476944   5.1100030  43.5319252
  82.0218735   5.5909700  43.5860062  82.7412567   4.3817677  44.1439514
  55.2889595  39.8989944  66.2800446  55.6362152  40.6847687  66.7021866
  54.6041298  40.2239075  65.6955185   9.8379107  42.5799179  20.7995777
   8.9679594  42.9128227  21.0200119  10.4340181  43.2885590  21.0418892
   7.5551438  42.5319023  63.8206596   7.5185332  42.4199524  62.8707314
   8.1654892  43.2572975  63.9529915  45.0693855  46.0765343  19.3745365
  45.2866707  45.7772255  20.2573910  44.7064362  45.3035393  18.9421215
  50.3422737  40.8731117  61.6624336  49.5312767  40.3658905  61.6271744
  50.9067230  40.4683876  61.0037766  52.3152962   7.5777321  71.9035645
  52.4609451   8.4623480  71.5681992  53.0553322   7.4188619  72.4895172
  13.9928293  62.1231346  46.7690277  13.2436857  61.5283852  46.8049355
  14.2707434  62.2135849  47.6805153  57.0711479  18.3954334  21.0333424
  57.9057808  17.9322529  21.1046467  57.3147469  19.2971382  20.8240147
  13.7869968  27.0353699  17.2050037  14.2682676  26.5055504  17.8405361
  13.4682350  26.4043999  16.5596371  63.4521751  41.1983414   1.4613894
  62.6603127  40.7036667   1.6723024  63.6327286  40.9826660   0.5464483
  67.7959900  41.2176628  10.7249212  68.6525955  40.8912048  10.4494476
  67.5209579  41.7975273  10.0147467  54.2093582  39.8919029   9.2888670
  54.1009026  40.8428688   9.2774448  53.3194695  39.5483742   9.2093830
   4.9204555  13.7233143  65.1532059   5.4068666  12.9820261  65.5139313
   4.0338297  13.6188269  65.4984665  57.8820724  43.2733650  52.1615944
  56.9660835  43.5251617  52.0441246  57.8779945  42.3182983  52.0978470
  36.8743744  60.7832909  74.0447922  37.3876343  61.4321938  74.5261688
  37.4364777  60.5280457  73.3132706   5.1701269   9.7205687   0.2798326
   6.0742469  10.0308475   0.3300896   4.9229984   9.5544405   1.1895363
  70.7161560  17.8957882  63.6281319  71.0536880  17.0016556  63.6813393
  71.1484299  18.2696819  62.8602905  71.5977554  16.1880245  75.9529190
  71.6992950  17.0876751  75.6421967  72.1857910  15.6752834  75.3983536
  82.8928299  68.2913055   5.9860744  83.6781158  68.8383026   6.0049024
  82.7873306  68.0553665   5.0644274  71.3774719  55.5815773  68.9503326
  71.7584000  56.4517097  69.0686188  70.4329758  55.7349854  68.9253235
   2.9316752  61.9869728  50.1374092   2.8379879  61.8847427  51.0845108
   2.0732381  62.2916451  49.8433113   7.7068458  53.6104698  13.0626898
   8.4015436  53.5278511  12.4093895   8.1015110  54.1225891  13.7685261
  66.6070633  11.4801207  79.5318375  65.9118652  10.8560171  79.3234558
  66.6755981  11.4524765  80.4861832  36.6932220  10.1648321  77.6132507
  37.3974609   9.6286030  77.2489166  36.9520302  11.0653305  77.4174194
  70.2794571  10.5582552  87.0573196  70.6530228   9.9316940  87.6770782
  69.6406403  11.0519333  87.5715485  40.8530846  65.6552277  61.7203712
  40.9890404  65.8233795  60.7879143  41.2648163  64.8046646  61.8728867
   8.6616745  62.3578682  53.5105171   9.4572773  62.4264946  54.0382843
   7.9473495  62.4297714  54.1436043  84.1136627  21.2357101  74.3934708
  84.6294556  20.6658955  74.9639893  84.4054871  22.1208096  74.6117935
  20.5157604  19.4252834  23.0712318  20.9592152  19.2399120  23.8990097
  20.3124199  20.3597279  23.1124649  10.5175343   1.4771458   9.3204269
  10.9064713   0.7822661   9.8515596  10.5861235   1.1577532   8.4206963
  79.4491119  37.2360611  67.2223358  79.0234604  38.0932503  67.2054214
  78.9946747  36.7296638  66.5490723  54.5807762  53.3144112   2.7897460
  54.0044441  53.6776848   2.1173580  55.2205734  54.0066185   2.9562972
  84.8371048  18.8678551  80.8805618  84.0596924  18.4347630  80.5279999
  85.1175766  18.3057976  81.6028214  48.2568321   4.4534044  12.4532137
  47.3733978   4.7231641  12.7042246  48.3437119   3.5654452  12.7999287
  45.5490646  26.8464661  70.1371994  45.0108795  26.1206264  69.8213730
  45.6059799  27.4444084  69.3919067   0.5695738  30.7145405  60.6171265
   0.2321979  30.7348938  61.5126686   1.4978193  30.5026741  60.7156372
  85.8083115  65.3493500  69.6704178  85.1006927  64.9101334  69.1986237
  86.5625076  64.7694092  69.5650864  51.4842987  10.1705570  71.0701218
  52.4155121  10.2962646  70.8877258  51.1729355  11.0363493  71.3341064
  23.6682549  61.4502831  36.6559258  22.7596645  61.6814156  36.8489876
  23.6108398  60.8607597  35.9039955  18.6395435  53.7389297  86.7304153
  17.7029285  53.9243469  86.6625443  19.0458355  54.5976753  86.8475189
  55.6256485  44.7056770  82.6755371  55.0781784  45.4316978  82.3765259
  55.9402237  44.2953491  81.8699875  79.3708496  57.9805374  30.3734417
  80.1760101  58.3864021  30.6947289  79.5321732  57.8333855  29.4414787
  63.9824524  33.4539070  27.0849361  63.6457863  34.0546341  27.7497787
  63.2548523  32.8566895  26.9112759  58.9900322  37.7470512  49.9191322
  58.6983032  38.2539139  50.6769028  59.6251793  38.3141174  49.4818001
  50.1909485   5.3971148  80.8252792  50.0428581   6.3317695  80.6813278
  50.6498909   5.3537412  81.6641617   6.7956853  44.0633698  50.4516182
   6.3040009  43.3534660  50.0386848   6.8193827  43.8300858  51.3796539
  63.7035675  49.1474380  54.5694847  64.0167694  48.8125496  53.7292557
  64.1269608  50.0011368  54.6599045  34.5818481  52.5390511  23.3065186
  34.3338165  51.6150208  23.2767429  34.3554802  52.8193474  24.1933231
   1.0200977  31.1611595  31.4419060   1.4083897  30.6296844  32.1368866
   1.4239515  30.8356247  30.6374435  38.8028374  20.1914806  79.3546219
  39.7478561  20.0393963  79.3610382  38.6480751  20.7037926  78.5610046
  64.3639755  19.8807182  33.2386208  63.4869385  19.5135536  33.3491821
  64.8497696  19.2031307  32.7683907  10.5570469  59.4987411   8.8590183
   9.9696178  59.4003181   8.1097050  10.5057230  60.4279099   9.0831680
  55.2085457  38.6896820  59.1114998  56.1081352  38.8513145  59.3958397
  54.7459564  38.4391365  59.9111671   2.7697883   8.8778105  58.3320351
   3.3189590   8.9599438  57.5523567   1.9042420   9.1710663  58.0473213
  12.5628366  57.0279579  58.8005295  13.1226025  57.7079544  58.4257011
  12.3408098  57.3542709  59.6725731  50.8059692  33.1876106   9.6166439
  51.3154984  33.0795555   8.8135633  51.2488480  33.8931160  10.0881853
  47.0412292  18.7545223  82.3346405  46.1832237  18.8987122  81.9355621
  47.0108604  17.8504982  82.6477737  61.0773735   4.8102050  41.5584145
  61.4722557   5.3124962  40.8456688  61.4119415   3.9213591  41.4390373
  43.8840103   2.4973240  69.0145950  43.7206039   1.5547732  68.9810104
  43.3866196   2.7997174  69.7744522  78.1709137  45.9128799  37.7626724
  77.4969559  46.4668045  38.1566048  77.6859665  45.1833687  37.3768272
   9.0850391  17.9772434  57.1488571   9.0160952  18.9167118  57.3187904
   9.8883476  17.7112350  57.5962563   7.4717021  53.1489983   1.8387183
   8.0985079  52.6675949   2.3787160   7.2155933  52.5274353   1.1573223
  49.3619270  11.6214504  38.7038383  50.2666817  11.3185997  38.7808418
  48.9348373  10.9631691  38.1556664  59.3042488  30.9875717  41.2198296
  59.1030006  30.3943024  41.9435425  59.6278572  30.4154282  40.5240135
  23.7037907  71.1817551  58.5036469  23.5506649  70.2470169  58.6416817
  24.6437759  71.2482224  58.3355980  19.7735710  59.6090355  49.3614464
  20.5187817  59.1201973  49.0122604  20.1548138  60.1872444  50.0221748
   8.8547411  66.2368546  24.9345531   9.2406130  67.1110306  24.8784637
   9.2599106  65.8453979  25.7083988  52.7545166  69.3712692  15.3165321
  52.4430656  68.5680161  15.7336845  53.5498695  69.1078949  14.8536282
  54.3636284  13.7016611  23.1788025  54.4484100  12.7573757  23.3105946
  54.4132462  14.0719051  24.0601006  27.1522884  64.2581253  66.9930267
  27.3066826  64.9244995  66.3234406  26.4549847  63.7115707  66.6307068
  52.6754112   2.3302922   1.5879929  51.7869339   2.5825729   1.3366091
  53.2036476   2.5059695   0.8093178  22.7458229  44.8210182  16.6101818
  22.0942383  45.4150391  16.2376099  22.2509556  44.2759285  17.2219105
  78.4933701   9.3752213  27.0591602  78.4341888   9.4879389  26.1104641
  79.2043533   9.9580469  27.3257122  53.5455933  50.7458496   3.0958664
  53.7474327  51.6794548   3.1581218  53.1799965  50.6378708   2.2178504
  61.0296516  27.3475761  74.1319199  60.7829895  27.2704411  73.2102661
  60.5856895  28.1402893  74.4331436  75.6824570   9.6719379  62.4718704
  75.8502808   9.7013645  63.4137840  76.3748856   9.1108704  62.1226273
  46.0186424  37.7715340   1.6887709  46.7510071  37.4094582   2.1875489
  46.1955757  37.5156059   0.7835487  53.2984695  24.1489983   3.3794374
  53.3758202  24.9997959   3.8111689  54.0267105  23.6357422   3.7293923
  81.8418732   1.1562063  37.0076828  82.4451599   1.6374956  37.5739288
  81.7997665   0.2805387  37.3919563   9.6504793  24.3466663  84.6165771
   9.7034607  23.5466709  85.1394806  10.2120686  24.1761799  83.8604126
  69.3238144  27.7698212  56.2319145  69.5384674  27.9302692  55.3129959
  69.2003479  28.6426468  56.6049614  80.4920197  18.3425617   2.4299963
  80.7341080  18.9313545   1.7151896  79.8697968  18.8461723   2.9548256
  78.1421814  43.9569817  76.7135468  79.0370560  43.9322586  76.3746948
  78.1636887  43.3947792  77.4879532  25.4548187  37.8298302  14.2741699
  25.1320915  38.5969353  13.8012791  24.7595787  37.6236267  14.8989534
  48.0729523  11.8491592  87.3930893  47.4178772  11.2545671  87.7585602
  47.5612526  12.5471983  86.9842682  45.7811432  40.5704346  18.4116268
  45.1579742  40.0095673  17.9497623  45.7631302  40.2551155  19.3152199
  38.0915527  50.7681923  53.1414108  38.9620171  50.5537567  52.8059349
  37.9720917  50.1826248  53.8891220  27.0922756  51.8488503  49.1204720
  26.6782913  51.0221291  48.8727303  26.4183235  52.3155632  49.6146393
   4.8836660  33.4880714  18.8852539   5.2797627  34.3579597  18.8339577
   3.9663687  33.6283569  18.6504841  54.1139030  67.6175690  41.4906616
  53.4378510  66.9402542  41.4699249  53.8781700  68.2131195  40.7793388
  27.5338879  50.0198402  53.3063240  26.7047482  49.5513992  53.2097816
  28.1766205  49.4618759  52.8683662  45.1504860   3.4997284   9.2578564
  45.2093048   3.0914881   8.3940783  46.0569191   3.7024601   9.4891815
  67.6410980  36.9643898  51.9398460  68.5055161  37.2085037  52.2706261
  67.8103256  36.6073380  51.0680046  59.0959740   5.2428746  64.2455978
  59.0166702   4.3677902  63.8658981  60.0317802   5.3447466  64.4191589
  10.2394361  53.0297852  49.7331352   9.8308229  53.2972107  50.5563927
  11.1029453  53.4424934  49.7491837  17.0435238  52.6570740  43.0598717
  16.6004677  52.2632332  42.3083267  17.9058228  52.2417870  43.0742073
  73.8305740  41.1846428  19.6549397  73.4075928  41.2299957  18.7974644
  73.3132477  41.7696648  20.2084370  63.8161240  41.6308937  81.4033279
  64.2883835  41.9917793  82.1536331  64.4659500  41.0980110  80.9450684
  41.6638222  17.4092731   3.8868048  41.3402367  16.8563862   4.5980277
  42.2620354  16.8444614   3.3975577   5.0428910  17.2373447  23.4276161
   5.2606025  16.3052578  23.4207039   4.9929738  17.4647636  24.3560677
  54.2135735  60.7148361  68.3604660  54.3131905  60.6463661  67.4109344
  53.9652634  61.6270790  68.5100784  65.8934402  26.5810719  18.8754025
  65.0076828  26.3354988  18.6082706  65.8149490  27.4929733  19.1555901
  55.7151070  25.9094906  52.7743721  55.7792091  25.9113312  53.7294197
  56.1232529  26.7324543  52.5053406  51.7777328  29.1872540  88.4449005
  52.7218857  29.3281231  88.5153351  51.5639114  28.6218052  89.1870422
   8.6266470  54.6867485  83.0377808   8.7626677  54.4761009  82.1140060
   7.7401686  54.3784294  83.2257385  14.3802986  14.4804420  86.2350922
  15.1729012  14.9640961  86.4676666  13.6627932  15.0343590  86.5426559
  73.6115570  31.0546017  34.2512474  73.7606125  31.1892967  35.1871262
  73.1425476  31.8394871  33.9680176  84.8107605  59.9219284  41.7773857
  84.5470428  59.5745201  40.9253311  84.9634247  60.8535652  41.6193466
  81.2836914  60.0030594   2.8763790  81.8526154  60.7040062   2.5582113
  80.9438934  59.5911827   2.0819447  22.6700420   5.3290491  26.6947842
  22.8882065   6.2467494  26.5321102  23.0252876   5.1490684  27.5652084
  33.6115456   3.8655086  15.0600014  33.4637299   3.0396502  14.5991974
  33.5709610   3.6328058  15.9875965  80.4316177  16.3824654  81.3638535
  81.2166901  16.2043495  81.8817062  80.0086136  15.5290718  81.2688980
  85.7804489  25.9804516  54.4139214  85.8081970  26.0422993  53.4591217
  85.6264496  26.8783340  54.7077217  25.5989017   3.1643109  40.9550896
  25.4819221   3.6517403  40.1396408  26.3358555   3.5951891  41.3880730
  19.3709621  51.8578072  69.2724304  20.1954384  52.3402672  69.2115784
  19.1359653  51.9011154  70.1993256  48.9803085  57.4813538  77.9700317
  49.3202324  58.3105202  78.3064346  49.2713127  56.8276253  78.6057892
  33.4551888   6.8119330  17.2773380  34.2803955   6.5982866  16.8418808
  32.8377914   6.9602532  16.5610600  53.9978905  22.0612106  66.8185272
  53.9684410  21.1132069  66.6894836  54.7924004  22.2085190  67.3316422
   6.1547070  18.3312130   9.9450426   6.0818067  18.9210815   9.1947269
   6.6463699  17.5802822   9.6124735  48.8707390   7.4595852  17.5263634
  48.8524857   8.2327137  16.9622955  48.3069534   7.6887727  18.2651806
  66.3280029  51.8680992  51.9379807  65.4895859  51.5644836  51.5899696
  66.6732864  51.1168633  52.4203186  46.2290115   7.4824982  66.4274673
  46.5245399   8.1899366  67.0005493  46.1687889   7.8853040  65.5612335
  49.4303169  60.2130966  68.0692215  48.5300026  60.0536652  68.3524933
  49.6036530  61.1201019  68.3212662  86.5184402  34.7747421  38.0743980
  87.4558487  34.7869186  37.8811455  86.0976944  34.7202415  37.2163582
   7.3420138  45.4070168  10.4291630   6.4439468  45.7273903  10.5132256
   7.7821875  45.7177048  11.2203341  38.9443817  18.7365208  17.4271793
  39.3065147  18.3374557  18.2182789  39.6369057  18.6427670  16.7730770
  27.4146461  21.4774914  55.0921402  28.1588192  21.8379650  54.6099586
  26.6593933  21.9692116  54.7695923  58.5141335  41.4941635  69.5796585
  58.9976044  41.3114929  68.7739792  58.8945618  42.3089371  69.9077682
  75.8816528  19.8601227  40.8761024  75.9729614  20.3013096  40.0315628
  76.5664291  20.2453480  41.4228401  61.7001381  24.3442039  80.8754425
  62.1149826  23.4835949  80.8163757  60.7623749  24.1559887  80.9129791
  40.9513397   3.0584097  32.3653374  41.0243874   3.1759639  33.3124771
  40.0932236   3.4204991  32.1445236  49.6464615  51.2209969  67.3211594
  49.7724800  50.4799385  66.7285461  49.9037514  51.9858284  66.8063126
  40.9665985  59.6577187  78.2254715  41.4748611  59.3318176  78.9682312
  41.0803185  60.6076546  78.2557983  57.4176407  16.9880829  27.0189114
  57.0324402  16.4040966  27.6722183  56.8055611  16.9616375  26.2834568
  46.3411331  10.9349518  61.0164680  45.9410706  11.1679401  60.1786728
  45.6122589  10.6184788  61.5501518  57.6940956  16.4476051  13.5828962
  58.3439064  16.1830883  14.2340574  57.2706184  17.2160206  13.9655638
  27.0195408   2.4046481  82.8028412  26.1623287   2.1193655  82.4865646
  26.9792709   3.3605838  82.7746048  81.5408859  68.8738556  78.5944366
  82.3646469  69.2536392  78.9000778  81.0238953  69.6252747  78.3040390
  51.9482765  20.8896179   0.7127650  52.6696663  21.5179272   0.7452579
  52.2463913  20.2139473   0.1038077   2.2381115  45.5064774  48.9674988
   1.9692562  46.2591820  48.4408264   1.5222402  45.3822212  49.5906525
  65.8086548  45.8663559  12.0406866  66.1656570  45.8918457  12.9284525
  65.7370224  46.7859459  11.7848444  83.3204269  50.2673988  12.9997396
  82.6954651  50.8923531  12.6321878  84.0949249  50.7929497  13.2001829
  72.8026581  41.1287308  45.8199692  72.6274948  40.7772064  44.9470558
  71.9484711  41.4242783  46.1349983  79.4916458  49.8967400  13.0569830
  78.9302902  49.2590599  13.4979792  80.0973969  49.3655663  12.5401192
  17.8317223  60.0950356  24.5727406  17.8389168  59.1386070  24.6104927
  17.1098804  60.3519554  25.1464729  78.4653549   0.8855674   0.3634177
  78.2614899   0.0445565  -0.0456919  78.2364273   1.5364168  -0.3000731
  83.1871414  40.3187599   4.9453244  82.7601395  40.7649879   4.2140384
  82.5998459  40.4599037   5.6878810   4.5004072  46.3636475  10.8164644
   4.1167183  47.1689987  10.4694462   3.7565901  45.8785591  11.1737547
  38.2331467  10.7643356  60.3168755  38.3912926   9.8480196  60.0897484
  37.4190102  10.7493000  60.8200531  79.3846664  26.6473026  18.2938900
  78.6781082  26.0321026  18.0975990  80.1614151  26.2551346  17.8950100
   2.3466380  22.3947659  82.8333054   2.6777506  21.6134624  83.2762070
   1.3986679  22.3588104  82.9609451  53.5689354  14.5643044  87.0049210
  53.9873924  13.7487326  87.2805481  52.6887627  14.3025055  86.7347565
   6.4673944  45.3964233  87.5688629   6.3632712  44.6054535  87.0399475
   7.1391540  45.9030380  87.1124573  50.8711205  39.9589386  70.3325577
  51.3842049  40.6826363  69.9730606  50.8394508  40.1319923  71.2734528
   4.8632360  19.7105560  69.1476440   5.3582602  20.0311852  69.9015579
   4.0840344  20.2657681  69.1190567  22.2074833  61.0088806  77.1104126
  21.2802601  60.9749870  76.8751602  22.2330170  60.7272301  78.0248795
  57.7747192  43.0900345  63.7973328  57.0755005  43.0790749  64.4509430
  58.5280914  43.4585571  64.2586975  73.3604813  12.5010281   3.9906957
  73.3810425  13.4121628   4.2833438  73.0188599  12.0158710   4.7417922
   1.7296154   6.7812552  19.0286598   1.9950421   6.0855479  19.6301346
   2.5266833   7.2917838  18.8862667  16.0774078  36.8483200  61.4694252
  16.2187901  36.4969521  62.3485069  16.9391422  36.8095245  61.0545311
  80.7432480  45.8358688  31.7022381  80.5972977  46.4131470  30.9527836
  80.5176239  44.9632568  31.3799381  14.0586033  70.7221680  31.3377762
  13.2265062  71.0369492  30.9845619  14.1972723  69.8781815  30.9080238
  14.1096754  64.5682144  40.7335587  13.3489189  64.8018417  40.2016754
  14.8598328  64.7222824  40.1593094  45.9893761  56.2216492  34.4037018
  45.7391968  56.0004692  35.3007622  46.3875771  57.0893211  34.4731255
  64.5556641   7.1716948  21.5476456  64.8795242   7.4104185  20.6791096
  65.0024261   7.7730370  22.1434822   1.2522571  21.6881027   9.1577988
   0.8593665  20.8327808   8.9837503   0.5518945  22.1940060   9.5698500
   7.6342940  21.5483475  68.6338348   6.9784751  21.7026024  69.3137894
   8.4300623  21.3224201  69.1154404  69.1681061  68.0313950  40.1474609
  68.8496780  67.2533646  39.6897545  68.4477386  68.6584702  40.0835876
  83.8589096  29.0918446  79.2686081  83.5991364  29.1979790  78.3534698
  83.0340195  28.9735584  79.7395630  11.8292294  30.8205318  10.6106262
  10.8906240  30.9256229  10.7662191  12.1278391  31.6918240  10.3500252
  49.4321899  50.3871040  32.5238113  49.8523369  50.0206909  33.3019180
  48.5632095  49.9859772  32.5094986  63.3018036  42.6712341   5.6565962
  62.8827057  43.4658089   5.3260865  63.6613045  42.9258041   6.5064096
  48.6026611   1.9577746  29.0056973  48.1152039   2.6719110  29.4163399
  48.6714859   1.2908766  29.6888828  11.4972219  22.6860771  71.6817093
  11.5672646  22.2346821  72.5228806  10.6441936  23.1192245  71.7126236
  25.3753967  44.6133118   3.4968050  24.9414425  45.2631874   4.0495982
  24.6579437  44.1308746   3.0860198  32.9460487  64.9393005  27.8181286
  33.7909927  65.2118530  28.1759205  32.6956635  65.6497192  27.2274971
   5.8734050  62.6135712   2.4861791   5.6023569  62.3108902   3.3528678
   5.1713195  62.3270760   1.9020305   9.0834866   9.9451981  69.6522369
   8.5163460  10.5081253  70.1792068   8.5489616   9.7091246  68.8940887
  42.0008736   6.0665989  89.0809402  42.3143005   5.6475682  88.2794342
  41.4574776   6.7927289  88.7748642  26.9307747  61.0960541  79.8423920
  26.8652172  61.4314804  80.7364960  27.3803902  60.2560120  79.9340897
  37.7271347  52.3472672  15.6614761  38.4202728  52.9537201  15.9222479
  37.6977768  52.4132004  14.7070017  85.1533203  70.9999008  20.8350658
  84.3942032  71.3405914  21.3082561  85.8014984  71.7024994  20.8845539
  29.2148628   8.4483118  61.7138329  29.9800911   8.7833538  62.1811676
  29.4760056   7.5749593  61.4217834   2.3968484   7.8274555  81.7658081
   1.8416170   7.6119990  82.5151596   2.9670508   7.0654926  81.6632690
  54.7495232   0.4039490  38.2616653  54.9404411   1.2038192  38.7515526
  53.8014908   0.4236529  38.1309738  44.9494019  13.3427124  21.0250950
  45.7147141  13.2450933  20.4585247  44.6184044  14.2197552  20.8315258
  82.1222534  11.3055925  78.7325668  81.6400223  10.5137386  78.9705734
  81.5801239  11.7243166  78.0639877   8.1106520  38.3431511  41.7576485
   7.5441217  39.1146927  41.7587204   7.8868880  37.8805771  42.5652275
  57.4565620  36.0668564  28.6545925  56.9451218  36.1216660  29.4618473
  57.2416840  35.2070923  28.2928333  45.3044128   1.5403550  32.6486359
  45.0909233   1.1004994  31.8257275  45.9683418   2.1870139  32.4093437
  51.1622276  69.4864349  51.6488762  51.9885292  69.0120926  51.5569420
  51.3405647  70.3517914  51.2806473  36.8321915  14.2016230  14.2839832
  36.5144386  13.9017019  13.4323311  36.0574303  14.5621099  14.7152929
  52.8360786  51.1656570  64.9588776  53.0802383  51.8713531  64.3600388
  52.4286003  50.5057297  64.3979034  73.2450867  47.3750954  36.1962509
  73.8852921  48.0815620  36.2815628  72.4023361  47.7928581  36.3736725
  48.8004875  67.3729935  35.1136208  48.9403725  66.4654083  34.8435249
  48.0501137  67.3334808  35.7065887  30.6744061  22.6863670  13.7006683
  29.9840336  22.5602016  13.0497465  30.9830875  23.5801888  13.5522432
   4.7913489  62.7538452  58.8843842   5.0406423  63.6240959  58.5733490
   4.7363906  62.2223091  58.0902290  67.0345383  26.9796200  23.3208256
  67.5340881  27.5772896  22.7645245  67.0613556  26.1424198  22.8575668
  82.4657135  17.1390171  62.0650787  82.3175735  17.9552689  62.5425949
  83.3348160  16.8519764  62.3452454   0.3175564  20.1470356  -0.1418377
  -0.2211820  20.9341393  -0.0614514   0.6822689  20.0160065   0.7334040
  42.7239151   2.5588889  63.8090706  43.4084396   2.9744883  63.2847252
  43.1042938   1.7236090  64.0808258  57.8471413  12.5582848  30.9160938
  58.7658157  12.8258343  30.8898354  57.8732452  11.6043940  30.8409786
  31.8307629  59.0190582  62.1732750  31.1987514  59.6832352  62.4483490
  31.9252529  59.1542931  61.2304001  72.8006439  20.4807396  18.0671101
  73.2649994  20.1357117  17.3045082  73.3540421  20.2445698  18.8115616
  19.9321651  53.2179680  14.2318516  20.7642632  53.0855370  13.7776432
  19.3166199  52.6435928  13.7764063  17.3101063  19.4974308  24.8303814
  17.4660072  19.3540192  23.8969154  18.0675468  20.0032444  25.1247749
  15.0493546   7.6547689   5.3318253  15.0917025   8.6027584   5.4573402
  15.8538103   7.3240786   5.7314820  67.0049515  66.2038651  41.2408905
  66.3239594  66.1371689  40.5715408  66.5241241  66.2767639  42.0653381
   8.4372263  57.8127022  39.3736382   9.1606426  57.8738861  39.9974632
   8.3956699  56.8840370  39.1454048  46.7666664  69.1739120  45.3909035
  47.3616791  68.4305649  45.2928085  46.7790489  69.3685760  46.3280182
  18.5972290  48.9674454  87.3684387  18.0430813  48.4561729  86.7787323
  19.2294502  48.3355942  87.7109222  61.9277344  17.4738789  24.8623123
  61.0055161  17.7272758  24.8231735  61.9517174  16.5971832  24.4788246
  14.6470041  38.7023201  53.7112503  14.1008358  38.8417740  54.4848671
  14.7745075  39.5782776  53.3470116  84.2106934  42.4910316  31.7878399
  84.0645828  43.4369621  31.7782078  84.4865036  42.3003960  32.6843987
  66.4193878  59.1050034   8.6822100  65.5051956  59.0193138   8.4117556
  66.7668686  59.8075676   8.1327610  14.0598974   9.8771152  26.7427158
  14.4827633  10.2819796  27.5000134  13.5136280  10.5712404  26.3739185
  58.9781151  51.7623558   7.0308518  59.5068398  51.0516891   6.6680408
  59.5067177  52.5484276   6.8933411  26.6894913  56.2172165  10.8294697
  26.0813408  56.8733139  10.4890032  27.0138683  56.5931206  11.6478252
   3.3929203  13.6184711  82.8140869   3.6666009  12.7091637  82.6937027
   3.6688089  14.0599737  82.0108490  76.8726730   7.6186786  36.8712502
  76.2305908   8.0721035  37.4174843  76.3948593   6.8723636  36.5093956
  17.6744118  38.2142525  79.7221985  18.5289135  37.7846489  79.7609253
  17.1918068  37.7277336  79.0538940  18.4413471  39.9354515   2.3456016
  17.8412857  39.7648163   1.6196247  18.3483944  39.1734085   2.9173408
  54.1825218  50.8801613  37.4410629  54.7073021  51.3214760  38.1089516
  53.5697670  51.5496635  37.1368790  24.9542294  43.8703918  60.2957764
  25.2790070  43.4924393  59.4785233  24.5395336  43.1372833  60.7505417
  66.4036865  67.9159088  25.1950665  66.3165359  68.2389984  26.0918636
  66.4895401  68.7068329  24.6628113  77.5508652  57.5188370  81.8678436
  78.2770767  57.0792809  82.3101425  77.0919342  56.8172913  81.4058380
  81.8260345  58.8734779  70.9249344  81.5344238  59.6670113  70.4760437
  82.6505890  58.6448708  70.4958878  23.0594311  38.1667061  80.8484573
  23.3614597  38.9773369  81.2582016  23.0243587  38.3694763  79.9136353
  34.4841614   3.7720711  68.6375961  33.6671753   3.2947984  68.4927750
  34.6723099   4.1859531  67.7952576  81.1256180  46.7895012  55.5154114
  81.4454727  47.5228157  54.9898834  81.9153595  46.3056908  55.7572136
  31.6127605  67.5288696  17.1325855  32.5575905  67.5030365  16.9813786
  31.3926563  68.4602432  17.1143093  68.3751526  45.4970551  53.9592819
  67.6759109  44.9789848  53.5606689  67.9787750  45.8680153  54.7476349
  11.1705313  30.6507130  69.2552109  11.8513050  30.8223591  68.6045837
  11.1561165  31.4375687  69.8000793  14.5874968  54.1441917  56.7976646
  14.4493618  53.2091942  56.6462440  15.5246048  54.2219696  56.9765778
  76.5284271  27.0676212  37.5069466  75.7591095  26.5844650  37.8085175
  76.2457275  27.9819736  37.4904633   8.3556538  21.6893234  31.7198486
   9.1699476  22.1372757  31.9489708   7.6649790  22.2915268  31.9965286
  83.4876328   2.9697402  30.3278370  84.3011322   3.1580145  30.7958126
  83.4977417   2.0208871  30.2021084  70.7838287  51.9013405  58.6795082
  70.8464050  51.3436890  59.4549675  70.9495392  51.3100243  57.9452591
  48.1037140  54.1850243  62.8739891  47.7328911  54.2158203  63.7559052
  48.9664917  53.7872505  62.9906960  62.9125557   2.9268098  26.0232086
  62.9869461   2.3614676  25.2543869  63.5075798   3.6547835  25.8436737
  32.5137215  50.7698898  78.5757370  32.2725296  51.1011505  77.7106781
  33.3828087  50.3882141  78.4522858  67.9289932  53.0156136  56.5116768
  67.3648758  52.3568649  56.9167137  67.4187698  53.8245544  56.5506935
  46.0918961  36.5697060  80.3063431  45.2430153  36.8643112  80.6362534
  46.6228752  36.4412880  81.0923538  31.9387093  45.1530533  66.3384857
  30.9845982  45.1268768  66.4107208  32.2465248  45.1907768  67.2440567
  40.7841034  40.7481689  13.7289104  40.0106659  40.3949203  13.2893133
  41.0979042  41.4379044  13.1440792  85.4038315  20.9401970  71.7456589
  85.7772293  21.7700005  71.4486237  84.6930923  21.1944275  72.3342514
  64.7248154   9.1665125   5.1489401  63.8185806   8.8691139   5.0681343
  64.9862137   9.3839836   4.2541723  35.6209679  56.9558449  63.3663177
  34.7677727  56.5227547  63.3393173  35.4630661  57.7660599  63.8509293
  35.5797386  24.7955647   6.8670592  35.1535797  25.6377087   6.7076468
  36.3186531  25.0053673   7.4382133  72.2157059   5.1475396  73.0671158
  71.7502899   4.4023347  73.4469681  71.5681381   5.5732360  72.5052719
  64.9054031  48.2420502  17.2233562  64.9151382  47.3483772  16.8805923
  64.0011444  48.3807182  17.5049973  69.0873642  21.8666592  88.6492844
  68.3296814  21.3411713  88.3923798  69.6495895  21.8710155  87.8746185
  45.4820900  19.9674416  37.2529984  44.9160309  19.6973343  36.5299149
  45.9343796  20.7449074  36.9255676  27.8691177  57.6351624  12.8075323
  28.7527542  57.4794235  13.1409454  27.8713417  58.5553169  12.5438318
  82.7489548  25.3101978  44.1123695  82.2136688  25.2096081  43.3252335
  82.6050186  26.2161694  44.3857346  39.7877769  14.2337303  72.1900482
  40.2351151  13.4004564  72.3376236  38.8741760  14.0583162  72.4154205
  55.0591660  57.7241669  52.7396317  54.7039032  57.8189812  53.6233902
  55.5011177  56.8751564  52.7489624  31.2214890  52.9305229  50.7150459
  30.9719181  53.6639900  51.2771606  32.1638336  53.0377235  50.5857010
   2.1101532  17.2116032  34.9634399   1.5203865  16.7313042  34.3823051
   2.4626141  16.5440483  35.5519753  49.1607323  68.4192200  71.6568222
  48.4738770  68.9119110  72.1059494  49.9102097  69.0143890  71.6396561
  32.8179131  45.4512901  14.7997923  33.5703964  44.9888916  15.1688299
  32.2580414  45.6375275  15.5535097  77.5225296  43.9127769  19.3417339
  76.9978180  43.5592003  20.0599918  78.3770142  43.4927368  19.4400024
  56.0271835  22.9468689  39.9641800  56.4601173  22.6856956  39.1514130
  55.1263695  23.1399345  39.7043800  21.2169876  62.2389221  80.2414093
  20.9995155  62.3679543  81.1646042  22.1677074  62.3430672  80.2024765
  32.8918228  25.3197937  80.1681061  32.0048180  25.6718655  80.2422485
  32.9800339  25.0854092  79.2442474  43.1208649  47.2035789  43.0090256
  43.8424416  47.2506561  42.3818588  43.3774567  47.7975960  43.7143860
  25.7891216  71.1504440  17.9720650  25.4288311  70.3014755  18.2283249
  26.6758823  70.9531326  17.6704807  71.9465790  59.1490440  31.7339687
  72.5982056  59.7087860  31.3117085  72.2827759  58.2603951  31.6177425
  32.9826469   9.6765099   2.7576556  32.2381973  10.1920996   2.4475062
  33.4683647  10.2747440   3.3254833   3.7912550  22.2851124  33.2147865
   4.4004154  21.9001102  32.5847626   3.0962820  21.6331310  33.3051414
  57.2382431  67.2943573   7.8887033  56.3086700  67.4977951   7.9923563
  57.5763245  67.9958496   7.3320704  30.8350525  59.7385483  20.7752323
  29.8878403  59.7122574  20.9106274  31.1999950  59.3168259  21.5531769
  76.4533844  27.7252274  22.2360859  76.8026505  28.3420715  21.5928516
  75.6586990  27.3796177  21.8295746  56.2244263   7.5881944  37.9986076
  55.5065727   7.7033906  38.6212196  56.4031105   8.4704590  37.6731606
  42.9404068   2.2886896  26.4703655  43.3463249   2.2688544  25.6037254
  42.0038567   2.3784921  26.2941856  22.8315163  57.2022247   6.3225913
  22.3394203  56.6535339   6.9333396  23.7214279  56.8506203   6.3483605
   7.9619875  30.3266296  54.7827148   8.7371626  30.6929016  54.3570633
   8.0496178  29.3805256  54.6667938  83.4055481  67.0296936  10.9354496
  84.1306000  67.5719833  10.6248732  83.8047791  66.4388657  11.5740185
  26.2226467  40.2541618  84.7314987  26.5926342  40.6417313  83.9383240
  26.7254200  39.4501953  84.8622208  47.6922226  68.3813477  24.1942520
  48.3924675  68.1604156  23.5801868  47.8483429  67.8144836  24.9495811
  56.3927536   8.2596884  74.7605743  56.5468788   8.9597969  75.3948669
  55.4636116   8.3340101  74.5428696  74.6695251  25.5423717  54.3875732
  74.5610123  25.6242466  55.3350716  74.4841614  26.4181805  54.0487022
  80.9114761   8.5135088  81.2440643  80.5092773   8.5262690  80.3755569
  81.4385300   7.7145195  81.2522278  12.8834810  43.0652046  59.4838982
  12.6154013  43.9832458  59.5234299  13.6453629  43.0629082  58.9044456
  62.3329659  26.1136894  78.8503342  62.6540565  25.3383121  78.3899841
  62.1758156  25.8129025  79.7453613  66.1810684  64.9495697  57.9024277
  65.8373718  64.1494598  58.2998314  65.6117630  65.1064987  57.1491051
  56.7033043  60.9832649  13.4372835  57.5913010  61.2474022  13.6779642
  56.4671288  60.3191681  14.0849180  66.6860123  18.9532242  16.3144016
  67.0317307  19.6920872  15.8136082  66.7180099  19.2454014  17.2253571
  24.5157394  18.9989128  26.1170712  25.1783829  18.3339157  26.3039227
  24.7717896  19.7494392  26.6531525  67.9990005  27.6760082  32.5146141
  67.9657669  27.4817028  31.5779305  67.2222443  27.2487087  32.8755722
  16.9966869  62.8355675   9.0857916  17.0084381  63.7826157   9.2243309
  16.1435127  62.6622772   8.6879263   1.5893655  47.4560509   4.4945073
   1.8343899  48.3608932   4.6880379   1.5327615  47.4222488   3.5395806
  64.2679367  23.6977882  20.6444397  64.3060684  23.3063812  19.7717552
  65.1840439  23.8346310  20.8857994  79.7079086  63.2035980  32.9258041
  79.4043579  63.2381096  32.0186691  80.5423355  63.6725197  32.9171562
  73.3675308  27.6645164  53.3398018  72.4919586  27.4524498  53.0163422
  73.2591629  28.5000095  53.7941589   1.5124841  23.0758610  60.6979675
   1.4026090  23.1172905  59.7479973   1.6127623  23.9888325  60.9675217
  18.6084328   8.8991852  84.6015167  18.8565121   9.1249123  85.4980316
  18.2581081   9.7124138  84.2379761  69.8742523  28.4523678   3.0424807
  70.5716324  28.8325996   3.5766244  70.3109970  27.7764301   2.5242190
  27.5842609  65.0634995  76.5110703  28.0416660  65.6836395  75.9432297
  27.5104256  64.2669525  75.9854279  74.3235474  27.9247398  66.2548218
  74.9977493  27.3201294  66.5648804  74.4980316  28.0182190  65.3183136
  61.0431175   6.0302773  83.9168930  61.8557739   5.8781934  84.3992767
  60.3673286   5.6075306  84.4468307  21.0095139  61.7400818  44.6663132
  20.1568699  61.3617439  44.4516335  21.1202908  62.4532089  44.0374947
  82.5801926  29.4863300  74.3547211  82.2358475  28.8593769  74.9907913
  83.1608582  28.9679222  73.7976685  21.8836040   3.9932411  88.6581879
  21.9703026   3.9717178  87.7051620  22.0628052   3.0947399  88.9353409
  64.4702301  69.1210327  16.8494701  65.0055084  69.1086807  16.0560246
  63.7045479  68.5901337  16.6301231  58.4545822  25.6251945  69.7741852
  57.5045967  25.7224236  69.7085648  58.8011208  26.1833248  69.0780258
  26.9708900  46.2156906   8.5281630  27.4123783  45.3678360   8.4784918
  27.1653194  46.6363983   7.6906457  80.5607605  38.8041000  18.8462448
  79.7122803  38.9384232  19.2684574  80.3458405  38.4429550  17.9862366
  72.6136475  10.0845556  35.4593468  73.4346466  10.4946222  35.7314491
  72.0560684  10.8166256  35.1958809  84.1744995  36.3767586  24.8727245
  83.8962631  36.3495064  23.9572620  83.3672714  36.5294113  25.3639545
  20.2339420  54.0551109  16.8504887  20.9982338  53.6729736  17.2818375
  20.2351055  53.6688080  15.9747028  75.2074661  53.4871826  56.3721695
  74.7374344  52.6767387  56.5683441  75.2446289  53.9509926  57.2086678
  60.0302505   2.2790732  47.0747681  59.3109436   2.0135977  47.6477852
  60.6386452   2.7403533  47.6520996   2.0534489  22.8930035  17.6129189
   1.2427168  22.4443569  17.3727913   2.6396468  22.1920853  17.8980827
  10.4426899  21.5659428  26.2079697   9.8355923  21.6983471  25.4798679
   9.8929310  21.2452545  26.9229202  52.2729721  48.0347672  57.4433861
  52.7911530  47.2348671  57.3546219  52.8090363  48.7140503  57.0341949
  16.4813194  27.7143307  64.9364319  16.5735779  26.7654972  65.0226517
  15.9909401  27.8343773  64.1231995  72.1815109  52.8601112   6.8963757
  71.7997208  52.0692596   6.5155568  71.9966125  52.7883453   7.8328023
   1.8005172  38.8795013  10.3944750   1.8813480  37.9374008  10.5432930
   2.6219809  39.1262093   9.9695454  71.5519104  39.3375816   4.6782074
  71.3368073  39.3445930   3.7455153  71.4614944  38.4207535   4.9379745
  17.9642506  51.7899017   4.6994123  18.5898476  51.0702019   4.6164069
  17.7551708  51.8190346   5.6330442  74.8856201  60.3094711  10.4106722
  74.9772491  59.3709030  10.2465801  75.6760941  60.5460777  10.8958635
  33.0328789  11.4110727  81.6559601  32.9435806  11.1382742  82.5691071
  33.3099403  12.3259687  81.7053070  37.5251694  52.2856674   9.1226959
  38.2118530  51.6344185   8.9792595  37.8807144  52.8639603   9.7975245
  30.0058193  22.7155933  86.5074997  29.6966267  22.3231468  87.3239670
  30.5650539  23.4404545  86.7868958  36.2808266  12.1848001  75.2884827
  37.0054855  12.4785919  75.8405609  36.6042824  11.3846960  74.8744278
  72.1859131  43.4951172  42.4091873  71.8165054  43.7742004  41.5714035
  71.5671768  43.8192863  43.0636444  77.4305801  38.3624268  53.4235878
  78.3643417  38.1549759  53.3876953  77.2251205  38.6939774  52.5494652
  52.4635849  64.0650177  87.8882904  52.3154602  63.2374535  87.4306564
  52.6099358  64.7023849  87.1893005  24.8001003  63.1850471  14.5998755
  24.1545334  62.6905403  14.0949621  25.5097351  62.5621109  14.7567148
  53.5779457  11.0804615  10.8353262  54.0698280  10.5074987  10.2471085
  54.2308388  11.6926432  11.1747360  23.5542183  67.3940811   0.9323787
  22.6598282  67.3860092   0.5914450  23.6883488  68.2933350   1.2316786
  74.0090408  12.6712723  57.8721123  74.8009567  13.0975285  58.1998405
  74.1701050  12.5540276  56.9358711  74.5816193  56.5209999  86.7514114
  74.4965820  55.5786362  86.8961563  73.7281952  56.8788643  86.9960022
  74.8714676  59.1716118   6.2204771  75.5917130  59.1431427   5.5906620
  74.0970764  59.3601608   5.6903853  65.9209442  11.0754538   6.8247766
  65.4222107  11.2463961   7.6236992  65.4172668  10.4021034   6.3674626
  59.8501587  39.4868736  30.3138924  60.3899422  39.1112518  29.6183548
  59.7741928  40.4130402  30.0843811  34.9686546  55.8924866  60.5258217
  34.7360916  56.1501427  61.4178772  34.2232513  55.3730392  60.2245255
  65.9944000  68.9500122  27.7034073  65.1556702  69.3366623  27.9549522
  66.5066605  68.9422684  28.5119591  52.6915283  40.2617798  55.2932358
  52.2299156  39.8228188  54.5787735  53.5857315  39.9238319  55.2440147
  58.1112709   2.5446861  49.4544563  57.3580818   2.8140705  49.9801598
  58.6559067   2.0390799  50.0577507   3.8773565  48.0010109  84.6484375
   3.5067081  48.8700180  84.8023148   4.5469198  48.1413231  83.9789429
  30.9249477  64.2500153   9.5925446  30.1452751  64.7000885   9.9177790
  31.0925961  64.6482620   8.7384214  59.4805946  57.0509758  60.0108910
  58.6546249  57.5337982  60.0406723  59.4056549  56.4046364  60.7129326
  74.1947784   2.7432349   4.7492619  74.0873947   1.9314651   5.2449737
  74.1252670   3.4359827   5.4061489  64.3593903  17.7359314  87.2535858
  63.7880058  18.2717571  87.8037262  64.8112869  18.3661022  86.6924286
  69.6818008   6.7526059   8.2765417  69.7984314   6.2487803   9.0820160
  70.1834946   7.5548773   8.4210920  27.2249107  68.1210327  73.2594070
  26.7650166  67.2819519  73.2851791  27.7633152  68.1234741  74.0508270
  24.6239414  29.4157181  77.7710266  25.1730480  28.9203396  78.3787384
  24.5974159  30.2993622  78.1380463  52.1364708  65.4994659  75.6254501
  51.5971031  65.2332382  74.8808441  52.9056778  64.9316483  75.5791702
  76.2016373  33.5167046  86.8668976  77.1404724  33.3332939  86.8325348
  75.8262634  32.7606964  87.3183212   2.9116366  29.8076973  43.4824982
   3.7163136  30.1522655  43.0952034   2.2256320  30.4014549  43.1774063
  82.5836182  49.8534203  67.6773529  82.7329254  48.9244308  67.8531799
  83.4357300  50.2646179  67.8224564  17.2631874  61.5496979  79.1788559
  17.1566200  61.6724854  78.2355652  16.8957062  60.6826897  79.3505630
  81.4697113   1.1094327   4.5071931  82.3214417   0.9702466   4.0931802
  81.2298431   0.2509615   4.8560801  45.2869568  66.8492126   0.5158014
  44.6776505  66.4330673  -0.0939525  44.8955879  66.7096558   1.3781163
   7.8986263  13.1039009   4.9633803   7.4204254  12.2878094   4.8165822
   7.6695161  13.3582850   5.8572650  39.4063988  51.4559517  22.8928051
  39.3132820  50.9531021  23.7019424  38.7231331  52.1241837  22.9461136
  18.9238510  23.8879242  87.0926590  19.7364674  23.4565411  87.3568420
  18.5812206  24.2690544  87.9011002  12.4571075  43.8022804   3.6836512
  11.6390429  43.6186028   4.1454577  12.4325132  43.2306442   2.9162798
  83.2069778  58.5212555  39.5051346  83.2495804  58.5975571  38.5519333
  83.2043304  57.5783730  39.6700554  19.7422199  34.7367630  29.8782749
  19.9585400  35.6561737  29.7229652  18.7890892  34.6982613  29.7989616
  47.0888519  11.2053108  52.6257286  47.9076996  11.3793306  53.0898857
  46.4202499  11.2069597  53.3107071  72.6941757  53.1087189  50.2637024
  72.8239441  52.6992188  51.1190948  71.9301605  52.6627808  49.8981133
  71.5719910  49.5690536  10.2599363  70.8567352  49.8670311   9.6979332
  72.3272247  50.0869255   9.9812641  76.2212677  44.3841782  88.2001801
  76.4420319  44.6592903  89.0900192  76.4351501  45.1415520  87.6553192
  13.8519545  39.4191284  19.7052326  14.0796175  40.3200645  19.4756317
  13.0439157  39.4980621  20.2122593  33.4090080  53.9381294  53.8997726
  33.9862175  53.3818893  53.3766479  32.7916069  53.3288956  54.3045921
  58.1515236  17.4733200  54.6847916  57.9658241  17.5624504  55.6195679
  57.5276070  18.0616074  54.2594986   3.4049296  58.2346420  82.8070221
   3.6142771  57.5675812  82.1532364   3.0731032  57.7398796  83.5562439
  69.4008942  70.8198318  12.8122835  69.7596207  70.7519073  13.6971188
  68.7339630  70.1344681  12.7709560  28.7777252  13.3421211  62.7748032
  29.1094494  12.9114475  63.5626564  28.0009480  13.8169413  63.0704269
   1.5956237  60.5591431  11.7759018   2.4109674  60.7108459  11.2979565
   1.5851704  61.2360458  12.4526043  34.1287918  12.0171947  13.8634024
  34.6372528  11.2256241  14.0397930  33.6424446  11.8162441  13.0638294
  -0.2801582  55.1210823  26.0670643   0.4025847  55.0736389  26.7362747
   0.1916595  55.3135376  25.2567673   2.4028432  59.7146111  34.2382927
   3.2166657  59.7636948  33.7367783   1.7135489  59.6908264  33.5745621
  76.0851059  24.8793697  48.1869278  75.6767120  24.7521973  49.0432396
  75.3807831  25.2166042  47.6333694  58.9123688  23.4130840   6.7767267
  59.7267685  23.5213108   6.2855296  59.1844482  23.0278931   7.6096945
  16.4842033  24.0909691  78.3282394  16.4831543  24.9081459  77.8297882
  16.5783806  24.3666916  79.2400208  85.6756897  21.6132107  37.3297615
  85.8047867  22.5614033  37.3074799  85.6892166  21.3479710  36.4101448
  61.7163124  40.4932785  87.5010834  60.9126816  40.0662384  87.2043533
  61.4954224  41.4241219  87.5323029  16.9109879  58.0851250   4.3978767
  16.8845863  57.4529839   5.1161599  17.7535686  57.9282761   3.9716284
  64.5444946  57.5641747  85.4120636  65.2434464  57.0531960  85.8202286
  64.5525589  57.2910843  84.4946823  42.0478096  35.8401642  79.2503891
  41.6429520  35.5444603  80.0657883  42.4684906  36.6690941  79.4787064
  15.1913757  61.0839882  82.1670609  14.8580227  61.8313255  81.6704788
  15.3087463  60.3949966  81.5130386  47.3036575  33.1323357  39.7266998
  46.4556923  33.4949837  39.4704285  47.7650833  33.8660812  40.1328239
  64.9711456  60.4060707  75.0604553  64.3266144  60.6582069  75.7217026
  65.8128967  60.6649895  75.4354935  81.6989059   5.2901025  20.1742249
  81.8435516   4.3700342  20.3950939  81.6549530   5.7354908  21.0203495
  59.3660316  50.0865364  46.6255569  59.9955635  50.1893272  45.9118652
  58.5691185  49.7721405  46.1985703  11.2124577   2.7564919  46.0951958
  11.5257339   2.7806196  45.1910362  10.3114223   3.0756395  46.0450821
   6.1687078  14.2585402  53.9600563   5.9325633  13.7943525  53.1569366
   7.0880919  14.4954567  53.8382530  41.6066208  49.1274796  86.7549438
  41.2628899  49.5237808  87.5555878  42.5231552  49.4020157  86.7261963
  28.8988667  23.5210342   5.4819179  28.3663998  22.7402191   5.3301325
  29.4549942  23.2907295   6.2261705   7.2537780  64.7104950  28.2647648
   7.0023098  63.8284264  28.5385380   6.6893344  64.8985901  27.5149269
  31.4747410  22.8979111  66.1063614  31.6192837  22.0571213  65.6722946
  32.1273384  22.9214706  66.8062134   8.1899357  15.5222769  27.3112965
   7.3779836  15.0427017  27.1470604   8.7293539  14.9140224  27.8165550
  40.1421280  37.3555603  72.6320038  40.1895905  38.0286484  71.9530792
  40.9176064  36.8135986  72.4865952  53.6304359  36.1762848  76.1241608
  54.2082901  36.2656631  76.8820038  53.3936348  35.2489243  76.1115723
  69.8905411  59.9622345  62.4226952  70.1705475  59.5061111  63.2162819
  69.8848648  59.2848129  61.7464523  81.0319595  66.8143234  76.6486588
  81.4440613  67.4026871  77.2813034  81.4109268  67.0650787  75.8062057
  77.2144241  16.5270901  83.4794464  76.2890320  16.3498573  83.6481552
  77.4302826  17.2520103  84.0660706  20.4664497  52.9729919  82.0224152
  19.7071342  53.4658165  81.7112885  20.6214714  53.3049240  82.9067307
  69.7578278  17.5134907   1.4203520  68.9354401  17.1626682   1.0785384
  69.4989548  18.0307312   2.1830316  55.6277924  20.2384186  10.2843313
  55.8750191  21.1097851   9.9747639  56.3621712  19.9616451  10.8323402
  67.5174408  54.9612236  48.6907959  67.2882614  54.1495399  48.2381630
  67.9314804  55.5018883  48.0181198  68.8762665  31.8898773  36.1129951
  68.2612000  31.2514153  35.7520294  68.5339279  32.7381401  35.8310623
  15.6684847  59.1583366  55.0949898  15.6535816  59.3737030  54.1624527
  16.5481472  59.4021225  55.3830795  73.8411407  16.5777969   2.9356687
  73.5939713  17.4877777   3.1002109  74.7609863  16.6228867   2.6747236
  81.8647766  56.6776276  16.8876991  81.1734695  57.0984154  17.3988400
  81.6119080  55.7549515  16.8567505  76.5071411  56.7187996  33.1059074
  76.8478012  56.2737160  32.3299637  77.2404022  57.2480431  33.4197044
  53.4137573   5.5549636   2.4195850  52.6941261   5.5386128   1.7886368
  54.1947098   5.7098308   1.8882098  13.0582123  67.7540970  41.5616112
  12.2859983  67.9065247  42.1062965  13.5519524  67.0804443  42.0292130
  79.5549622  17.6089649  46.6169777  79.9035339  17.1663799  45.8431282
  80.3231812  17.9928169  47.0397453  28.9032497   3.2657821  12.0582619
  27.9885998   3.3137860  12.3363714  28.8652439   2.9105494  11.1702318
  21.0566654  55.2896843  27.8852940  21.9935665  55.1307335  28.0001068
  20.9741383  56.2433167  27.8821735  57.0490646  20.5482597  82.8166199
  56.8240547  20.0491009  82.0314789  56.9111099  21.4620399  82.5672150
  23.0792179   4.1395235  85.9916306  22.5398941   3.9023786  85.2372284
  23.2938004   3.3032727  86.4049911   4.8514481  51.9459152  33.8260078
   5.1037121  51.1274834  33.3984947   3.9070749  52.0094719  33.6833496
  74.9502029  66.6567535  18.6516857  74.6274414  67.4381943  18.2029057
  74.7983780  66.8338089  19.5800343  43.8102074  46.5088806  61.7200203
  43.1592407  45.8981476  61.3743629  44.4950333  46.5325890  61.0516739
  24.3450851   6.3857813  89.0681992  23.9396114   6.2495503  88.2118912
  25.0195446   5.7088804  89.1242599  54.5878143  69.4456711  19.7040024
  54.3945847  69.8711166  20.5394020  54.0199738  69.8879547  19.0729885
  52.0938339  22.4709549  55.4060478  51.7848129  21.9747009  56.1639862
  52.0314827  21.8557758  54.6753654  68.0030060  55.0565948  77.5774155
  68.8613968  54.9975739  77.9968338  67.9106674  55.9817810  77.3499603
  40.1533852  60.4812202  81.9542847  40.4837265  60.3487167  82.8428497
  40.5430374  59.7702827  81.4453964  81.5864029  15.1986008  64.9636688
  80.9023361  15.0989332  65.6257477  81.7039261  16.1449795  64.8812866
  39.3550339  33.7327766  85.3124313  39.8436508  33.9909668  84.5308762
  39.9152946  33.0868225  85.7426453  41.7457581  50.0675697  54.7045898
  41.9769707  50.9964104  54.6998024  42.5834808  49.6117897  54.6226234
  10.3717642  35.5115929  88.8944778   9.5532084  35.5794373  88.4029541
  11.0350647  35.8721771  88.3060532  78.6379395  20.3838043  58.1048279
  78.0802689  20.4032650  58.8825569  78.4882355  21.2291813  57.6815529
  11.0966902  41.2014084  35.7914886  10.4365644  41.8833084  35.9159088
  11.6329803  41.2398720  36.5834122  80.3883591  43.2960014  40.5365295
  79.8322678  43.2866440  41.3155746  80.6012878  42.3754730  40.3831787
  70.9861984  59.8641586  24.7153969  71.2739868  59.1405373  24.1588173
  71.5418243  60.5998878  24.4580593   6.5796909   5.9949040  23.2586899
   6.4046702   5.2994518  22.6246967   6.3131022   6.7985864  22.8123055
  23.9433308  63.6850204  41.2386208  24.7265472  63.6883316  41.7888870
  24.2681618  63.8749886  40.3584938  70.4032974  33.0213966  86.6243439
  71.1240005  32.6701469  86.1014252  70.5294266  32.6396751  87.4930267
  78.9578400  48.6110535  16.4407310  78.3107529  48.2485428  17.0457859
  78.8948593  48.0571632  15.6626101   5.9807138  51.2623901  55.5904961
   5.3858151  51.1610451  56.3335037   5.4278822  51.1271973  54.8208656
  51.4513550  35.5066910  54.3538666  50.8397675  35.6350288  55.0789337
  51.4179649  34.5667801  54.1758728  20.6621571  44.4227943  18.2290192
  20.8136673  43.9907455  19.0696220  19.7320004  44.2825813  18.0518703
  78.2738724  20.4315434  44.6780663  77.8297577  20.1238880  45.4682198
  79.1140594  20.7669926  44.9907722  30.6020966  50.2217865  87.6459198
  30.8315449  49.3586922  87.3014603  30.6948662  50.8108940  86.8972015
  32.5770264  18.9318581  84.2405853  32.2770386  19.5933914  84.8639755
  33.2567863  19.3733501  83.7314301  53.3539276  18.7314320  11.3481445
  53.7069206  19.5157928  10.9281397  53.1670189  18.1350441  10.6231489
  63.7185097   2.1347520  28.6683750  63.0992203   1.5442255  29.0973129
  63.3929482   2.2130597  27.7716541  51.2899513   0.8764265   5.5815949
  51.2797432   1.4197297   6.3695984  51.0592766   0.0006483   5.8914895
  69.2402191  42.9096413  19.7730560  69.3336334  42.9726105  18.8225079
  69.4515228  43.7866516  20.0931091  20.8399372  11.2016220  61.3224907
  20.7953606  10.2469234  61.2696190  20.5081959  11.4088697  62.1961174
  10.8148994  54.1307945  20.8082581  11.4557371  54.5325546  20.2216187
  10.3325844  54.8700752  21.1784840  37.1700554  54.0989113  33.7003212
  36.3338890  53.6513138  33.5710258  37.2685738  54.1524658  34.6509285
  45.0196915  56.2431946  73.3718262  45.0110741  55.6439781  72.6254349
  44.1207161  56.2295876  73.7002869  80.0377197  59.2552757  73.3241730
  79.8172226  58.3917313  73.6733246  80.4428482  59.0743904  72.4760132
   0.9656270  10.6709270  18.3614197   0.4278359  11.3329115  17.9269199
   0.6253849   9.8364344  18.0387917  55.9784813  62.8590126  84.9979477
  56.6386566  62.3586006  85.4775238  56.2143478  62.7458992  84.0771866
  77.9858398  47.2261391  13.6194687  78.0041656  46.3358994  13.9707117
  77.4401016  47.1631622  12.8356094  29.2480698  14.3110571  17.1649761
  29.9197807  14.8409910  16.7357826  28.5716763  14.9397755  17.4168415
  81.4066467  35.5224228  59.1084671  81.5025253  35.5596695  60.0601273
  82.0978851  36.0947495  58.7755165  73.5318222   1.5584621  13.1667280
  72.8348236   1.2162749  13.7264881  73.5896301   0.9314147  12.4458256
  48.0124741  53.7317009  59.5119400  47.1238022  54.0662155  59.3911324
  48.1860847  53.2218094  58.7206764  56.8808479  28.4047241   2.2578683
  57.0837212  27.4889374   2.4486809  56.7686386  28.4322262   1.3076657
  22.0883770  50.4213066   6.1234040  22.1817169  50.6880455   5.2088714
  21.1801529  50.6298294   6.3422136  63.8947411  17.0731525  33.5375633
  64.6106796  16.4618073  33.7105446  63.1532402  16.7186241  34.0281906
  17.2929668  70.8111038  77.5210876  17.0678196  70.0103073  77.9946518
  18.2074432  70.6893616  77.2658691  52.3220291  25.5450134   8.6264935
  53.0426712  25.4790039   9.2530308  51.9454613  24.6653652   8.6010237
  12.9809475   7.7369747   7.0418477  13.5446072   7.8988047   7.7983737
  13.5877972   7.5324736   6.3304086  79.1815872  36.6873665  43.6751595
  78.2852020  36.7503853  44.0049477  79.0817337  36.5779877  42.7294846
  75.6024857  41.1551743  65.0067215  76.0584717  41.6980019  64.3635635
  74.7967911  40.8865318  64.5652313  45.1296158  36.6869888  74.0150528
  45.6630783  36.6386375  74.8083420  45.3028564  35.8632431  73.5593491
  34.5987053  43.2286186  15.3886385  35.3683777  42.8266449  14.9858284
  34.8539314  43.3748741  16.2995167  79.0799255   1.8025106  37.0932808
  79.9272614   1.5068429  37.4261894  78.6787567   1.0148032  36.7261124
  52.3967896  11.4526005  85.2386475  52.1184158  12.3664951  85.2981186
  53.1072693  11.4598913  84.5972443   0.9354753   4.2965927  66.1758194
   0.1501718   4.3696880  66.7182083   0.9326352   5.0910797  65.6419525
   0.6931835   4.8918538  36.6429672  -0.0609870   5.4810681  36.6260757
   1.1840481   5.1083164  35.8502350   6.8388963  67.3248520  23.6450233
   7.5164156  66.7129059  23.9326286   7.3060527  68.1470718  23.4968700
  39.8356133  32.5255241   9.5734425  39.3051109  33.2808151   9.3197880
  39.3763924  31.7737179   9.1991005  29.3471241   5.2717643  24.3171597
  28.9755402   5.2024727  25.1965656  28.8228130   4.6710329  23.7875843
  40.6186371  24.0456467  10.1276608  40.1653976  24.7141609   9.6139574
  40.4421387  23.2269249   9.6642227  37.7629738  51.3690834  87.2132111
  37.6985893  52.1706734  87.7323837  37.0735626  50.8029404  87.5602341
  68.1586075   4.4489145  21.2413406  69.1086655   4.5609279  21.2086029
  67.8585358   4.6912427  20.3652897  68.8443527  29.2001038  88.3643265
  68.4681473  29.2083378  89.2444611  68.4721832  29.9718418  87.9375458
  14.8867750  57.3185539  65.5705490  14.9197445  57.5202942  66.5056686
  14.1145859  56.7614174  65.4728088   0.9013770  54.3026276  84.7724609
   1.0224779  55.1625519  84.3698502   0.0018543  54.3157921  85.0994415
   7.0824127  65.0165558  50.0917282   7.5362701  64.1796570  49.9924583
   7.3046975  65.3060837  50.9765968  80.9770966  46.7687874  82.4801712
  80.1282272  46.4335365  82.1916351  81.0020905  46.5817146  83.4185791
  68.3180237  54.0054626  30.2629967  67.8721848  53.2085686  29.9759197
  69.0042953  54.1443214  29.6103287  11.2022610  56.6028442  48.5083427
  11.0128956  56.6133041  49.4465637  10.4527502  57.0433350  48.1077995
  15.4342203  14.8302259  77.5809479  16.2767448  15.0427809  77.1794434
  15.3976965  15.3778105  78.3652039  74.4351883  36.6717873  83.3808746
  73.9652023  36.6599693  84.2146683  74.8914261  35.8308334  83.3511658
  71.7474899  61.0050621  16.5596542  72.6805954  61.1221619  16.3812695
  71.5694504  61.5890045  17.2969112  56.0705681  67.1156769  38.4494324
  56.9760323  66.8405304  38.5931664  56.0040436  67.9614868  38.8926201
  23.7007847  18.6815872  77.9271164  23.5047379  19.4308739  78.4895859
  23.2868481  18.8950615  77.0908661  84.3339462   2.8865738   2.1470442
  84.1065521   3.6578009   2.6664035  83.7307510   2.9116781   1.4042393
  75.5939713  69.0879517  56.6755409  74.9169540  68.9132385  56.0218163
  75.2068634  69.7478714  57.2507706  82.5413284  64.4538727   8.8547640
  83.2933807  64.5550995   9.4382067  82.2892609  65.3498383   8.6312847
  24.5392094  33.8672600  10.9759884  24.1883621  34.4409943  10.2948380
  25.3949738  34.2408791  11.1864805  13.9646616   2.4035504  53.5052223
  13.8571148   3.2884026  53.8540802  13.1791773   1.9366230  53.7902184
  70.8842316  17.8040981  37.8272896  70.1771240  17.6522369  37.2002563
  71.6388168  18.0357857  37.2858582  81.2400665  31.5233707  12.2989149
  80.5889511  30.9745255  11.8618193  82.0822601  31.1734905  12.0081873
  51.4514999  27.4645138  70.8794708  51.0859947  27.9039383  70.1116562
  52.3045120  27.1427212  70.5878296  79.3722534  10.7547379  69.4841919
  79.4262238  10.3365049  70.3434906  80.0894470  10.3662376  68.9832535
  44.1044464   0.6591393   8.6366482  43.7167969   0.1153649   9.3224096
  44.6834412   1.2597908   9.1059170   3.2777898  59.4700699  23.9283619
   3.9427042  59.9915047  24.3780594   3.7518740  58.7032318  23.6067429
  60.4177780  64.0237122  41.0160294  60.6474457  64.0003967  41.9449768
  61.2001648  64.3669510  40.5844154  13.8898020  52.0244522  39.7423210
  14.2118216  52.2608223  38.8724594  13.5429144  52.8419189  40.0996017
  10.9101715  59.6096458  68.5150833  11.7559862  60.0562859  68.5517120
  10.4686394  59.8660889  69.3247223  77.8117371  65.7936325  10.6615486
  77.9534836  66.7369308  10.5820236  78.3250427  65.4133606   9.9487038
  68.5520554  45.3528862  10.3785114  68.5271988  46.2669449  10.6615496
  67.9916306  44.8932381  11.0037184  44.9815979   1.5276438  40.3081970
  44.5675087   2.1235762  40.9323959  45.6156845   2.0721858  39.8416748
  68.9560699  51.4899864  78.0078354  69.5789490  51.0396614  78.5783234
  68.9563675  52.3948746  78.3199310  64.0610733  24.9909420  13.9009905
  63.6268272  24.2852001  14.3801441  64.8345795  24.5786839  13.5163212
  28.4527111  13.1933575   2.7178662  28.9557476  12.8331099   1.9875178
  27.8413582  13.8057384   2.3086367  59.2977715  13.5697775  42.9977303
  59.5876961  14.1387320  42.2846603  59.5849800  14.0176973  43.7934113
  62.3394165  40.5751495  57.7954941  61.4857864  40.9695854  57.6166954
  62.7820549  41.2081413  58.3608513  86.0416870  67.8658524  66.7425537
  86.5262375  67.5642853  65.9741135  86.6767273  68.3824768  67.2385864
  82.7058792  32.8257980  27.4986362  83.2775269  32.5501518  26.7820644
  83.2787933  33.3187599  28.0859909  63.7366028  28.2781696  11.2948446
  63.3830528  29.1413727  11.5095863  63.7848320  28.2701454  10.3388939
  -0.0189408  27.8085327  14.5742979   0.8557908  28.0986538  14.8329582
   0.0195178  26.8536663  14.6289139  82.5139923  27.6452026  33.9055023
  82.9261322  27.2991180  33.1139259  82.6902161  26.9848022  34.5756149
  52.6831665  55.6993828   7.1683912  52.7197113  55.2153702   7.9933934
  53.0145874  55.0837517   6.5146408  57.4768524  25.3981457   2.5651138
  58.3571854  25.1229172   2.3091912  57.3022003  24.9191837   3.3752530
  20.1649933  13.3191738  76.1193848  20.2981167  13.4351978  75.1786118
  20.6185150  14.0614786  76.5187988  16.3207283   1.7810177  76.4522247
  16.7419662   0.9409444  76.6340714  17.0094299   2.4302197  76.5952606
  71.0350876   9.8834105  69.4353638  70.3427582   9.4123220  69.8990326
  71.0381165  10.7550182  69.8309937  19.9932003  28.8409653  58.6963577
  19.7102222  28.3878632  59.4906197  19.9171371  29.7706852  58.9109879
   3.9252081  12.5513229  76.9143677   4.2907128  11.9583712  77.5709076
   3.1391044  12.9097052  77.3264771  48.3347702  66.3813171  73.8101196
  48.5124092  66.6039124  72.8962708  48.7849846  65.5475082  73.9454117
  49.4953232   6.5019217  24.9539738  49.6435394   6.9297004  25.7973423
  49.0831757   5.6674972  25.1778088  27.1944275  33.4230003  84.6913071
  27.0827236  32.5335655  84.3556519  26.9349918  33.9879990  83.9635010
  47.2084160  56.9476166   4.0354991  46.9153137  56.0366173   4.0554299
  47.8690491  57.0018349   4.7260489   4.2266712  60.7316666  84.8784561
   4.7734485  61.5140800  84.8070908   4.7161632  60.0540428  84.4121323
  73.7880402  30.2729912  81.5942688  74.2191772  30.6770210  80.8412018
  72.8856125  30.5892887  81.5517502  50.4875526  38.3354073   3.2733631
  51.0929832  37.6460037   3.0005846  51.0447922  38.9919586   3.6912820
  82.8105545  57.3888168  12.9762068  83.2936554  56.7905083  13.5461798
  82.0874786  56.8627663  12.6346407  16.3959293  39.8371506  58.2874374
  16.2586002  38.9293900  58.0166168  16.0670738  39.8714638  59.1857185
  57.3470497   0.5552338  54.8048019  57.5277252   0.8921445  55.6823425
  58.1049538   0.0086202  54.5973663  15.7271948   1.7621549   0.8944343
  15.6821527   0.9777243   0.3477429  16.6343288   2.0573111   0.8155451
  54.8419342  57.0978165  37.7341423  54.1633606  56.4441185  37.5654755
  55.2196617  57.2785225  36.8733902  49.8474579  34.1381416  29.8644199
  49.5793152  34.9894562  29.5186024  49.2988930  33.5068970  29.3987617
   4.8251562   3.3269577  84.3695145   5.3725629   2.5554857  84.2231979
   5.4063873   3.9552808  84.7980118  77.0722961  29.4079800  28.1498146
  77.3784714  30.2406902  28.5090942  76.3135605  29.6422443  27.6153374
   2.1675370  27.3199902  42.9002151   3.0051467  26.8857479  43.0616951
   2.2946751  28.2126541  43.2214928  73.0638504  57.2698822  74.1717148
  72.4195633  57.5338478  73.5148697  73.3317032  56.3905830  73.9046555
  27.5720119  25.4635220  64.9777985  27.9757767  26.3284283  65.0495224
  27.7258434  25.0559597  65.8301239  53.7149658  61.4808502  18.5383625
  53.6401749  62.2147331  19.1483250  52.8692207  61.4541855  18.0908852
  13.0107737  33.5445747  67.4950180  12.5874481  33.8953476  66.7114487
  12.8966780  32.5967827  67.4249573   5.5089355  58.6929588  61.7637787
   5.1418786  57.8109131  61.7046623   4.8468008  59.2553558  61.3618851
  24.5760441  67.1261215  31.7742825  24.6443958  68.0725403  31.6483650
  25.2165375  66.7567368  31.1663704  27.8064995  50.4434395  19.9615021
  27.8433418  49.7967682  20.6662636  28.7053719  50.4950256  19.6365452
   6.5970869  70.2152252   9.1772957   5.7322278  69.8447800   9.0011797
   6.6663747  70.9576645   8.5771179  67.9407959  24.9516354  70.1112137
  68.5965652  24.6704597  69.4731369  68.4173965  24.9976711  70.9400482
  80.5284195  21.3295021  33.4110298  79.8131790  20.8020763  33.0553818
  80.9449768  21.7180061  32.6417618   6.9266267  35.2228966  22.2431259
   7.6912031  34.8064308  22.6408825   6.3153400  35.3449211  22.9695358
  84.6349182  49.9087257  71.0544205  85.2146759  50.3952332  71.6404495
  83.8430481  49.7589989  71.5709076  14.6084776  21.2779179  13.5239000
  13.9630222  21.1974087  14.2261381  14.5290232  20.4613647  13.0307856
  82.0818405  56.5772820  72.6688690  81.3536911  56.8131294  73.2436829
  82.1431808  57.3044128  72.0493927   4.3523006  24.7377129  34.2031250
   3.7862689  25.4359112  33.8739433   3.9544020  23.9316769  33.8741608
  64.6445160  46.3354225   9.5943956  64.7820740  45.7343674  10.3265448
  63.7186852  46.2352371   9.3729668  45.7940254  27.9802036  67.5674057
  46.2645187  27.7929497  66.7551270  44.9667244  28.3673611  67.2812042
  65.1581955  56.0702171  65.9702301  64.8388824  55.2927475  65.5121689
  64.6557312  56.0916214  66.7846603  72.5192947  11.8320169  15.3488111
  73.1475220  11.3854332  15.9163656  73.0163803  12.5525818  14.9616127
  26.9123020  20.2089825  33.9247665  27.0242996  21.1430378  34.1014938
  27.3186016  20.0768833  33.0682030  27.5707550  37.6170959  12.0439081
  28.3531265  38.1674995  12.0783567  27.0792274  37.8499527  12.8315706
  23.4872875  58.6003227  65.8687668  22.9086647  59.2979698  66.1765289
  23.1259880  58.3467255  65.0194244  71.5280380  63.5059624  64.1151123
  72.0514297  62.7481995  63.8541756  70.8605118  63.1462822  64.6992950
  75.0095749   6.5384774  25.9123058  75.0940552   5.6061506  26.1119614
  75.6332932   6.6887684  25.2019329  62.6972313  53.5838776  40.2279129
  62.3623619  54.4295654  39.9297371  63.6315918  53.6100616  40.0217171
   1.7003224  53.3673744  41.8901100   2.3280292  54.0760231  41.7485809
   1.1311158  53.3944473  41.1210175  58.6757660  48.2791328  83.8759079
  58.6450615  47.3648415  83.5941925  57.8827477  48.3952637  84.3992386
  35.4749184  23.3879566   1.8008882  35.8473892  23.3386364   2.6812665
  35.2605858  24.3133736   1.6830003   4.6651816  46.0334702  64.0476456
   4.7619762  45.1709099  63.6440964   5.4036841  46.0988731  64.6530914
  61.7570877  43.5196114  81.8553696  60.9593849  42.9954605  81.7834854
  62.4688759  42.8840599  81.7800903  60.9801331  17.7322674   5.5644712
  60.5048065  17.3214512   6.2866402  60.3994560  17.6354046   4.8097105
   2.1424010  44.4970322   2.2256110   2.5799873  44.3345375   3.0612817
   2.3777022  45.3978119   2.0032098  38.6732292  36.5169716  79.2816315
  38.9974480  36.0207977  78.5300140  39.3769684  36.4598236  79.9279480
  76.3267517  26.6727161   5.5648427  76.2790527  25.7325153   5.3916903
  77.2244415  26.9132233   5.3356323  59.9343300  33.2517319  54.6283760
  59.4600601  32.9389153  53.8580208  59.8799515  32.5285606  55.2531166
  35.2549438  48.0065918  28.5693321  35.5880280  47.2141457  28.1482410
  35.9912148  48.3292351  29.0889874  70.2441711  69.8686371  20.3402195
  70.3270493  69.8016586  21.2914696  70.8773651  69.2367783  19.9995518
  19.4334259   9.8792763  87.0228424  18.9891663  10.7271061  87.0300217
  20.2042027  10.0080700  87.5756073  20.8928356  31.5252552  71.2291107
  19.9747124  31.5949554  70.9675217  21.3845787  31.7600136  70.4421463
  82.4103470  12.0428619  47.4089890  81.9616394  12.0764284  46.5641403
  82.5374527  11.1089077  47.5757370  76.4217072  59.7034760  40.5571709
  76.6669998  60.0146599  39.6858330  76.9993668  58.9570122  40.7163200
  27.6527805  59.3777847   0.0982274  27.2972507  60.0694427  -0.4598415
  27.3415394  59.5952911   0.9768922  50.2608681  49.5268669  24.0669231
  49.5447502  49.6381874  23.4416122  50.7213326  48.7432327  23.7667217
  64.2101517  16.8737431  69.4686508  64.7714691  17.5610771  69.8274460
  63.3190765  17.1783638  69.6401672  58.7103653  59.6688385   8.1374092
  59.1328926  59.4942169   7.2964516  59.4249344  59.9435120   8.7120171
  17.5490780   0.8339924  83.7857437  16.7128525   0.3682285  83.7904510
  17.5389042   1.3362545  82.9709702  50.5331345  15.0193024  83.9051590
  50.8412590  15.6304226  83.2359619  49.5858536  15.1536341  83.9342575
   9.3730888  14.0424595  44.8974495   9.0067911  13.7791080  45.7416687
  10.2444458  14.3777313  45.1085434  56.0096779  51.7822647  50.9441071
  55.9342842  50.9700432  50.4432564  56.8927383  51.7553864  51.3125038
  69.2785492  68.5802612  88.6493073  69.3258438  69.4892502  88.9455109
  69.0364532  68.0855408  89.4321671  46.5773811  61.8354530  41.6392136
  46.7778549  62.7349968  41.8978004  45.8137856  61.9150963  41.0675430
  79.9811172  21.2942657  24.9384136  80.0587158  21.8662052  24.1748066
  79.3737030  21.7518902  25.5196781  84.0978928  50.4515762  74.9177322
  84.2080765  51.1553535  74.2783737  83.9101715  49.6755447  74.3897476
  51.5675621  41.8146133  19.5521603  50.8460884  41.5876427  20.1388378
  51.2845840  42.6239052  19.1264801  82.3335724  36.1151619  41.9833565
  81.5689163  36.2983322  41.4374809  82.9844055  36.7609329  41.7083549
  68.7888565  50.1107559  67.7089844  68.2924500  49.4904594  68.2428818
  69.5809021  50.2843323  68.2176743   6.6474638   4.8188195   4.2917962
   7.3217268   5.4295607   3.9941456   6.3367510   4.3962402   3.4910989
  22.3677769  47.1359749  14.7352085  22.6740494  47.9967804  14.4498339
  22.7385616  46.5262299  14.0972710   1.0333432  68.2594986  13.2030649
   0.4093595  68.6315994  12.5798340   0.5252459  67.6137848  13.6941109
  59.7832642  11.8660412   1.7120715  60.2768097  11.0804863   1.4763832
  59.3523979  11.6398783   2.5363514  48.4119415  32.1147842  69.0052719
  47.6451073  32.6853828  69.0563583  49.0814590  32.6508179  68.5802383
   6.1830425  38.3218422  78.2369843   6.5998755  37.6154327  78.7304077
   5.2558355  38.0849838  78.2165375  78.3791199  44.0659637  65.7576141
  77.4868546  43.9340096  65.4371796  78.9371796  43.8271751  65.0174866
  78.2267990  10.7211218  24.4906120  78.5446777  11.4704208  24.9943333
  77.4681168  11.0576000  24.0137367  24.3861790  20.8311806  57.4229126
  23.6940422  20.5824528  58.0355415  24.8797321  20.0238476  57.2785187
  60.8442459  37.5195465  35.5206108  61.4161530  37.1722260  36.2050972
  60.1603889  37.9910316  35.9962959   4.6297412   9.2119617  18.5845394
   4.4713702  10.1213799  18.8377361   4.3765616   8.7016153  19.3537445
  57.3534126  62.8871040   4.4200096  56.8794136  63.6109734   4.0106626
  57.5622139  62.2974129   3.6955106   8.0090914   3.3540945  84.9971085
   8.7744837   2.9987221  85.4488983   8.3120527   3.5158539  84.1036377
   0.1487715  67.3715515  15.7440796   0.6394489  68.0909653  16.1414680
  -0.5896995  67.2294312  16.3362751  52.1407776   4.5363836  18.6247044
  52.0524826   3.9218092  17.8961906  52.4542007   5.3448944  18.2193546
  66.2907715  68.9571991  22.2503624  65.8833542  69.7959061  22.0340176
  65.7630157  68.3076553  21.7858257   2.2366779  54.2724953  34.7106361
   2.2709725  54.7696190  33.8933678   2.0794213  54.9323807  35.3859520
  70.7929764   1.1327792  79.9436340  71.4975433   0.6392917  79.5237656
  69.9911728   0.6925761  79.6615753  36.8741798  62.0543213  68.5565643
  37.0120735  62.8723259  68.0789795  37.6917572  61.9152985  69.0345459
  73.1984024  10.1468897  75.1633377  73.1720123  11.0970583  75.0505753
  72.8158417   9.9975901  76.0279694  67.8227081  35.3084335  62.8941193
  68.3930359  34.5397644  62.9043312  67.8727570  35.6318741  61.9946136
  31.6146832  48.1825714  86.4039078  31.1458187  48.0841751  85.5752258
  31.8766460  47.2921906  86.6380692   4.7617097  23.7567081  44.4355888
   3.8422518  23.5862045  44.6399345   4.8012447  24.7001438  44.2787437
  53.4685745  11.7550745  64.4212723  52.6284904  11.3222189  64.5733414
  53.5815544  11.7316313  63.4710541  33.2169342  65.2312317  34.0943375
  32.4435654  65.2568970  34.6577873  33.5354195  66.1338272  34.0834694
   6.5128589  25.9948101  33.2626114   6.3286896  26.8930435  32.9878540
   5.7223382  25.7194939  33.7268410  63.5208092  16.7082672  12.3703623
  64.4373550  16.7758102  12.6379633  63.2468109  15.8417330  12.6708212
   9.3680601   4.5254245  43.7931557   9.0996857   4.1691594  44.6400795
  10.0207510   5.1913524  44.0094109  41.1745186  38.7028656  63.1549835
  40.5827293  38.4128876  62.4607735  40.7542229  39.4825554  63.5178337
  56.4415054   4.4720488   6.1364689  55.9865799   4.5359411   5.2967114
  57.3484459   4.2740054   5.9030881  25.2494831  59.0513992  72.8853455
  25.6288013  59.1267014  73.7609482  24.3753452  59.4322395  72.9694519
   6.6261034  25.8843327  60.7446976   6.1805954  25.0592766  60.9371490
   7.2536974  25.6628456  60.0567284  17.3407784  24.1757908   3.4201334
  17.8728771  24.9705791   3.3825421  16.7615604  24.3105888   4.1701789
   5.5153384  49.7428513  47.4546356   5.7729292  50.3991814  48.1020241
   4.7473059  50.1190414  47.0247116  39.3598328  41.4410362  80.9080811
  38.4836006  41.0578995  80.9487000  39.6349564  41.5071411  81.8225098
  55.1552124   3.0357928  39.3165283  54.2531662   3.3500881  39.2551651
  55.4104080   3.2154510  40.2214203  84.7129288  15.3001413  41.0284691
  84.4324646  14.5138226  40.5602036  85.6683502  15.2432480  41.0413628
  20.1729450  49.1535416  16.7636681  20.3017464  48.5644646  17.5070591
  19.7447033  48.6122017  16.1005001  60.8265533   1.8961241  82.1245346
  59.9196053   2.1575749  81.9654083  60.7771416   0.9572620  82.3043289
  78.2962723  64.4744415  18.7885838  78.8900452  64.5557251  19.5349445
  78.0848160  65.3773346  18.5513039  62.7231407  45.9916306  71.1516418
  62.3343391  45.5663185  71.9159546  62.1719131  46.7590065  70.9982910
  28.1405144  47.1188316   5.4865003  28.9469280  46.9068184   5.9565811
  28.2680187  46.7485695   4.6130695  52.8683090  22.3978691  78.8583679
  52.0070229  22.1823540  78.5006332  52.6869926  23.0265369  79.5570374
  34.4294014  34.0025787  82.6411057  34.4050217  34.3629723  81.7546768
  33.6368599  33.4696159  82.7048492   2.3748546  65.6845245  58.4331207
   1.6320239  66.2868729  58.3930130   2.4315362  65.3151321  57.5518875
  67.1963577  27.3161469  59.5667686  66.8878098  26.8152046  60.3218079
  66.5082855  27.9631329  59.4112015  72.6281738  36.0475845  73.5774612
  72.0629883  36.6229744  74.0929489  73.0995255  36.6383743  72.9900665
  33.3178329  54.5542336   6.9311438  33.8372459  55.0143700   6.2718120
  33.9636421  54.0894394   7.4632430  46.3206749  42.2074165  39.4055862
  46.9931908  42.5689392  39.9828682  46.7432442  42.1561966  38.5482407
  22.1489220  39.8597832  88.8816605  22.4134750  40.7763939  88.8037643
  22.7846603  39.4775887  89.4866409  72.3680573  13.1930904  68.8373489
  72.0196609  14.0747442  68.9697723  72.0376053  12.6906204  69.5820312
  70.7409973  51.3125229  45.4188461  70.2334061  50.5262947  45.2177773
  71.6491547  51.0606232  45.2514114  42.1618576   9.0846720  77.9578781
  41.6837349   8.3982220  78.4230881  43.0272751   8.7079449  77.7986145
  50.3688126  42.1876831   8.4128685  49.5194778  42.1880150   7.9714346
  50.4766922  41.2889023   8.7239790  82.9662552  32.8548622  66.0742416
  83.4049377  32.6076050  65.2602081  82.0961227  33.1437607  65.7992172
  82.3885880  55.4595032  78.0491943  82.5465240  54.6137466  78.4686966
  83.1344986  55.9994736  78.3104935  27.4603214   3.1281636  49.8963547
  28.1431541   3.4133658  50.5035057  27.8908558   3.1132188  49.0415726
  40.6076469  44.1491127  44.7180405  40.0238037  44.1236038  45.4761353
  41.3494492  43.5984001  44.9683876  54.1389046  58.9232292  33.8117905
  54.6923637  58.7002068  34.5602379  54.4075737  58.3130379  33.1249733
  24.9522552  22.1592007  81.9693222  24.7963963  23.0616684  81.6909485
  25.8966141  22.0378761  81.8708344   0.2678893  58.9127617  36.8746147
  -0.5466364  59.2350807  36.4887505   0.8034192  59.6971741  36.9935303
  79.6940613  39.8412857  12.7437525  79.8694305  38.9002914  12.7462158
  80.2587357  40.1919632  13.4325199  11.2254114  18.4714985  68.6692734
  10.8335381  18.0162678  67.9239960  11.4993687  17.7706852  69.2609177
  15.5399933  39.5905876  60.9592285  14.7589779  39.8474083  61.4494209
  15.7716599  38.7310333  61.3109779  45.0661087  45.5513763  51.6462708
  45.1937714  44.6131973  51.7868309  44.1178322  45.6548119  51.5668831
  27.7741165   2.1632893  74.4668427  27.1195145   2.5174294  73.8649216
  28.4692097   2.8212657  74.4789124  68.3342285  20.8037243  49.7316093
  68.8389893  20.4069939  49.0216408  67.6012344  20.2036057  49.8687439
  58.2379036  46.5215454  47.1234703  57.3753738  46.7853851  47.4438820
  58.0709419  46.1676636  46.2499046  65.1121292   7.0226035  75.8053818
  65.7628632   6.5885372  76.3570786  65.6265335   7.4578996  75.1255722
  38.1568031  25.7275658  11.9638376  38.1295509  25.9649582  11.0369425
  37.8925285  26.5247192  12.4231148  73.9467087  10.4147196  17.6396294
  74.3317108   9.7304516  17.0921040  73.1554337  10.0153561  18.0010567
  28.1016006  54.9703217  67.6834030  27.9289017  54.1095581  68.0648346
  27.2332706  55.3388672  67.5208893  55.3982010  46.5506554  52.7157898
  55.7508507  46.9029236  51.8986130  55.1126480  45.6650391  52.4913406
  12.9049282  53.9307060  69.8426743  12.5721560  54.0632706  68.9550247
  13.1606407  54.8053360  70.1357040  78.5455399  56.0555191  25.8476162
  77.6885071  56.3374863  26.1673374  78.5442963  55.1055450  25.9650097
  13.6930218  58.2884254  26.9828720  13.2212057  57.6471519  26.4514713
  13.0051184  58.8186760  27.3851814  54.1438980  18.1527920  55.2971992
  54.9288063  18.4691582  54.8499146  53.4797859  18.8174763  55.1144905
  73.5285416  31.7906075  38.6470985  73.7863388  32.1851845  37.8139839
  73.0624847  30.9919415  38.3998032  74.6944351  37.5866585  32.4774628
  74.2966537  37.3128090  31.6510201  75.5394516  37.9586716  32.2248802
  73.4838791  24.3729115  32.6674538  72.9027939  23.6194267  32.5633965
  72.9473190  25.0296841  33.1112823  72.2265320  27.8884544  48.3637123
  72.1064072  27.0870285  47.8542824  71.5368500  28.4751759  48.0533524
  86.4485397  67.0044937  60.5933914  85.5446625  66.9363174  60.9009438
  86.4930420  67.8611526  60.1686630  12.5907135  68.5074158  79.4125366
  12.6744995  68.1532135  80.2978287  12.8740788  69.4183197  79.4911957
  36.5873451  50.0944557  67.2886734  36.4635239  50.2255096  68.2287445
  36.0397453  50.7643547  66.8792801   2.9865887  27.5622177  39.7583847
   3.5148418  28.2844620  40.0983009   2.1504078  27.6402149  40.2176781
  55.6345024   8.1743746  79.3699341  55.6576996   7.2551794  79.1038971
  56.1339645   8.6321011  78.6937256  62.2686844  35.7706795   3.3420882
  62.0870018  34.8783340   3.0472326  62.6805496  35.6605606   4.1991034
  14.8569269  19.4757729  71.3218384  14.6298389  20.2657070  71.8124161
  15.7813864  19.5886040  71.1007614  74.3909225  45.5757256  24.3933334
  75.3063736  45.3932953  24.6052437  74.3690643  46.5159760  24.2153263
  67.8211746   0.3961190  22.0280781  67.9865036  -0.1198789  21.2390003
  68.2417603  -0.0994073  22.7307816  12.9704390  15.5996132   1.7422708
  12.8495102  15.8712330   2.6521227  13.1074553  16.4175529   1.2643248
  47.7869263  67.3086929  66.7692490  47.6287804  67.9990997  66.1253891
  47.4539452  66.5131149  66.3540192  62.4544868   8.6249447  35.1678391
  63.0911980   8.5633802  35.8799095  62.3212318   7.7196989  34.8867645
  20.5116367  57.5564995  41.4061775  21.0206947  56.9250832  40.8978462
  20.7547245  58.4080544  41.0428696   0.3685715   4.2060103  45.5482788
  -0.0826738   3.7642739  44.8289185  -0.1131197   3.9410303  46.3318520
  37.4414902  67.9035263  73.6620560  37.6431961  67.5367661  72.8012238
  38.2838707  67.9263458  74.1160355  73.1735077  47.4777222  -0.0642266
  72.4511032  47.8963394   0.4038766  73.5742798  46.8977013   0.5832176
  37.4623337  52.7991333   0.2271897  36.5500412  53.0830154   0.2852204
  37.5236969  52.0640488   0.8372054  25.1588650  34.8377953   3.7278006
  24.9484882  33.9459152   3.4511809  26.0811462  34.9488983   3.4969623
  58.7395020  51.4781227  14.7398796  59.3621712  52.0677299  15.1651754
  58.3821678  50.9511223  15.4545927  50.5495796   7.1825824   3.3663721
  51.3745461   7.4090891   3.7957447  49.8731613   7.5052977   3.9618080
  21.4246273  52.2224541  73.5674133  21.3831825  52.9601479  72.9588776
  22.1306343  52.4503059  74.1722870  30.9422894   2.9761024  77.4674835
  30.9081211   2.7453902  76.5391312  31.4871025   2.2959230  77.8634186
  78.2913666   7.7346649  87.0934753  79.0055695   7.3649282  86.5744019
  78.6084900   7.7003002  87.9959641  68.3852615  35.9447060  23.4574203
  68.0112228  36.6875153  23.9313011  69.1176453  36.3178101  22.9668617
  39.5271645  18.9670906  83.3085175  40.3172607  19.4698982  83.5064240
  39.1823807  19.3671379  82.5101929  85.7076797  17.3380203  64.8111343
  85.6478348  18.0491543  65.4490509  85.0396423  16.7109356  65.0881348
  56.7372284  22.4729214  86.4377594  56.8667488  21.9534454  85.6442795
  57.3652687  22.1136379  87.0644226  77.2886581  63.1374321  64.6408691
  77.1735840  63.6330872  65.4516144  76.5370483  63.3828697  64.1013565
  60.3362541  67.3875580  86.9692993  61.2434883  67.2529526  86.6953583
  60.3424568  68.2377853  87.4089661  61.8713188  65.8237762  49.1117630
  62.1987343  66.7177734  49.2107658  62.0611534  65.4048462  49.9512215
  60.7718010  48.0266113  85.8751526  61.3743858  48.7519608  85.7108536
  60.1398087  48.0730782  85.1577530  35.8647270  62.5098381  53.6275749
  35.0913086  62.1504059  53.1929893  35.5440331  62.8090630  54.4783669
  70.2207260  10.9748383  74.3753815  70.7923050  11.7384491  74.2951889
  70.4949722  10.5549574  75.1906891  46.1885567  58.1563110   2.0094221
  46.6911507  57.7447739   2.7124643  45.3400459  58.3542290   2.4057653
  63.9899139  30.3192406  17.4706860  63.9517822  29.8431664  18.3002224
  63.0735435  30.4448967  17.2243023  47.9906807  70.8390045  30.0278797
  47.1221275  70.8195877  29.6260433  48.0376396  70.0291901  30.5360394
  47.7491341  52.6055679  46.7998924  48.5585861  52.2457466  46.4372025
  48.0362511  53.1487885  47.5338631  56.5905380  14.7950401  86.3487473
  57.1238861  14.0493279  86.6238556  55.6910706  14.5301514  86.5411682
  17.8887043  46.1498451  10.2022343  17.1477833  45.6313133   9.8885603
  18.0084953  45.8715515  11.1102180  78.6566315  27.4344883  59.1194572
  78.6218262  28.2660236  58.6466255  79.5646896  27.1454792  59.0292244
  54.7311783  11.6392603   4.5270739  54.8196030  11.5595703   5.4768434
  54.3857193  10.7917328   4.2467403  55.6898918  12.2335844  37.1451149
  55.9260445  12.5134640  36.2607307  55.5326080  13.0493593  37.6205139
  66.4861374  36.4496956  85.0187836  66.4836273  35.5289307  85.2803574
  65.5672684  36.7140312  85.0639877  59.8709641  71.7423859  70.0936203
  60.6616211  71.9752808  70.5802994  60.0554886  70.8726730  69.7389603
  39.0972595  68.0655212  26.1244812  38.3888588  68.7068405  26.1803074
  39.8111916  68.5342712  25.6922741  41.2458000  44.6087799  10.9925890
  42.0416260  44.9349670  10.5724802  40.9438744  43.9042053  10.4193068
   5.2304511  10.5083437  14.1977558   5.3153567  11.2311773  14.8194742
   5.7714353  10.7688150  13.4522877  56.9948235  47.9734001  54.0588112
  56.3578110  47.3665428  53.6817589  56.9441986  47.8182983  55.0020027
   5.7899466   9.9902201  42.1215706   5.0582008  10.5729694  42.3245049
   5.9740524   9.5407562  42.9463844  84.3700867  31.5026703  71.5703430
  83.4806671  31.8143578  71.4029465  84.8024521  32.2359657  72.0080261
  55.2931366  27.8562279  75.9421158  54.6637268  28.5039120  76.2592621
  55.2238846  27.1309643  76.5629425  12.2899113  67.8767166  17.9271584
  12.3807821  66.9931641  17.5703659  11.9948826  68.4052811  17.1856632
  37.9176903  49.5744019  36.3885231  37.3982620  48.7704620  36.3781128
  38.0971680  49.7316093  37.3155098  12.5625048  54.6460419  35.8592339
  11.7955666  54.1690826  36.1763229  13.1725779  54.6360474  36.5967598
  11.7411270  15.6173277  69.7783203  12.6521626  15.4127808  69.5675888
  11.6547470  15.3977308  70.7059708  17.3320026  63.2293243  73.5597153
  16.6438332  62.6119499  73.8077087  18.1483002  62.7701302  73.7572861
   2.5208704  24.5528622   7.8302870   2.9068499  25.3901863   7.5731096
   3.1519070  24.1766281   8.4438601  28.7514629  61.8988762  65.6247025
  27.9265594  61.4382439  65.4711380  28.5946064  62.7856445  65.3002548
  42.4643478  61.3146553  34.4857826  42.6624489  60.4068985  34.2556381
  41.8148346  61.5895386  33.8386307   5.6796317  47.7105064  54.9283714
   6.0963907  47.5259819  54.0866508   5.5778599  48.6621857  54.9417267
  77.0500870  13.7337132  66.1966858  77.7392426  13.1322794  66.4787674
  76.2345886  13.2875757  66.4250717  47.9331055  58.4377480  27.4071064
  47.5072479  59.2834244  27.5474701  48.3206558  58.2210617  28.2550964
  80.7792969  58.4231033  52.2355156  81.4753647  59.0055580  52.5396042
  80.8294525  58.4680443  51.2806892  67.3608932   2.7566576  16.8196030
  68.1498947   3.2876854  16.7113400  66.8398972   3.2311041  17.4674397
  62.1712418  62.7876282  70.9949493  62.1639709  63.5447121  70.4092789
  63.0529099  62.7815323  71.3675766  47.6317215   8.1798582  83.5627136
  48.3837967   7.7299161  83.9476318  47.6523628   9.0550518  83.9498062
   7.2974935  51.3352852  26.5731983   7.7613378  51.7533836  25.8477516
   7.9405212  50.7388573  26.9566326   7.9563527  35.8607292   4.1964231
   8.2556067  35.0508499   3.7831743   7.7933540  36.4566460   3.4652956
   3.5064347  17.1787148  44.6751137   4.3858185  17.3282318  44.3278961
   3.2847128  16.2916718  44.3918686  83.6716080  16.1028233  54.9559402
  84.4613037  16.6437073  54.9629707  82.9511032  16.7314777  54.9123802
  70.2842865   0.9513272  32.5789795  70.4818954   0.3673333  33.3111916
  70.0846786   1.7922239  32.9904175  72.8072586  65.1192474  23.3085403
  73.6516495  65.5064392  23.0776463  72.3413925  65.8174744  23.7686272
  59.3180351  42.2237015  60.3015060  59.6455650  41.4715347  59.8083534
  59.3897476  41.9585419  61.2184486  27.2569904  62.1868629   8.1079855
  27.7534256  61.5558014   7.5868845  27.6840611  62.1787720   8.9645939
  16.3481903  55.3377800  83.4595490  15.5725365  55.1112137  83.9726334
  16.3576431  54.7003441  82.7455368  36.6218224   9.6396713   5.2827816
  36.7121239  10.1869440   6.0628910  36.7526245   8.7462673   5.6005106
  68.2148514   5.0652599   6.5713229  68.4147949   5.7459817   7.2138743
  68.9816132   5.0437217   5.9987488   4.6532865  23.8441067  58.1625786
   4.4987264  23.4747066  57.2931595   3.9511104  24.4840927  58.2791824
  69.5866928  29.1017113  61.5511475  70.0746002  29.5536728  62.2395592
  68.7283707  29.5254002  61.5482864  54.1530838  54.9348412  18.9575958
  53.5466042  54.1970787  18.8934326  53.9174881  55.3679123  19.7780685
  70.2909622  36.2235222  31.2892761  69.3986969  35.9981728  31.0259914
  70.7363968  36.4355583  30.4689980  75.2841110  50.1100578  51.2842827
  75.8123169  50.3430290  50.5207672  74.7521820  49.3703423  50.9908485
  20.7635078  55.3499031  58.0032768  21.3848419  55.2187347  58.7194939
  19.9748058  54.8847351  58.2822037  20.5090160  13.8135815  16.6026363
  19.9242859  14.4553213  17.0057411  19.9344788  13.2739954  16.0595112
  67.2167282  57.4866791  61.1625519  68.1278152  57.4720650  60.8694000
  67.1286926  56.7063713  61.7099075  83.4017334  57.5369110   9.6032753
  83.2741470  58.4838638   9.5463905  82.7583008  57.2469597  10.2499180
  76.1850357  30.1159801  37.9371834  75.3037338  30.2861900  37.6046715
  76.6069183  30.9751205  37.9482727  19.4066658  47.2889481  14.8244286
  20.2109184  47.2786064  14.3054867  19.3522263  46.4099159  15.1993580
  40.3440170  47.3079376  81.2959747  39.6166763  47.7577896  80.8660431
  39.9464188  46.5308647  81.6887817  58.4388847   1.4137702  43.1347618
  57.4991608   1.3447216  43.3032379  58.7360229   2.1124485  43.7176743
  76.8598404  28.4440479  50.7865944  77.2483521  29.3135872  50.8824768
  76.0600433  28.5933418  50.2823410  37.9192085   2.5536487   6.5470033
  38.0565910   2.6652040   5.6063051  38.3268166   3.3245730   6.9416685
  45.0272408  64.0316391  67.5601807  44.0900040  63.8754883  67.6761169
  45.3624191  63.2143364  67.1915283  50.5597916  11.0526857  41.1884766
  50.2972908  11.2262640  42.0924683  49.8263512  11.3692055  40.6611137
  57.8258362   7.1340451  59.9843903  58.7449112   7.2949028  59.7707176
  57.5722046   7.8799896  60.5279655  60.4851189  36.5779648   0.6976871
  61.4211197  36.3873711   0.7593784  60.4068718  37.1492958  -0.0663095
   5.7151184  40.6136436  16.5802593   4.9605541  40.6989594  17.1630001
   5.3401194  40.3505478  15.7397900  55.7886200  14.8570948  79.0650024
  56.0051956  13.9780159  79.3757248  55.9512177  15.4243441  79.8186722
  15.7813854   0.3051766  43.0159836  16.1363850  -0.3830548  43.5786057
  16.4961090   0.9359336  42.9291039  30.8379135  -0.0373045  41.7772675
  31.6095562   0.3037438  41.3250656  31.0815620  -0.0334465  42.7029305
  82.2214890  53.9623337  83.8609314  82.1008835  53.1489563  83.3709259
  81.7131424  53.8368454  84.6622314  70.4120255   8.7311783  46.4653130
  71.0308304   9.4444733  46.3086891  69.7815170   8.7993193  45.7483444
  41.5218582  25.2140236  67.9044647  41.8610954  25.7629490  67.1974792
  40.8058243  25.7249813  68.2818909  54.7851524  10.6354914  42.0919685
  55.1993713  10.1055155  41.4109535  55.4177933  10.6395025  42.8102875
  53.0844383  48.6762581  69.8871613  53.0749321  49.2684898  70.6390915
  52.9960632  49.2520599  69.1276398  10.0179558  65.2342148  72.5752258
  10.6550713  65.9187851  72.3710556   9.7810383  65.3923645  73.4890594
  68.2738342  38.1976624  31.5527554  67.6810608  38.9491081  31.5662117
  69.1434174  38.5806046  31.4369736  50.0598106  33.5480499  67.5254440
  49.9613571  34.1592522  66.7954025  50.7686195  33.9167633  68.0525818
   9.8046331  17.0136700  79.8913422   9.7007399  17.9028454  80.2301712
   9.1342716  16.9361916  79.2124863  44.9738503  55.3272591   9.4694481
  44.7420120  56.1030960   9.9798965  45.3513947  55.6758919   8.6618938
   6.3998461   8.3860159  22.1512070   6.4169307   8.4672909  23.1047974
   6.9496522   9.1049623  21.8396626  21.0248356  49.6411057  43.8656731
  21.0127602  48.7878075  44.2992249  21.5584888  50.1928062  44.4375801
  45.0160370  28.1727924  63.1655312  44.9207764  28.8349533  63.8501511
  44.3288422  28.3818417  62.5328445  49.9024086  41.6809464  51.4413109
  50.7895889  41.6976395  51.8002930  49.9501190  41.0609779  50.7135811
  73.6494370  31.0171471  16.4313984  73.5385284  31.8935680  16.0628624
  74.3308487  30.6152039  15.8925543  56.1275597   8.6084919  21.7467384
  56.0101852   9.4295378  21.2688904  55.2791214   8.4484863  22.1599960
  82.8579636  44.0896263   5.6756234  82.4162445  43.6709137   4.9368443
  83.6657867  44.4427185   5.3028259  68.3982773  41.7747803  83.0771866
  67.8268890  41.0083275  83.0292740  68.6489716  41.8293648  83.9993591
  28.6111317   5.0365033   6.1259971  28.2942829   5.9320154   6.0081158
  28.4023228   4.8264294   7.0362163  44.4880600  54.1301689  71.7857285
  43.8584900  53.6363640  72.3111115  44.4110336  53.7579613  70.9072266
  85.8596268  71.0829468  54.7508125  84.9877167  71.3218002  54.4362564
  86.3825760  70.9842911  53.9551888  38.9732590   6.4731288  35.3274231
  38.4058990   6.6719632  36.0722694  38.8488655   7.2092600  34.7283669
  25.6185474  60.6675034  34.2066193  25.0892963  60.2051697  33.5567169
  25.9884892  61.4103813  33.7296410  53.8679237  17.0135727  88.8111725
  53.4800606  17.6348362  88.1948776  53.3646431  16.2086525  88.6885071
  58.4295921  20.1639671  52.7767525  58.2913895  19.2775059  52.4431114
  59.0659065  20.5499496  52.1747932  62.2643776   2.3638151  61.2742996
  62.3289146   2.7935314  62.1271820  61.4307747   1.8943574  61.3050995
  69.0150223   3.5421681  48.4106903  68.3551178   3.0651143  47.9075241
  68.9716110   4.4373484  48.0745354   6.3232613   6.1256089  45.2593536
   6.5044241   7.0603147  45.3580322   6.4999452   5.9435272  44.3363914
  58.9728928  22.5373955  63.7627602  59.6677551  22.3927441  63.1205215
  58.2713737  21.9440365  63.4943733  25.0878029   8.4892769  16.0380287
  24.1420097   8.3907442  15.9284792  25.4643097   7.7776494  15.5202837
  39.4807587  30.6719017  65.3182068  39.1287651  30.2294140  66.0905685
  40.3574600  30.9518871  65.5813293  22.9501667  27.0484772   9.6238699
  22.9055386  26.0941334   9.5649757  22.9091091  27.3466988   8.7152386
  66.5023880  55.1853600   3.8204319  66.1476517  54.3223610   3.6068215
  67.2794266  55.0010033   4.3481236  62.9435463  44.2714081  30.2932472
  62.0658722  44.0570488  30.6094246  63.0545502  45.1983337  30.5047169
  43.6559486  59.4927330  69.6085358  44.1795425  58.8205376  69.1723785
  44.2444572  59.8667068  70.2643051  67.2747498  53.8217926  19.1746254
  67.4537430  53.9510612  18.2432384  67.1332855  54.7047348  19.5161343
  55.4468460  18.7649441  59.1549187  54.5035477  18.7868290  58.9938622
  55.5971260  17.9224739  59.5837479  51.1046143  41.0464134  73.0133286
  51.5978622  41.8667412  73.0153885  50.2487411  41.2806625  73.3722763
  76.9122391  36.8372726  63.7472572  76.2315521  36.6094818  63.1140022
  76.5506973  36.5726013  64.5931091  66.3339615  67.8592224  77.7577438
  66.7956085  68.6953125  77.6939163  66.8621521  67.3396378  78.3637695
  12.8414383  70.9202271  13.4450531  12.2676754  71.3141937  12.7879248
  13.6487598  70.7223358  12.9703922   2.0786517   1.6073248  79.3329773
   2.5454829   1.7230250  80.1605759   1.5606983   0.8123361  79.4592667
  14.3303833  12.5717001  23.1116714  14.6778765  13.3794432  23.4898682
  14.3077784  12.7387648  22.1694355   5.1342664  40.5411224  25.0949001
   5.2988825  41.0666389  24.3119793   5.6023984  40.9986763  25.7932777
  43.5565300   7.9212480  84.0526047  44.3441963   7.3800440  83.9986496
  42.9315529   7.3864689  84.5421448  12.3986855  63.8062057  67.4181900
  12.8786411  63.2615738  68.0420914  12.7940617  63.6041603  66.5702057
  65.9705505  23.6809292  64.9844131  66.1868362  22.7484951  64.9799652
  66.8190002  24.1235027  65.0065002  79.8682327  18.7262783  87.6608734
  79.6326828  19.5110912  88.1556625  80.8235168  18.7546082  87.6073608
  61.8111610  14.8733158  10.1045218  61.9397469  14.6305065  11.0214405
  60.9264679  14.5714064   9.8986082  15.7503157  62.9198990  31.6309433
  15.4069138  63.4499054  32.3502464  16.1972713  62.1915817  32.0622444
  82.6037369  34.4572792  37.8078499  83.0885010  35.2520523  37.5852089
  82.7261505  33.8824959  37.0522881  44.1746407  27.2884922  79.1108322
  45.0659561  27.4527531  78.8029251  44.2487297  26.5008640  79.6497040
  26.5492649  48.9645958  66.2935715  26.2939758  49.8260536  66.6236496
  26.2569656  48.9610863  65.3821030  12.7795925  53.1961441  66.7949829
  12.5374584  53.9536972  66.2623367  13.7229595  53.2886620  66.9281387
  78.6187592  38.4706841   4.0380907  78.1224899  39.0589867   4.6071630
  78.5070724  37.6055565   4.4321871  14.9020472  15.6072206  18.6350098
  15.6285591  15.8616304  18.0660744  14.5899601  16.4316235  19.0080967
  73.5935211  58.4157295  39.4255180  73.5123291  58.9673576  40.2035599
  74.2257767  58.8740005  38.8719215  24.5870361  54.6731873  48.0883484
  23.6932011  54.3354454  48.0315742  25.0240211  54.0910225  48.7099304
  65.9981613  19.7225742  48.4039154  65.7807159  19.9327297  47.4957390
  65.7820435  20.5171375  48.8919678  34.9883804  33.3897362  71.9059372
  34.4405289  32.7095528  71.5142212  34.8999863  33.2546349  72.8494186
   7.0517855  31.6195946  13.8171196   7.8504810  31.8556290  14.2889299
   7.0287709  32.2183151  13.0706367  42.3464851  10.4105349  86.7399521
  42.9740639  10.4286261  86.0174255  42.2609444  11.3260660  87.0058823
  64.1506882  63.6848907  38.0904884  63.5729408  63.3245659  37.4177284
  63.6344185  63.6457825  38.8955765   4.9077182   8.9582615   8.0086279
   3.9769301   8.9246664   7.7878633   5.3568220   8.8277912   7.1734543
  21.5117416  53.4397888  68.7735062  21.1776314  54.3080673  68.5483475
  22.3732433  53.6064301  69.1559677  85.5479965  61.4397583  11.1780024
  85.1688156  60.7833862  11.7624941  86.4407730  61.1327248  11.0201530
  75.4327240   5.8812866  13.6307449  74.8680878   6.6328497  13.8112154
  74.9380951   5.1274529  13.9521570  58.7979012  10.6636286  27.6481552
  58.9694176  11.5672455  27.3830299  57.9879036  10.4305534  27.1944904
  29.6261597  11.0474014  37.3859177  29.6551132  11.4401760  38.2583389
  30.4648628  10.5942945  37.2992897  71.9558945  65.1481247  52.6897392
  71.6204071  64.2522125  52.6577835  72.7385712  65.0913925  53.2378502
  73.2912903  40.3194771  55.8398247  72.7287674  40.1968193  55.0751343
  74.0773010  40.7420616  55.4936447  85.3660660  35.5108948  33.3582153
  85.4934845  34.6278534  33.0114708  86.0911865  35.6346550  33.9706802
  33.8736954  61.0331535  61.3908577  33.3805084  60.5212746  62.0319328
  34.1501732  60.3931847  60.7349396  37.6550522  60.3070145  71.2736206
  38.2070961  61.0633698  71.0751038  37.8010979  59.7056389  70.5433807
  21.0013847  15.7450371  76.9455338  21.6315823  15.8198805  77.6621094
  21.0898571  16.5663776  76.4619980  82.7016220  62.1037331  77.3819199
  82.9451675  62.8891106  76.8919220  82.7443695  61.3968086  76.7379761
  58.5411873  45.8984451   9.3531237  58.2711334  46.7362137   8.9770288
  58.8400574  45.3843918   8.6030197  15.1560678  28.7558289   2.7200778
  14.4586039  29.3004227   2.3551202  15.2667866  28.0498638   2.0832217
  32.4587059  54.9403191  35.3645897  32.5745087  55.0087128  34.4168854
  33.2380524  54.4747963  35.6681366  59.1397171  71.4830246   9.1368761
  59.7020950  70.7502975   9.3880348  58.9291611  71.9175949   9.9633408
  49.0776482  36.3753624  74.5170212  49.9930267  36.3897247  74.2375412
  49.1036339  36.0165062  75.4040222  34.1498566  20.3558502  82.4799271
  34.3255997  21.2448483  82.7881927  34.9122734  19.8498402  82.7608261
  38.5770683  27.2483501   9.6003189  37.6258698  27.1528740   9.5520191
  38.9044266  26.7752132   8.8353291  55.4021416  32.3140945  83.5519943
  54.5571022  31.9379826  83.3056641  55.5425568  32.0189400  84.4516602
  73.7069168  49.5899048  27.9209480  73.0604858  49.5602074  28.6262646
  74.4577637  50.0441780  28.3031864  58.2680511  58.4451866  76.1790161
  58.4571266  59.3739586  76.3126984  57.8994865  58.1533623  77.0128250
  29.1695805  68.9924927  50.3702507  29.1990643  68.3574524  49.6546478
  30.0754318  69.0539856  50.6733742   9.5122805  50.1240273   5.5373168
  10.2058630  49.5237122   5.8108044   8.7054577  49.6183929   5.6352968
   8.7300243  10.0954857   3.6505892   9.4229574   9.4904652   3.9152143
   8.0263271   9.9444818   4.2816510  28.3208408  34.9387131  18.4730816
  27.5995979  34.4401245  18.8570786  28.0357132  35.8509827  18.5250111
  13.0914812   5.2145243  88.0627670  12.5425091   5.1331954  87.2828674
  13.1468525   4.3244677  88.4105682  73.1538467  38.6226425  86.9144974
  72.6626892  38.4568405  87.7191772  73.9171143  38.0484238  86.9771500
  33.7715034  23.2464161  14.6184101  33.9838142  22.9556808  13.7314882
  32.9655380  23.7529297  14.5179348  40.2149544   4.1845555  76.2578506
  39.6220512   4.6643996  75.6795349  40.3504982   3.3449316  75.8186569
  86.8554916  52.8414841   5.6323280  86.3597641  53.0712395   4.8463893
  86.2859650  52.2353020   6.1060510  30.8084126  46.8479996  10.7807722
  31.0050621  46.1009712  11.3460197  31.0363483  46.5488701   9.9005461
   9.9936008   7.0943594  56.6397629  10.1718903   6.4877367  55.9211159
  10.0389719   6.5524406  57.4274788  13.6265430  55.2983437  80.6418762
  13.1595249  55.5616150  81.4348602  13.1203957  54.5616989  80.2992401
  -0.2390388  23.4584370  28.4100685  -0.0390650  22.5312843  28.5390377
   0.6023489  23.9020863  28.5171833  48.3013687  38.4974213  67.8103256
  48.8900185  39.2364388  67.6567841  48.6292114  38.0929375  68.6135330
   6.4398785   8.3145037  52.1662102   6.0089636   7.7332711  52.7928772
   7.1703420   8.6940451  52.6546783  68.5318527   5.6778927  64.3880005
  68.9894180   6.4963617  64.1957169  68.0885162   5.4534316  63.5698891
  52.4495201  22.5913563  58.5047493  53.1951408  22.8980694  57.9887962
  52.4875526  23.1067638  59.3104401  55.5399055  60.3750420  25.4300137
  56.2887726  59.7816429  25.3724976  55.5317764  60.6626434  26.3429489
  65.0891571  49.3423119  11.9380121  64.3583908  48.7658730  12.1614866
  65.0142059  50.0729942  12.5517836  21.3117085  21.9131908  86.8496857
  22.2546730  21.8284016  86.7087555  21.0225525  22.5256023  86.1732407
  41.2236290   6.3718700  68.5918198  42.0520477   5.9738688  68.8593140
  41.3494568   6.5889735  67.6680908  80.0613022  17.9567394  84.9062881
  80.1396027  18.7401619  85.4506683  79.9256744  18.2931728  84.0204849
  66.5704880  62.5130386  24.9214897  65.7592773  62.8173904  25.3283558
  66.5980225  62.9623947  24.0767689   9.5910482  35.0299454  77.2993011
   9.6144276  34.5398064  76.4774475   9.7465057  34.3708191  77.9757690
  43.3583145  51.0422325  44.4380112  43.8558350  51.4612427  43.7357750
  43.7086143  50.1525078  44.4817772  74.9243469  42.2834892   0.7172751
  75.1315689  42.9282608   0.0408436  75.7770386  41.9989090   1.0461584
   3.3787317   8.1631289  68.2164764   3.8013265   7.4768672  68.7329025
   2.4499774   8.0908813  68.4365387  45.5637856  56.0357590  52.4119797
  45.6598053  56.9145050  52.0447998  46.4419327  55.8057823  52.7156258
  68.8603668   1.6615984  42.0183449  68.9151688   1.1848851  42.8465805
  69.6720276   1.4415352  41.5611725  45.9841499  55.9140778  86.3947983
  46.1794434  55.0266113  86.6956177  46.7096443  56.4440079  86.7250443
  62.8678551  31.2398453  32.6065636  62.3051529  31.9556351  32.9019356
  62.7033691  31.1785374  31.6655960  81.9957275  65.3630219  26.8577290
  82.4132690  64.5432434  27.1220284  81.2731400  65.0920715  26.2914352
  86.5806122  43.8151474   3.5562825  85.8043518  43.7805939   2.9972975
  87.2624283  44.1868019   2.9966133   7.0324049  51.7063141  81.7601929
   7.2374740  51.7730331  80.8276062   6.1216092  51.9932213  81.8262787
  71.2503815  22.3945923  32.3344040  70.6440201  22.8868980  32.8877563
  70.7874680  22.2935867  31.5026951  62.3591766  58.3400612  10.0056477
  62.1592178  59.2759895  10.0226622  61.8835258  57.9798775  10.7541475
  81.3395157  46.2466736  25.1665459  81.2201309  45.8862572  26.0452251
  81.1841660  45.5058479  24.5806503  21.0851955   1.1508895  50.1132622
  21.4340076   2.0033214  49.8526459  21.0037098   0.6644718  49.2929039
  78.2771378  47.8337708  45.1600609  78.2987442  46.8834038  45.2721443
  78.6736298  47.9827881  44.3016815  69.0949631  19.9935436  47.2864952
  69.1898041  20.6072330  46.5580597  68.6075897  19.2570648  46.9173088
  57.7404518  59.2570992  82.5001450  57.0492210  59.0636406  81.8668976
  58.1431580  60.0628777  82.1764374   4.2643685  35.6050873   4.3744183
   5.1352401  35.2078323   4.3726783   4.3315783  36.3322487   3.7555878
  77.2476578   0.8783796  51.5553589  76.6025696   0.5162262  50.9479561
  77.0790329   1.8205945  51.5501137  52.1436195  31.2814846  77.7570572
  51.4544029  31.1635227  78.4107437  51.7203674  31.7644272  77.0472336
  22.1234550  61.1421394  52.9153290  21.1711369  61.1595917  52.8203621
  22.2855797  60.4734459  53.5807571  57.5229683   5.7776499  52.5248604
  56.6714478   6.1657376  52.7261963  58.1539917   6.3355408  52.9796104
  47.3776741  16.5410271  13.9166975  46.7859497  17.2028427  14.2745962
  47.7827721  16.1407547  14.6860552  38.2402496  18.2698784  71.3250351
  37.4267082  18.3587189  71.8215179  38.6989899  19.0979462  71.4667892
  17.9582748  55.9551239  60.6999397  17.7115440  56.4248924  61.4966011
  17.1266098  55.6627884  60.3269730  83.2065582  46.6721687  22.3433304
  83.6687241  46.9003754  23.1498985  83.4903488  45.7788506  22.1492252
  27.2490215  67.5627747   7.4608135  26.9265537  67.7292252   6.5750713
  27.4665947  66.6306381   7.4652653  25.0924683  68.3186264  35.9965286
  24.6487751  67.4709167  36.0240898  24.4657784  68.9296799  36.3839645
  70.6367188  27.0119419  78.1496277  71.4238281  26.5355225  78.4136581
  70.9636383  27.7416649  77.6234512  12.4295406  56.1845093  65.6033249
  11.5606661  56.0806351  65.9912643  12.3002310  55.9993019  64.6731567
  12.9748640  61.0622444  33.9418411  12.7657013  61.2744789  34.8514786
  12.1230335  60.9448586  33.5213242   7.5284839   6.2019577  10.7932968
   7.3802285   5.2850060  11.0244932   6.9109411   6.6893187  11.3385963
  46.7863197  45.1481857  88.2135696  46.0461349  44.6399384  87.8818436
  46.6922073  45.1149940  89.1655502  48.4678421  16.3198204  68.1949005
  48.6726837  17.1689663  68.5863419  47.8518143  16.5229263  67.4909897
  42.2517548  13.8107367   1.7008873  41.4628105  14.1201639   2.1459146
  42.6946526  13.2647724   2.3505013  46.5837593  43.0199509  53.0493393
  46.9499626  43.3774033  52.2404175  46.7131042  42.0745621  52.9735527
  74.5514145   4.1989222  68.9977875  74.5525665   3.2417257  68.9953766
  73.6524200   4.4379148  68.7721100  74.5096588  39.7309341  52.0221977
  74.2274704  39.5586205  51.1239166  75.2158508  39.1033363  52.1759644
  68.1704865  60.9038200   7.3098845  69.0661926  60.6566772   7.5397811
  68.0498505  61.7654610   7.7089500  16.5206203  11.0647154  47.8590240
  15.8707724  10.8416014  47.1925774  17.3048038  11.2956400  47.3610649
  26.6054363  18.0478439   3.9077599  26.2672558  17.8386517   3.0370686
  27.2519035  17.3643360   4.0841961  78.9867401  41.1168671  84.5377197
  79.4264832  40.9097710  83.7131119  78.1533432  41.5065460  84.2734528
  28.3446789  46.5370178  26.2743587  28.1813507  45.8127213  25.6702461
  27.9162712  47.2898750  25.8670502  20.2620678  10.9736938  14.1857710
  20.2716446  10.5216064  15.0294285  21.1673222  10.9263124  13.8783588
  49.7090569  27.9857349   8.9490833  50.5193062  27.9138794   8.4445391
  49.4602699  28.9068813   8.8727579  81.1748505  30.8296585  80.5906754
  80.2316284  30.6868515  80.6692123  81.5071335  30.7310009  81.4829102
  51.6545105  59.2871628  48.4087563  52.3662300  59.8258820  48.0631142
  50.9543800  59.3712616  47.7614708   7.1495929  56.7697144  28.4344368
   7.4715381  57.6660614  28.5300903   7.1869597  56.6009903  27.4929657
  45.7795029  58.6908455  62.7628365  44.9199638  58.3645630  63.0292244
  46.2460518  57.9135742  62.4555664  63.1823578  67.7180328  86.8272247
  63.3007622  67.5605316  87.7639236  63.8790283  67.2118530  86.4093018
  70.7614136  61.3817215  85.4859314  70.9170761  61.3305855  84.5428619
  71.6072006  61.1685829  85.8801956  59.4755211   8.7476988  63.2962837
  58.8134155   8.0575428  63.3354759  59.0274162   9.4863787  62.8842354
  22.6370964  18.9151115  75.0847626  22.1205235  19.6503849  74.7549820
  23.5454769  19.1668205  74.9182663  15.4292593  33.3718834  61.1205940
  15.1011353  34.0276527  60.5053444  16.1321049  33.8175888  61.5934410
  46.9637604  64.2942581  24.2896481  46.4471741  63.9086647  23.5820541
  47.8575020  64.3187714  23.9478035  42.2331619  46.1305656   8.2379799
  41.7365112  46.9250526   8.4338474  41.5655136  45.4587708   8.0995340
  64.6095734  10.5736113  26.5318203  64.2423935  10.7773838  27.3919868
  64.2965088  11.2783089  25.9647064  84.3702011  63.1472702  14.3153162
  85.2268372  63.5684853  14.3858881  84.5458374  62.2195015  14.4722633
   7.2800999  56.1772652  78.0354691   6.5193863  55.5964241  78.0224228
   6.9631276  56.9956818  77.6534271  78.5442734  26.2604465  51.9856720
  78.0300446  27.0039501  51.6710320  77.9027328  25.5610275  52.1100616
  21.3653507  69.1582718   7.4055882  22.3086090  69.0389557   7.2948637
  20.9758034  68.3936005   6.9815955  84.5876617  59.2423210  46.6514549
  85.2010880  58.5300522  46.8320808  83.7586212  58.9453354  47.0265884
  12.0889406  42.3786316  45.7197227  11.2608824  42.3091164  45.2446213
  12.0663538  41.6562614  46.3473358  30.2427998  53.5187340  18.3529377
  29.3131561  53.3288383  18.2267075  30.5104599  52.9407310  19.0674343
   4.2046504  60.6359062  71.3081436   3.7791350  60.5997658  72.1648026
   3.6001682  61.1378517  70.7614441  44.1101265  56.1302681  55.3415718
  44.6675491  55.3852425  55.1169624  44.6938477  56.7377319  55.7959785
  64.0611267  37.8370705  59.6370354  64.3254242  37.7184753  58.7247200
  63.3414040  37.2181702  59.7602844   1.9771537   6.5984335  11.8496265
   1.2775078   6.8762698  11.2584124   2.7568362   6.5581923  11.2958155
  10.6586123   7.7182636   4.0780559  11.3124819   7.2786736   3.5345056
  10.6665001   7.2320580   4.9025402  43.2342873  55.6059761  14.7568588
  43.4851608  56.5296364  14.7448721  43.6822662  55.2460251  15.5223532
  65.8894501  40.6760139  20.4670715  66.4397964  40.7212372  19.6852112
  65.1185074  41.1993103  20.2479019  30.0635166  62.0618134  74.0346680
  29.2981834  62.1656342  74.6001053  30.3870640  61.1820869  74.2286682
  71.7219238  16.8331451  11.8502693  71.1318665  17.4727173  12.2490387
  71.1423950  16.2310448  11.3835201  71.5477676  19.3344574  71.0258179
  71.1609955  20.1177101  70.6344681  72.4673615  19.3639355  70.7618027
  74.0621948  44.8444023  20.5797081  73.8525085  44.0899277  21.1301880
  73.7827835  44.5852699  19.7016373  70.5292816  24.5168285  88.3266220
  70.2048340  24.1864262  89.1643524  71.1915131  25.1654720  88.5652618
  66.8091125  10.9403496  48.4177132  65.9035187  10.8733416  48.1149750
  67.1649933  11.6921501  47.9440308  81.7917023  17.4086971  19.0373650
  81.8236237  17.3934059  19.9939117  82.3798981  16.7036800  18.7667904
   0.8631315  66.4620361  31.9160881   0.0590161  66.3083801  32.4120941
   1.4934120  66.7652054  32.5695915   4.7122321  44.4673424  47.9070435
   4.7657394  43.5623550  48.2142410   4.2283168  44.9253426  48.5942802
   6.4555745  66.2781219  72.9124985   6.6623116  67.2066116  73.0192413
   5.7098508  66.2662201  72.3125076  46.7017441  16.1201382  73.4767456
  46.3807564  15.3699350  72.9763565  46.9352531  16.7687645  72.8126755
  29.4776936  17.0525894  84.0702820  29.9810467  16.8644047  83.2781601
  29.5234356  18.0042191  84.1626968  17.6785355  56.2382774  56.3973579
  17.6956539  56.1799240  55.4420929  18.4012852  56.8271599  56.6143379
  60.0834541  47.2234688   2.6226716  60.7398758  47.6812553   3.1478124
  59.3085899  47.7837524   2.6662505  26.2167816  71.2688370  75.2738647
  26.8854771  70.8257980  75.7961578  26.6286983  72.0895538  75.0037079
  10.3357363   2.8299086  24.3790741  10.3047009   3.3362472  25.1907940
  10.8197193   2.0369580  24.6097717  18.1177788   1.8577935  42.8806229
  18.4732113   1.4538882  43.6723061  18.8891296   2.1332335  42.3852577
  33.5113220  33.4594841  15.0901575  33.2112389  32.8977242  15.8047276
  33.0885315  33.1008720  14.3098507  52.9550476   6.2782884   5.1247759
  53.7474632   6.4397807   5.6368561  53.2761002   6.0471096   4.2531614
  82.1899185  51.4542084   9.6095829  81.6727066  51.5219650  10.4121647
  82.0610886  52.2946587   9.1699514  37.1189156  24.5719852   9.3576422
  37.4868469  23.7294769   9.6241760  36.5469131  24.8236790  10.0826902
  33.0058060  58.2262611  86.3843613  33.6168823  57.6644325  85.9077454
  32.4834061  57.6203194  86.9098740  70.3406372  46.2599106  26.8713322
  71.0003738  46.1180916  27.5502014  70.5797348  45.6496086  26.1737690
  75.2016754  46.8237724  72.8514023  74.2578278  46.8692131  73.0041046
  75.5512772  46.4021225  73.6364059  69.7333221  44.5803909  39.1316223
  70.5776215  44.1596909  38.9691391  69.0960159  43.8685036  39.0742455
  34.4468117  70.9079819  81.0415039  34.8165016  70.8781815  80.1590729
  34.0753441  70.0359802  81.1751251  39.4144325  53.8727875  60.1864204
  38.6134338  54.3305664  60.4415092  39.9728889  53.9166336  60.9625893
  18.6823235   9.6383324   4.0125413  18.7704124   9.7401152   3.0648534
  17.7461472   9.4957771   4.1521277  77.4568253  28.8948326  32.9968262
  77.8759842  28.5924492  33.8024940  77.9523926  28.4717464  32.2956505
  72.6012573  12.7775421  76.2877655  73.1763382  12.6843824  77.0472565
  71.7458725  12.9921474  76.6599197  38.5947227  48.6560631  70.4620972
  39.5099487  48.5728149  70.1943893  38.2523499  47.7629280  70.4257278
  28.8383656  42.2814865  80.2380981  29.7939568  42.2292862  80.2568283
  28.6271172  42.4788895  79.3256073  40.5616951  36.0850372  81.6591721
  39.8671494  35.4392090  81.7885818  40.2698708  36.8524628  82.1512375
  82.7138290   2.2372117  63.6151123  82.1282578   2.2560582  62.8581543
  82.1348114   2.0857940  64.3621368   6.7569647  57.1007423  74.5113220
   6.2628431  56.3142853  74.7427521   6.3072228  57.4481621  73.7410812
  66.3424454  43.6511154   1.5962466  66.3427505  43.0748177   2.3605192
  66.2189560  44.5286636   1.9580356  21.9232941  70.8919449  83.0582657
  22.2147388  70.5541306  82.2114029  21.2265778  71.5116577  82.8420029
  46.4256439  48.7079391  85.2734985  47.0653648  48.2590485  85.8262100
  46.9478378  49.1035881  84.5756378  59.3777962  31.3652191  58.3709068
  59.6079330  32.2206154  58.0081787  59.7184258  31.3847961  59.2652321
   5.3670568   6.4448967  27.6507397   5.4751534   7.0542331  26.9204960
   4.9068155   5.6960645  27.2717152  60.6743355  60.8102112  41.5394325
  60.1265945  60.2579346  40.9815788  60.0568199  61.2401009  42.1311264
  81.7920227  14.3377056  72.6031265  81.6953049  13.9289179  71.7430267
  81.5087280  13.6643000  73.2215881  73.8284683  70.1530457  88.8012009
  73.0934448  69.8476868  88.2694855  74.4392166  70.5332031  88.1697769
  54.6413918   9.8076315  58.6183434  54.9808388  10.0592623  59.4772339
  53.7562904   9.4886646  58.7946739  82.9208984  69.4533386  23.1567097
  83.7239838  69.0945892  22.7791042  83.2241974  70.0699310  23.8230858
  33.8171883  65.8658600  54.4348221  33.7774353  66.7506104  54.7979584
  32.9532242  65.4945679  54.6135254  57.6305199  54.9570580  81.5267029
  57.2419205  55.1396866  80.6712112  57.3356590  54.0716438  81.7396164
   2.1333532  45.0324783  75.8445435   2.5239909  44.6336823  75.0669861
   2.5964460  45.8640900  75.9455261  23.5645695  29.3772755  56.1826820
  23.4649086  28.9064331  57.0100937  22.9951649  30.1415062  56.2719040
  72.5249710  55.9704208  50.8282356  73.0050583  55.6104813  50.0824585
  72.5983582  55.2993050  51.5067978  31.7353916  61.3282166  70.3120575
  31.5700169  60.9464912  69.4499817  30.8713741  61.5958290  70.6252441
  29.4030933  33.2870331  72.0340424  28.4546547  33.2762451  72.1628036
  29.5708427  32.5648003  71.4286652  73.6945114  36.2476883  30.3685932
  72.9479752  36.5888214  29.8761044  73.7604904  35.3314743  30.0994549
  -0.2796936  68.4670105  73.8594360   0.3593569  68.5849075  74.5622482
   0.2422494  68.4761276  73.0571060  15.6920147  29.7014828  -0.1522765
  15.6592236  30.1232338   0.7063754  15.5968332  28.7677631   0.0357103
   6.6421137  28.4448376  10.3066950   6.3501725  27.6140423   9.9314833
   6.8957953  28.9733753   9.5500412  45.1219177  18.9702797  14.4481363
  45.7171898  19.7128258  14.5506678  44.2524338  19.3361340  14.6105614
   4.1298442   6.6749272  63.0869560   3.8638971   7.0784926  62.2607384
   3.3901417   6.8247333  63.6757088  82.1661453  15.7459612  50.0374146
  81.6286621  14.9658689  49.9002991  82.2708740  15.8007269  50.9872894
  39.2987709  11.3301792  83.3700333  38.6320763  11.0707960  82.7340546
  39.6798401  10.5041790  83.6679306  84.3875885  20.5014267  84.3078995
  83.7138138  21.0862217  84.6546936  83.9334869  19.9776154  83.6478653
  79.0049820   5.3582959  29.7377586  78.7592850   4.5641727  30.2123451
  78.8651352   5.1396441  28.8164177  18.8515186  61.3059998  22.1139240
  18.6644917  60.7884140  22.8970947  19.7673321  61.5665398  22.2120819
  29.4300804  60.2146683  23.6364613  30.2462635  59.7617188  23.4245377
  29.1230469  59.7922401  24.4386578   1.5435437  48.9823189  49.5944252
   1.9358562  48.8977280  48.7254219   0.7827590  48.4018822  49.5712891
   4.9455528  12.4616728  39.8148727   5.5304441  13.2147121  39.7308083
   4.7796216  12.3910503  40.7549324  13.5875969   1.5655756   9.5309687
  12.8562832   1.8736843   8.9957294  13.3216743   1.7538369  10.4310102
  74.0116653  24.8203678  72.7759018  73.9000397  23.9138069  72.4896851
  73.3831940  25.3162956  72.2512054  10.8609905  10.1599302  73.4858704
  10.9309502  10.6510515  72.6672516  11.6372147   9.5999308  73.4962997
  25.7880020  56.8508759  49.3523331  25.9326477  56.5435791  50.2472534
  25.2372971  56.1770020  48.9537697  52.2612686  48.0871925  39.2291183
  52.7702026  47.6180840  39.8902931  52.3270874  49.0073280  39.4845505
  59.0047379  10.9998770  35.2361832  58.5454216  11.8261909  35.0862923
  58.5027962  10.3533869  34.7398567  78.0715942  63.6200981  16.2083244
  77.6652374  62.7984962  16.4841385  78.1087646  64.1484222  17.0056496
   8.4711905  18.7320824  31.9359722   8.9709082  18.4740925  32.7105408
   8.7779512  19.6166286  31.7367001  66.2225266  12.8909035  55.4016533
  66.4840240  13.6226902  54.8427773  66.8571167  12.8981123  56.1182289
   3.9495206   8.7157011  10.7277651   3.6405861   9.6129541  10.8531790
   4.0056510   8.6122923   9.7778244  31.5268669  13.8247471  67.6946182
  31.3248291  14.6064625  68.2087555  32.2328758  14.0989151  67.1092911
  83.0624466  35.8759193  34.9389915  82.9480286  34.9376984  35.0902481
  83.8964386  35.9436264  34.4741211  23.7622585  47.8094788  76.4831848
  24.3532143  48.2638550  77.0836334  22.8867226  47.9950027  76.8226700
  60.5298882  67.1083832  62.0073090  60.5806007  66.3401794  62.5760994
  59.6112175  67.1494598  61.7416306   5.3576717   8.5223227  59.9271965
   5.7295442   7.6487169  59.8057213   4.4181075   8.3706017  60.0293312
  56.0087357  18.7376575  18.3345051  56.1008797  18.2468033  19.1510868
  56.4588585  18.2022285  17.6811028  48.1158867  38.4969597  49.3791275
  48.2145424  38.8592262  48.4986382  48.9957237  38.5358772  49.7541008
  78.0745773  67.1331558  83.0990753  77.2335434  66.6831360  83.1788559
  78.6707001  66.6262589  83.6503754  10.0443296  27.7402973   6.9107866
  10.8295279  28.2280045   7.1594596  10.3246393  27.1929340   6.1772666
  76.6848221   3.5876822  34.2302208  76.1690903   2.8996034  33.8097458
  77.5706863   3.2281389  34.2772827  59.4845047  64.5148163  33.2575607
  59.1434555  64.0389938  32.5002632  59.0544777  64.1078339  34.0096741
  49.0073128  70.7902374  79.5334091  48.6167183  70.5643921  78.6892090
  48.8020935  70.0458374  80.0990753  86.4438171  38.7760811  24.0497475
  87.1000214  38.0908928  24.1767960  86.3699112  39.1985626  24.9054794
  68.1426773  67.7602692  58.8747787  67.6384811  67.0825119  58.4246025
  67.5981216  68.5450058  58.8124886  84.4538879  66.5601501  13.6313362
  83.8842545  67.3151016  13.7789621  84.6534042  66.2353210  14.5093527
  62.5045204  66.7897797  15.4555950  63.0652618  66.0384140  15.2625751
  61.7333908  66.6613083  14.9032507  59.8581047  25.8163280  14.7635050
  59.4892616  25.7297077  13.8844805  60.3858681  26.6139202  14.7242708
  64.2380295  23.6972179  67.0643158  64.8530731  23.9328403  66.3697357
  63.4070206  23.5561924  66.6106949  70.0247955   8.0395861  81.5921021
  70.7991714   8.4874001  81.2514572  70.3356705   7.1634369  81.8200302
  54.9769135  58.6883278  39.8915787  54.7497215  58.2341194  39.0802155
  55.7027359  58.1809845  40.2549171  42.0051231  63.6421547  39.2168121
  41.4831276  64.3981400  38.9480324  41.4139519  62.8957672  39.1185760
  58.0270004  27.5604877  25.7594471  58.3105507  27.8323116  26.6323395
  57.0710678  27.5914211  25.7976952  69.2538376  34.7083397  75.2979202
  69.4998169  35.0987358  74.4592819  68.4231873  34.2664299  75.1219482
  33.7776680  59.8711319  84.3781891  34.6267014  59.8615952  84.8200912
  33.2784233  59.1739540  84.8035507  15.3522997  68.2403870  46.7609863
  15.9678879  68.6696014  47.3551712  15.9062624  67.7331161  46.1676636
  28.8100185  49.4987907  80.7295685  28.3612518  48.6792488  80.9374008
  28.2854328  49.8884125  80.0301132  33.4439621   1.3513790  74.8611069
  34.2944603   1.2005503  75.2735825  33.2368507   2.2632172  75.0657730
  33.0857887  56.3300133  15.5007763  32.7360764  57.2210083  15.5084009
  32.9469490  56.0258865  14.6038580  31.0960350  52.4409409  80.5025940
  31.8818703  52.7039299  80.9816895  31.4254341  52.0991249  79.6713943
  58.1683655  69.9587479  73.8995514  58.4750443  69.0992432  73.6106949
  58.2409668  70.5126190  73.1222610  52.3405571  27.8082256  37.1717949
  51.5234299  28.0892124  36.7599907  52.3250427  28.2161102  38.0376053
  76.4895935  59.7586784  53.9170494  75.7672043  59.1340485  53.9820633
  77.2719193  59.2127647  53.8384781  12.2492199  11.0222979  17.2906971
  12.9623756  10.4064207  17.4590282  12.0339632  11.3806467  18.1517906
  66.7249069  62.9368439  43.8989487  66.8110733  63.2855759  43.0117111
  65.7821655  62.9339142  44.0646439  18.9942799  33.1551666  68.9483719
  19.8968449  32.8368225  68.9320755  18.5358982  32.5461121  69.5273056
  57.9353600  35.1345215  49.9391136  57.9013367  35.3868752  49.0164032
  58.0771332  35.9572487  50.4073601  52.0288773  22.8309155   7.0526152
  52.0564880  22.1415977   6.3890572  52.4182777  22.4307060   7.8300676
  16.8251362  55.0778160  28.9235973  17.3679276  54.7163429  29.6242714
  15.9895048  55.2763252  29.3461437  60.0590668   6.3961844  55.3891220
  59.3731422   5.9337196  55.8706436  60.1201706   5.9319992  54.5542374
   7.8402491  45.4716530  34.0804596   7.4677448  44.8180847  34.6723404
   8.7043314  45.1265030  33.8558121   1.4886426  39.4292107  39.9528465
   0.9091132  39.2680817  40.6974373   1.4673542  40.3787460  39.8338585
   1.4527708  57.7416725  21.4775925   1.3129859  57.7674065  20.5310040
   2.4013331  57.8165932  21.5817509  84.7768707  30.9785519   9.2781792
  85.6023483  31.1321716   8.8185825  84.6364212  31.7746029   9.7908258
  38.8860474  51.5576096  74.8053055  38.9620323  50.7019920  75.2276459
  37.9936028  51.8429642  75.0011368   1.3967059   2.2606301  36.9274750
   2.1090977   2.3337326  36.2923470   0.9957416   3.1297288  36.9387321
   9.6445293  24.4995728  59.9926529   9.1273813  23.6967144  59.9277840
  10.4857597  24.2754116  59.5947647  85.0858231  63.8130569   3.8535104
  84.2226181  63.5688095   3.5196650  85.0447235  63.6174698   4.7896128
  73.0955887  53.0983925  12.8138380  72.7152328  52.6387138  13.5623398
  72.4492188  52.9948158  12.1154776  22.7744503  47.2851219  74.0178146
  23.1902695  47.3677559  74.8760147  23.1524849  46.4890709  73.6441574
  25.5131321  12.9026842   1.6344213  24.6384773  13.2655277   1.7742573
  25.8785973  13.4265556   0.9215215  26.4546890  68.6935959  81.0949326
  26.1912594  69.4816742  81.5700760  27.4112377  68.7277756  81.0860672
  48.8459358  46.7038193  65.7402725  49.7038994  46.4772148  65.3814087
  48.8553009  46.3454704  66.6278076  52.3959503  17.2964191  73.8912277
  51.8191147  17.7025146  73.2442551  51.8254166  17.1089554  74.6365967
  65.2646027  13.9431591  15.1591015  65.7687836  14.2264862  15.9218378
  65.5305252  13.0341587  15.0204086  41.0353928   5.5647798  16.2644863
  40.4587402   4.8272443  16.0651226  41.9124756   5.2483783  16.0480366
  77.6762466  33.4455032  75.3866806  78.4095764  34.0320740  75.2012253
  78.0267029  32.5680504  75.2334137   5.4793997  17.2673302  88.4025497
   5.8653336  16.6437683  89.0177383   6.1156988  17.9807606  88.3538437
  83.0886307   9.5863857  47.5314713  82.6391068   8.7804766  47.2771645
  83.8716812   9.6076689  46.9813766  82.4644470  21.1519356  70.5483246
  82.7267456  20.2795258  70.8421478  83.2888718  21.5950813  70.3478699
  69.6795654   7.4648499  67.1038361  69.5596619   8.3222246  66.6954651
  70.5010529   7.1377306  66.7372437  32.6141663  10.1838675   6.0350404
  33.0202560   9.7529545   6.7871294  33.3270912  10.6749763   5.6266503
  22.8665161  21.3880405   9.8107176  22.0219879  21.0499973   9.5128412
  23.5077000  20.7638512   9.4708614  32.9657974  12.9208183   0.8839983
  33.0294075  12.5298700   0.0125941  33.4196243  13.7597752   0.8038282
  30.3096275  30.3059425  14.9404173  29.9333515  29.8378258  14.1950884
  29.5985260  30.8629112  15.2571974  59.3490410  59.9557877  13.9751310
  59.7608604  59.7433624  14.8126945  58.7138519  59.2534370  13.8355913
   1.9180789  35.8106461  81.3866730   1.3959032  36.1169243  80.6452179
   2.7282310  36.3177910  81.3348083  48.0208969  70.6879807  84.6530991
  47.3157578  71.2602997  84.3506775  47.8417244  69.8457413  84.2350464
  58.2721367  52.2082329  10.9258137  58.9236794  51.7226906  11.4317522
  58.3624496  53.1130676  11.2247295  12.6970844  12.0847702  26.1844406
  12.0858421  12.0302572  26.9190445  12.9392700  13.0098753  26.1425171
  74.8275528  20.5889282  26.3308887  74.6327133  20.2885551  25.4431705
  74.2666016  20.0545902  26.8930721  23.8880539  27.6370468   0.3874022
  23.9330044  28.2566948   1.1155823  24.6116447  27.8888626  -0.1863889
  14.8923922  20.6538639  83.2276459  14.7973452  21.5941772  83.3793259
  15.6755409  20.4096489  83.7208633  32.8906670   0.4973954  77.6002884
  33.1004868  -0.0883880  76.8729172  32.2068520   0.0382744  78.0879745
  24.9621735  12.9177990  55.1983452  25.4545860  12.2754583  55.7093811
  25.3452988  13.7609396  55.4403343  58.6848564  48.6156273  40.8306198
  59.3933945  48.0522003  41.1416817  58.8228989  48.6741943  39.8852386
  33.0126228  67.9362106  71.8459625  32.8912277  67.3968124  72.6273346
  32.4054031  68.6669006  71.9626236  77.7592773  66.4464951  37.8315392
  76.8241272  66.5645370  37.9982300  78.1899643  66.8591003  38.5802040
  18.9593754  53.7908936  59.6241493  18.6300049  54.5210152  60.1482391
  19.5408516  53.3140755  60.2164040  17.3371906  71.6041870   3.3196952
  16.4552784  71.7769165   2.9901075  17.7118568  70.9882965   2.6899903
  43.3292007  30.6313858  64.1406403  43.8260345  30.6046982  63.3229103
  43.1934700  31.5639992  64.3080978  46.0307007  56.9985237  66.1724701
  45.4466476  57.7270660  65.9618912  46.9067726  57.3284454  65.9727707
  83.4069595  45.8621902  16.3847656  84.0908508  46.3485069  15.9243107
  82.5876007  46.2060585  16.0288944  66.6994324  65.2077332  60.5827522
  65.8183746  65.4278564  60.2802238  67.0488205  64.6309967  59.9033890
  74.2575760  44.5674744  55.1861839  74.0635071  43.8137054  54.6290436
  73.6642380  44.4735603  55.9314117  40.9578247  10.8976507  80.7918091
  41.0811386  10.1732607  80.1783829  40.0139542  10.9199944  80.9494171
  11.7348909  16.6991234  17.7778111  12.1460447  17.4076900  18.2729034
  12.4001169  16.4330921  17.1430416  17.3209991  23.3179417  17.3703041
  17.1070232  23.2064724  16.4440098  16.9822407  22.5277748  17.7911491
  75.4943008  19.9625168  23.6686230  75.4777298  19.1535282  23.1572571
  76.4250565  20.1528702  23.7856388  79.3168716  27.2982311  22.9061356
  78.8150177  26.4930534  23.0328808  79.3645859  27.6904640  23.7779770
   7.7040472  61.1974678  24.5646629   7.0050998  61.8208008  24.7625446
   8.2185936  61.6241341  23.8795147  57.4784966  63.8938789  18.6330433
  57.6270027  63.6362610  17.7232018  58.3033333  64.2956696  18.9058857
  27.1725368  34.7366943  82.0808182  26.5034180  35.3161087  81.7164154
  27.9956894  35.2057571  81.9443054  66.5834579   1.0858073  11.6265059
  66.8654861   1.0204158  12.5388718  65.7103119   1.4752730  11.6730490
  28.0030766   1.8386334  35.8599243  27.2372513   1.7492862  36.4271660
  27.7252502   2.4488506  35.1767845   5.2090855  56.7525673  49.8686447
   4.7507749  56.8703156  50.7007027   4.7260447  57.2999725  49.2495766
  76.1759338  18.9224854   9.5974636  75.3739777  18.6056252  10.0130358
  76.0075150  18.8410892   8.6587191  47.6746368  11.7777290  68.3058472
  47.1858521  11.4915257  69.0774765  47.3977699  11.1797733  67.6115646
  73.1099930  52.5292244  67.7526321  73.4745865  53.4133682  67.7127991
  72.6479797  52.4229813  66.9210739   6.1474967  44.7660942  18.7438431
   6.6558709  45.5648499  18.8844776   5.6046538  44.6864700  19.5282001
  55.3770065  39.0041008  50.3386345  54.4398918  39.1991692  50.3389091
  55.6915131  39.3409233  49.4996643  49.2370110  65.8130264   1.4847128
  49.0250168  66.2633438   2.3023338  50.1937485  65.7913208   1.4643325
  77.5268631  41.5250931  12.1147833  76.8252945  40.8925629  12.2694921
  78.3313904  41.0402374  12.2988768  50.4583855  11.4282618  12.3669701
  51.3198395  11.2256842  12.7317867  50.2294426  10.6557598  11.8501940
  24.2827644  53.7689667  75.5686264  24.2171574  52.8373070  75.3590088
  24.7346001  54.1523590  74.8169098  13.1166620  70.1970444  50.8908310
  13.3026047  69.6062317  50.1610413  12.2054415  70.4594955  50.7603378
   1.0458190  29.9822922  78.5367355   1.8118331  29.8070030  77.9901810
   0.5295062  30.6100826  78.0312347  84.2009201  59.8167000  12.7619553
  83.7422867  58.9766159  12.7500906  84.3029022  60.0207977  13.6915665
  29.1513271  55.5724297   1.2814131  28.8810577  56.2299538   0.6404377
  29.6897488  54.9583702   0.7821485   0.7667799  24.6298904  19.2015133
   1.1974168  23.9443054  18.6908722   1.2989464  25.4110565  19.0504799
  18.0571365   1.3379626  10.0054302  17.4997597   2.1155758  10.0350981
  17.4522934   0.6161339   9.8340855  43.4061699  31.9639874  34.3217659
  42.7270126  31.8596497  34.9881630  43.4657364  32.9097099  34.1865120
  81.8350906  51.2823257  19.2248421  81.6395798  50.4309540  18.8334675
  81.5217972  51.2091331  20.1263504  52.0284996  51.7115822  72.4173584
  52.8690796  51.2722969  72.2881927  52.2601013  52.6204948  72.6083221
  15.6996288  55.3070793  69.3876266  15.3634815  55.6843262  70.2005997
  16.6456070  55.2512321  69.5226822  43.0465508  39.0627670  14.3920078
  43.2006149  39.1813889  15.3292503  42.6297455  39.8779449  14.1127377
  45.6581688   9.5909128  64.5503159  45.2799873   9.5006037  63.6756439
  44.9937668  10.0645447  65.0507889  50.4004288  21.1730175  57.3929405
  50.9989548  21.3230305  58.1247139  49.5325966  21.3593044  57.7512665
  34.5268059  42.5558014  82.6458130  34.3170471  41.6223869  82.6145935
  34.5388947  42.7674751  83.5792389   4.0704751  55.9419022  55.1804047
   4.6399393  55.2174568  55.4394760   3.8372059  56.3696442  56.0043335
   0.8563102  40.3495216  15.4463081   0.0488400  40.1612778  14.9679899
   1.4008002  40.8253860  14.8191586  66.0269928  15.1375437  33.8662262
  66.9214554  15.1081390  33.5266533  65.5921021  14.3873863  33.4608002
  20.9795265  51.1548805  35.2920685  21.0927811  50.6331177  34.4976082
  20.0337009  51.1655273  35.4388161  78.8616714  53.6788826   8.2626400
  79.4103851  53.6543655   9.0465727  79.3779678  54.1708984   7.6242065
  12.6160088  45.6086273  60.1119728  13.3517895  46.0563965  60.5295372
  11.8459835  45.9156494  60.5905457  38.6735229  40.9676361  61.0676689
  39.1165504  41.3468666  61.8267097  37.9353065  40.4839096  61.4381790
  33.4683685  21.4160137   0.9058788  34.2763138  21.8834324   1.1179470
  32.9034576  22.0807533   0.5118857  61.5101700  37.5509224  51.9762917
  61.1793289  36.7879524  51.5023117  62.4184456  37.3297272  52.1820564
  69.4098282  62.4995041  23.2515583  68.8913269  63.2622643  23.5076504
  70.1450348  62.4929314  23.8644676  12.3771877   4.5884433  64.5913239
  11.9864588   3.8301814  65.0256119  13.1199150   4.8260026  65.1464386
  64.0952606  58.3708801  73.3406601  64.5207443  57.6944275  73.8675385
  64.0949554  59.1465034  73.9015884  25.3519974  63.1330757  30.4580078
  24.5177994  62.9974899  30.0086060  26.0050144  62.7520752  29.8709469
  79.6900177   9.3929377  54.4906883  79.7439651   8.7312803  53.8010979
  78.9447021   9.1206961  55.0260544  79.5545883  29.2980289  64.5733795
  80.4469833  29.2994823  64.9195938  79.6640320  29.1818943  63.6295776
  50.1053009  40.1554184  64.9824066  50.0515862  40.3336182  65.9213409
  50.1762238  39.2026939  64.9231110   9.3708248  43.5939178  49.0691910
   9.9450159  44.3186340  49.3168221   8.6507950  43.6329575  49.6986847
  60.3720551  23.2227173  87.6233597  60.1868858  23.1119156  88.5559158
  60.4067307  22.3305111  87.2783966  17.1491814  41.8138809  75.4980621
  17.5853748  42.5366249  75.9492950  17.8386497  41.4092178  74.9716492
  52.1776390  15.3509922  50.1660843  51.4256516  15.5602503  50.7201157
  52.2499695  14.3975649  50.2105598  55.4286423  43.0267258  87.3546600
  55.5538940  43.9622993  87.1957550  56.3159561  42.6705093  87.3995285
  20.6481457  10.7240009  19.8160248  20.0556736  11.3897867  20.1652203
  21.1398411  11.1766243  19.1307526  56.0426750  61.5551376  10.8007755
  56.2730598  61.2516479  11.6788702  55.5287743  62.3489876  10.9488916
  85.4099503  49.0513191  22.9766941  84.8325729  48.2880592  22.9595375
  85.4309540  49.3151245  23.8965855  51.1979446  29.9288807  47.2922478
  51.5957108  29.0885315  47.0645943  50.3525467  29.9231472  46.8433609
  66.1733856  29.9244690  15.8398914  65.4566650  29.3829136  15.5093527
  65.8094330  30.3585491  16.6114769  65.0705185  19.7795086  28.0695362
  65.2848663  18.8755646  28.3001366  65.5421753  19.9362831  27.2514935
  43.2324715  70.0951920   0.5229356  42.8183861  70.0724182  -0.3397606
  43.0184784  69.2480316   0.9137685  49.3013306   4.4480128  44.5263824
  50.1298637   4.8417339  44.2529793  48.7524834   4.4764881  43.7426834
  19.2143059  63.0592041  10.7083254  19.4712868  62.2543182  10.2584925
  18.4850101  63.4004631  10.1907330  40.9466667  39.9351387  78.6552505
  40.0696373  40.3006401  78.5392456  41.1714935  40.1357269  79.5637970
  83.3984756  54.8892250  74.4676361  83.1420135  55.7785988  74.2237549
  84.0896912  55.0093231  75.1188049  29.7792969  56.8867264  43.8388557
  29.1616840  56.4765930  43.2334023  29.9698219  57.7385979  43.4461098
  73.4946747  52.2787971  63.5436172  73.1460876  51.9060707  64.3534317
  74.4090881  52.4771500  63.7454262  10.6028061  27.7154236  52.0926781
  11.2483730  28.1028824  52.6837387  10.1205750  28.4637394  51.7409554
  37.0572510  56.6261215  67.0145645  36.3352814  57.2061348  66.7725296
  37.2329292  56.1188354  66.2220840  53.9753609  10.9551325  70.1938477
  54.1247101  10.8209953  69.2579346  54.8520432  11.0589066  70.5638351
  54.9296227  20.1085396  30.3360195  55.7480545  20.0762825  30.8313599
  55.2053833  20.1814766  29.4223080   6.4474816  37.5532684  75.5579681
   5.7218337  36.9316368  75.5010376   6.2625737  38.0658417  76.3449326
   8.5892830  25.1879292   2.9719388   7.6979327  25.5338936   2.9268198
   8.5504904  24.5137920   3.6503685  33.2000122  54.6407852  79.0451508
  33.4173698  54.6478539  78.1129837  32.7255058  55.4599648  79.1866608
  44.1607666   9.3878698  62.3588905  43.4438248  10.0046616  62.5065117
  43.7624664   8.6715317  61.8644714   0.6987627  10.9164419  33.4108696
   1.5991167  10.7750769  33.7034645   0.3690000  11.6129932  33.9785881
  51.8822746  54.7419701  52.9763184  51.6558418  54.7742424  53.9057884
  51.0800705  55.0048447  52.5251045  62.6973000  14.1167517  15.7549400
  62.8427467  15.0592117  15.8376818  63.5755196  13.7452927  15.6714134
  -0.1775431  37.2009850  86.7127228   0.6807814  37.5658112  86.4972763
   0.0178187  36.3851585  87.1736908  38.6502762  34.3112030  73.1008911
  38.8811874  33.9067039  72.2646561  39.3482590  34.0419579  73.6980209
  81.0542297  62.4655876  55.6192284  81.2465134  63.3114166  56.0239906
  81.3647156  61.8201027  56.2541924  52.1941566  55.2628365  39.6473312
  52.6609192  55.3175011  38.8134384  51.5142212  55.9337425  39.5856514
  60.3143959  57.2299652  81.4161530  60.5784798  56.7446938  80.6344910
  59.3575363  57.2160301  81.3948364  32.1688843  32.6995392  12.3327513
  31.3105507  32.9649582  12.6629810  32.0016212  31.8852272  11.8582525
  81.6226349  23.8592606  47.0149841  81.2506714  23.2417049  47.6446724
  80.8620377  24.2499027  46.5847244  48.0253563  67.9488678  16.4781857
  48.1876717  67.8915253  15.5365925  47.0719986  67.9867630  16.5550156
  37.0164032  51.4160004  84.6867981  37.3677177  51.3819275  85.5765457
  36.0882568  51.6189346  84.8033752  66.4807434  55.6613579  85.2445984
  67.3069382  55.6120834  85.7254410  66.0442123  54.8305321  85.4327316
  64.6238937  33.0874901  65.3480225  65.3868561  33.6655273  65.3456573
  64.9158020  32.3075180  65.8199005   8.7048397  16.5555801  60.4122086
   8.7166681  16.3004704  61.3347092   8.0517912  15.9807215  60.0130882
  66.2448578  14.4957161  60.5636253  65.5625916  14.2601271  61.1923065
  65.9029388  15.2710409  60.1184349  51.5465965  54.4585648  26.8300419
  50.9985962  54.0537262  27.5023727  51.5040016  53.8531952  26.0898094
  62.0236931  26.9295807  33.7918320  62.1299896  27.7712765  34.2350960
  61.7757034  27.1600304  32.8964958   3.0631073  10.1820221  52.7955437
   2.8397341   9.2753191  52.5852432   3.9356172  10.3065386  52.4221077
  63.7244339   6.8290668  58.4936218  62.9091644   7.0844126  58.0619125
  64.0163803   7.6224270  58.9425926  47.7744408  54.6128807  68.0589142
  46.8228378  54.7126160  68.0316696  48.0497055  55.1446190  68.8057251
  28.0483818   4.5540714  20.0683479  27.6915932   4.5021529  20.9550476
  28.2523136   3.6474645  19.8387661  10.6902027  32.5676155  13.7531757
  10.3449707  32.2253723  12.9286051  11.3833256  33.1729507  13.4897661
   6.8280835  28.5749588  80.1136398   6.4631004  29.4509296  79.9883728
   7.4369135  28.6716290  80.8459015  50.7816124  31.1975937  22.9342804
  50.0489769  30.6067486  22.7599754  50.6034775  31.5491638  23.8065758
   5.6629810  65.0087891   8.5963173   5.2417002  64.1612930   8.7395020
   6.4748168  64.7978439   8.1351719  74.0991592  16.3396225  31.4512653
  73.8525314  15.4580631  31.1715088  74.7729568  16.6092453  30.8271427
  65.1357193  35.1358452  50.3350410  64.2462463  35.0455704  49.9931145
  65.5074463  34.2561150  50.2708092  67.5509796  50.1207085   0.6397591
  67.2615738  50.3612480   1.5198822  68.4372253  50.4762535   0.5735225
  15.2273607  30.7719994  12.3623562  14.8862906  29.8871994  12.2318544
  15.6650095  30.7369537  13.2129259  26.6622696   4.0578780  44.5838890
  26.5513344   4.9926181  44.7576332  27.0726128   4.0219121  43.7198563
  66.1531906  40.7588310  80.4994965  66.8907471  41.3349152  80.2985611
  66.2557449  40.0202370  79.8993301  78.4942627  42.1084595  32.8684349
  79.3531342  41.6941032  32.9513359  78.4656677  42.7453308  33.5824432
  54.5435638  19.9209652   4.8949404  55.2015266  19.4769497   4.3599958
  54.3318214  19.2922344   5.5849366  44.5181046  54.2739906  38.8574104
  43.5919113  54.3168526  39.0952415  44.9714203  54.1207809  39.6864243
  49.4614258  56.0271606  45.6280670  49.4375916  55.4141808  46.3628616
  49.0417061  56.8194046  45.9633522  30.3024597  47.5047798  69.0726242
  29.8000851  47.5610695  68.2597961  30.1415997  46.6171150  69.3926315
  48.6315231  41.8232651  74.4096375  48.1550179  42.6126175  74.1525345
  48.1087570  41.1026878  74.0579071  18.5288143  33.3670120  23.0263824
  18.1753521  33.7754517  22.2361469  19.4140930  33.7225990  23.1043129
  37.2703819  61.4782791  18.3161125  36.9877777  62.0458641  17.5990257
  37.0955315  61.9873238  19.1076508  26.1611671  50.4948883   6.3220158
  26.9466267  50.7821655   5.8564425  25.6278286  51.2856407   6.4025826
  78.3824692  31.5337696  29.0610237  78.8344345  32.2783775  28.6641350
  79.0530090  31.1002502  29.5889187  28.5525360  53.2884331  80.7341232
  29.4708595  53.0568810  80.5951996  28.1952362  52.5582771  81.2395325
  44.1244278  19.7300663  74.9660645  43.2801323  19.6877804  75.4150696
  44.7707024  19.5844746  75.6569824  81.8247070   2.4527795  22.8651333
  81.6385727   1.5286702  22.6989841  82.6940460   2.4537337  23.2657375
  55.6208534  37.3519287  26.3465862  55.7755775  36.6910782  27.0215435
  54.7757835  37.1124306  25.9661484  64.1770172  35.4857788  80.2112885
  64.5941925  34.6899681  79.8813171  63.8651505  35.9358978  79.4262009
  83.9882660  37.9113464  87.8039627  84.8747406  37.6522331  87.5524521
  83.6494293  38.3783035  87.0401764   9.8449688  50.2501335  48.9476547
   9.8532448  51.1760063  49.1903992  10.2392530  50.2275925  48.0757217
  67.1741409  18.2403793  60.5399437  67.3812485  18.0138550  59.6332893
  66.4242249  17.6875687  60.7596169  41.8102875   8.1544905  27.5192451
  42.1051712   7.5093160  26.8765774  40.9570389   8.4427710  27.1950645
   2.0503983  59.5742073  69.6658783   1.5980654  60.3256493  70.0492401
   2.7870882  59.4119644  70.2551117  13.4132214  42.8514366  24.0867043
  13.5345678  42.7483482  25.0305672  14.2996397  42.9577408  23.7414589
   7.2173748  54.2053490  45.9201813   6.6681867  54.9829216  46.0202065
   7.9134364  54.4789696  45.3228035  75.3862076  71.1619034  18.8482952
  74.6128769  70.8471527  18.3801918  75.8419113  71.7147217  18.2135048
  35.5874062  49.2108383  16.7165756  35.5246086  48.2892532  16.4656315
  36.5260773  49.3677139  16.8191376  39.9445305  61.0597229  57.6205444
  39.3095169  61.7311211  57.3711205  39.4255905  60.3964729  58.0755539
  76.7290955  33.8274879  29.6725616  77.0728226  32.9518433  29.4955578
  75.7781525  33.7207565  29.6491642  26.6404991  56.2579765  44.5672874
  27.0184078  56.0647430  45.4252396  26.7708149  57.1995621  44.4547386
  13.1402264  66.2523727  59.4979630  13.1347036  65.9071579  60.3907318
  12.7148247  65.5723724  58.9755974   0.8302246  41.8743782  65.7338715
   1.1169147  42.4881058  66.4101715   0.1736949  42.3589287  65.2334671
  33.6710129  70.1226501  19.9907379  32.9697380  70.2032623  20.6372280
  33.2589226  70.3587341  19.1596661  60.5132332  69.3612747   2.9071445
  61.3850975  68.9728317   2.9792435  60.0749016  68.8424530   2.2326658
  28.9295979  55.3689156  61.7172928  29.1447678  54.7157021  62.3830605
  29.6647701  55.3380775  61.1050797  77.5878296   3.5182736   0.6884490
  77.1828918   4.3794284   0.5851451  77.1016159   3.1093035   1.4043891
  48.0915642  39.0852585   7.1681204  48.6448746  38.3509102   6.9020109
  47.8288574  39.4976997   6.3452544  42.9639816  35.6076431  60.8634796
  42.7807007  36.0218582  61.7067261  42.4355850  36.0996895  60.2350502
  35.3165016  71.1265335  78.5277634  35.1155663  71.6083069  77.7254181
  36.2150993  71.3789291  78.7400055  15.9185553  45.9983063   0.2424820
  15.8330545  46.9322319   0.0509017  16.3402271  45.9675903   1.1012493
  66.5436172  48.5550690  19.4188919  65.9955902  48.1576920  20.0956383
  66.0460968  48.4394836  18.6093597  10.5090647  39.9959755  66.6108551
  11.4599686  40.0882835  66.5517654  10.2981300  40.2588120  67.5067673
  80.5721817   0.4670549  30.7458572  79.9200058  -0.1271743  31.1170559
  80.8395920   1.0186262  31.4810371  37.4762154  48.1184044  45.9447556
  37.8977280  48.9736404  46.0291901  37.7453079  47.8028831  45.0820465
  53.1890640  48.8296623  85.4685287  52.9241600  48.6297340  84.5707092
  52.8772125  48.0843582  85.9818573  66.2218704  69.6055222  85.4776154
  66.0670700  69.8114853  86.3994904  65.6680756  70.2217789  84.9982605
  56.2147980  46.3518448  59.5468140  56.1449394  45.4188004  59.3448792
  56.6126747  46.3794441  60.4169655  85.0999298  15.8046265  62.0751114
  85.9455566  15.4840536  62.3887711  84.9088821  15.2651300  61.3078575
  19.7039871  43.3564110  20.8818569  19.1157780  43.9387779  21.3625736
  19.1919727  42.5595245  20.7438335  26.8399734  53.3014908  78.4771881
  27.2452316  53.2960434  79.3443527  27.0485096  54.1650391  78.1207809
   7.9824653  18.7444115  15.0874615   8.6647291  18.3074398  15.5971708
   8.2502661  19.6631546  15.0668488  38.4099693   1.8695159  29.8612385
  38.0663033   1.3977170  30.6198750  37.6477585   2.0057435  29.2984695
  17.9182110  41.3006325  19.8229275  17.3401699  41.9799919  19.4756927
  17.4135284  40.8936920  20.5271492  29.7581272   0.8506865   2.1265705
  30.6763916   0.5975379   2.2211127  29.7811508   1.8023237   2.0261292
  17.6850662  12.2908220  85.0591583  16.9070053  12.0900106  85.5792770
  18.3389168  12.5648584  85.7022858  75.6460114  27.2206688  69.5799103
  76.3659439  27.2598152  70.2094955  76.0629959  26.9743805  68.7542572
  57.6266975  56.1098366  36.4072151  57.8276711  55.5393066  35.6653709
  57.3050156  56.9179611  36.0076065  34.0423279  17.2950573  75.4931641
  34.9593697  17.3355522  75.2218170  33.6037941  17.9534569  74.9542542
   6.8872652  32.6018791  58.5832672   6.1183224  32.1822968  58.1973801
   7.5887275  31.9590569  58.4785538  25.1583843  33.8608513  51.8485146
  24.6484947  33.5271301  51.1103592  24.6690311  33.5828934  52.6227913
  52.2324867  54.4004211  49.0358505  52.3590622  54.9717178  49.7933693
  52.8450699  53.6782837  49.1754646  41.4718933  62.3223991   7.4045510
  42.2935905  62.3402214   6.9139080  41.2993126  61.3920288   7.5489926
  82.1517105  17.3853512  52.6406937  81.2136154  17.1991501  52.6015472
  82.2535095  17.9413452  53.4131813  21.1049957  54.3308563  36.8399429
  20.2720394  54.5544281  36.4246941  20.9886417  53.4294167  37.1401062
  66.2455215  15.1472759   7.0950537  65.5892868  14.9875669   6.4167614
  65.7352371  15.3116140   7.8880453  78.5538330  26.0955524  25.3184528
  78.0388031  26.6124802  25.9379368  79.3063965  25.7928410  25.8266354
  57.2326355   0.8735365   0.6805995  56.4094810   0.7628783   0.2047779
  57.2125473   1.7803967   0.9862673  33.0008430  54.2436066  59.1585846
  33.8539009  53.8094902  59.1501579  32.3770714  53.5423279  59.3466034
  71.2379608   2.1264172  64.6911774  71.0445938   2.1456890  63.7539101
  71.0692139   3.0203264  64.9889755   7.0158815  26.9083061  17.3740101
   6.7493010  27.3558979  18.1770229   7.1037869  27.6085663  16.7273731
  65.7870255  34.2883415  52.9898911  66.3429794  33.8056641  52.3781929
  65.9077454  35.2069740  52.7495308  70.1464310  14.3106918   1.1986713
  69.8371811  14.8490782   0.4701574  71.0904694  14.2374144   1.0584701
  81.0749054  56.2505379  60.4244652  81.4785614  55.7865829  59.6909523
  81.0770721  55.6149788  61.1402092  47.5885201  25.0268803  58.0018387
  47.1974487  24.4223080  58.6325417  47.1095505  24.8674908  57.1885643
  30.5456066  16.2909813  15.7243738  31.1245880  16.8769341  16.2118893
  31.0732956  15.9956551  14.9823771   2.3699050  56.4045029  15.4170189
   2.4867003  56.0463905  14.5370493   3.2586489  56.4821320  15.7639189
  51.2663345  47.2532692   0.2112834  51.5930099  47.4775848   1.0826037
  50.6775894  47.9728470  -0.0163554  80.0954514  11.1281881  28.6675053
  80.2406082  12.0681505  28.5596600  80.9561539  10.7776670  28.8967648
  20.0936565  69.4469528  79.2958450  20.1178055  69.0096512  78.4447174
  19.7068043  68.8005219  79.8863525  45.6645355  68.3573151  27.2429008
  45.2073174  67.9947052  28.0016479  46.2614326  67.6613998  26.9678535
  86.6010208  12.4316673  16.4828644  87.4116364  12.1471224  16.0607662
  85.9257126  12.3009996  15.8171978  71.3156662  43.1579552   6.4199491
  71.8660965  42.3978081   6.2316985  71.7130661  43.8710823   5.9201984
  81.5813217  66.8738251  81.9307327  82.3305435  66.6872559  81.3649597
  81.6255722  67.8177490  82.0832825  71.2094193  67.1501617  16.1526909
  71.6704865  66.4519730  15.6877441  70.4474182  66.7182388  16.5387325
  26.2134571  28.6469975  69.7569199  26.5341549  28.5674324  68.8585587
  26.6176910  29.4501152  70.0852890  56.4990158  54.9250526  49.2516556
  56.7590561  54.0866127  48.8700447  55.7243500  55.1851158  48.7531624
  21.6535244  43.8223839  62.0277901  22.4498348  43.3904037  61.7187347
  20.9796028  43.5591812  61.4010620  84.6984863  18.0891609  18.1624393
  84.6840210  17.1457920  18.0009499  83.8956299  18.2602215  18.6547661
  51.5843315  13.7458382  66.6176910  51.1850662  13.6212273  67.4786758
  51.5414810  12.8824787  66.2065887  22.8114243  28.8412437  27.8920155
  23.0915070  28.0771961  28.3960171  22.6428795  28.5001316  27.0136833
  86.6299133  69.4225006  44.0249863  86.8252335  69.9034119  43.2207413
  85.6808395  69.4974136  44.1243477  51.0907669  10.0936213  16.3038559
  50.5915031  10.6381798  15.6952324  50.8040390  10.3792267  17.1712933
  52.3642159  69.7118225  31.7649517  51.6069031  69.3651428  31.2932262
  52.9046097  70.1162033  31.0862160  57.2611351   3.6053302  37.5775909
  56.7810059   3.0898132  36.9295540  56.6505585   3.6996582  38.3087044
   4.4295349  54.6527863  72.4942551   3.5590768  54.7682953  72.1132126
   4.8993239  55.4548912  72.2658768  23.9967422  65.8290482  36.8205338
  24.4939270  65.1595306  37.2904167  23.2842884  65.3474121  36.4002151
  43.2196426   2.4733338  89.0285950  44.1116905   2.1376915  89.1170654
  43.3119774   3.2601871  88.4914093   0.2673988  33.5830879   5.5484309
   0.5548833  34.4802399   5.7178502  -0.1226561  33.2965851   6.3742661
  77.0613937  70.0139313  44.4650078  76.2508011  69.5374146  44.6441917
  77.7547684  69.4338684  44.7796364  47.7716599  64.1250687  61.3264236
  47.9756126  65.0493393  61.4691048  46.8441429  64.1181870  61.0900040
  15.2436247  32.1626892   3.6054420  16.0049419  31.5866814   3.5358567
  15.1209173  32.5054665   2.7201858  76.3228226  63.6190186   7.7194591
  76.8011398  62.9799309   8.2476797  75.9690781  63.1100883   6.9900165
  69.6669846   4.4971275  61.6504974  69.8016205   3.7840943  62.2747498
  69.8712387   4.1114049  60.7986031  70.2018814  52.9641876  11.9627428
  69.8787689  53.8360443  12.1901064  70.0243912  52.4330177  12.7390070
  45.9382591  30.0203228  74.3854904  46.4438782  29.9632397  73.5747375
  45.0604324  30.2766819  74.1027679  -0.1457605  15.9300137  43.8795624
   0.0978833  15.0822287  43.5079041   0.3845834  16.5643005  43.3972282
  19.5064354  50.7556343  22.3551979  19.4221230  51.7091064  22.3519726
  19.5725746  50.5179062  21.4303513  62.0891037  30.3638840  76.4448929
  62.5109940  30.3212433  75.5867462  62.5321198  29.6920967  76.9632263
  42.3163910   0.9854365  55.5065727  41.7455025   0.4635035  54.9427452
  43.0929031   0.4399519  55.6319008  11.5121107  41.5210724  68.9086227
  12.1312284  42.1855049  69.2110367  10.7679958  41.5975647  69.5058441
  65.9066620  48.1119690  84.3112717  66.0923920  48.5243263  85.1548920
  66.3911667  47.2868233  84.3361740  80.9969330  65.1904068  13.5792637
  81.5270462  64.9374313  12.8234768  80.4644699  64.4176407  13.7677927
  29.1642342  62.0929565  10.3042307  29.6426659  61.3585205  10.6888580
  29.8360901  62.7526817  10.1321859  65.6139374  13.7631969  84.2204132
  65.4964752  13.7361097  85.1699905  66.1079407  14.5678253  84.0630417
  73.9334412   4.6254864  10.6758060  74.1056824   5.4098001  11.1967831
  74.6269913   4.0149145  10.9256487  65.2910385  65.0930786  73.4930038
  65.1434326  65.7725983  72.8352051  65.0939789  65.5199966  74.3267593
  77.5301895  44.1087914  79.7710114  77.6299667  43.2319298  80.1416779
  78.3720322  44.2892113  79.3526993  86.0920868  21.5123253  61.3520317
  85.8856735  21.1649952  60.4842834  86.8674316  22.0564041  61.2140236
  81.2066879  67.6607361  50.1817551  80.4187469  67.1251755  50.0892639
  81.9249344  67.0722275  49.9493446  33.7112694   6.6936073  84.9635010
  34.1106606   5.8430367  84.7811584  32.9357758   6.7191706  84.4029770
   3.6504812  40.6019325   9.0617790   3.8408434  40.7086220   8.1297855
   2.9867299  41.2659416   9.2482080  69.0125580  31.1206150  70.4097900
  68.8011475  31.9182186  69.9246445  69.4245605  31.4324799  71.2155304
  50.9254265  10.0118952  57.7608185  51.5034447   9.4142313  57.2865601
  50.3376045   9.4375639  58.2515717  53.9450684  31.9111748  72.5691528
  53.6866722  32.5525513  71.9072647  53.4665222  31.1166859  72.3324814
  12.6386223   1.9613298  48.5524864  13.2240114   2.1698916  49.2805328
  12.4504604   2.8074911  48.1464844  84.9103470  23.1226215   5.5226073
  85.8393860  23.3305187   5.4230833  84.6679459  23.5064983   6.3652878
  77.0506973  45.0111732  24.2392673  76.9517899  44.3569794  24.9309921
  77.8894577  44.8008080  23.8288212  48.2923012  25.7253952   7.9586878
  48.7789497  26.4889927   8.2690544  48.8548622  25.3395576   7.2872086
  27.8765144  62.9301224  47.6807327  26.9817944  63.0964966  47.9774246
  27.8770237  62.0071297  47.4271202  86.2313232  15.4498529  24.3373699
  85.7207031  16.0779305  23.8264771  87.1173782  15.8118887  24.3455982
  17.8661289  33.3345680  72.1342087  17.4560528  34.1278877  71.7896652
  17.6248837  32.6499062  71.5102921  59.0068474  28.9466476  17.4706059
  58.2651329  29.0647507  18.0640259  59.5157013  28.2364368  17.8616295
  85.9789581  32.4533577  33.4599190  86.8340607  32.6065102  33.8618889
  86.1814270  32.1086349  32.5902061  71.4213791  38.1048431  56.8241997
  71.9925995  38.7612724  56.4254036  71.4738617  37.3521118  56.2352371
  36.0326500  64.7928162  75.7921371  36.9700203  64.6369705  75.9073639
  35.6105270  64.1185150  76.3244553  43.6727295  63.8225708  14.7342672
  43.5814781  64.2397156  13.8775883  44.4412651  64.2400055  15.1232834
   8.3365240  32.0203781  52.3984489   8.7690334  32.8621712  52.2550812
   9.0151482  31.4646168  52.7816353  77.9617004  46.4315376  21.4583817
  78.9136276  46.3320541  21.4453487  77.6455688  45.7950745  20.8171253
  83.3641434  18.7322655  71.5464401  82.9201889  18.0689373  72.0747757
  84.2431717  18.3795090  71.4082489  68.3071671  59.5769691  10.7451305
  67.8365707  59.3034286   9.9577637  69.2319260  59.4990273  10.5106668
  42.1424446  54.8811340  80.1566925  42.1948586  54.3744278  80.9670868
  43.0505638  54.9605980  79.8647461  68.7923660  36.3835945  37.0651436
  68.2421417  37.0069733  37.5393562  68.2017441  35.6640625  36.8422661
  81.8709106  42.5059090  48.2264061  82.6254349  41.9185181  48.1829147
  81.4083939  42.3632393  47.4005966  41.8522720   6.5076375  45.3929901
  40.9882011   6.9178205  45.3560638  42.1854553   6.5699983  44.4978218
  48.8188019   8.1339645  45.9735451  48.6237297   8.6053829  45.1636429
  49.4010735   8.7197475  46.4573364  72.8813248  38.7356606  10.7379684
  72.7449799  37.7930565  10.8335638  72.2898254  39.1294785  11.3792686
  54.9757195  70.8824081  60.9892693  54.2025490  71.1356125  60.4849586
  55.1362152  69.9720764  60.7407379  67.7563324  67.1765594  32.5332870
  68.1375275  66.8189545  33.3351860  67.4607697  66.4080429  32.0451736
   9.9593382  57.0175896  88.8878250   9.7714424  56.3465195  89.5440216
  10.2762165  56.5281792  88.1286774  37.6584892  34.3711166   1.3063167
  37.7504272  33.4616280   1.0223941  38.3354340  34.4832802   1.9736998
  13.3303318  52.3745079  79.4507446  12.9983883  51.7989235  78.7617264
  13.6244164  51.7785492  80.1396408   2.7478719  44.1791801  45.6917648
   2.3824909  43.5146599  46.2758369   3.3546703  44.6742783  46.2421303
  13.5399570   4.3288212  62.3300743  12.9939871   4.4182124  63.1112022
  14.3818464   4.0157027  62.6608467  63.7733955  38.9130936  56.1882019
  63.0816460  38.2799950  56.3803024  63.5454597  39.6825714  56.7099113
  40.6028976   4.5337777  61.8075829  41.0506744   4.9122033  62.5642357
  41.2808876   4.0332203  61.3537064  74.1369400  12.9800482  66.3783569
  73.3670502  13.0348654  66.9444809  74.6346893  12.2382221  66.7221222
  17.6297245  43.4433441  82.3859329  16.8465405  43.1908493  82.8749084
  17.8080006  44.3410721  82.6661758  85.9682541  33.8112030  71.2495575
  86.0993042  33.2523651  70.4835587  85.5558319  34.6017799  70.9015274
  81.6055603   8.8679590  56.5907669  81.0463638   9.4686508  56.0981216
  82.1084442   8.4049349  55.9207344  79.2092133  37.1952438  58.6145744
  79.7284012  37.6885452  57.9794884  79.7398605  36.4227753  58.8093605
  18.0907574  34.3946800  61.8019981  17.9828243  35.3069916  61.5331650
  18.8676910  34.4000511  62.3610878  34.1108818  43.1719055  85.0727005
  34.1396141  43.8764114  85.7200623  34.0337486  42.3719063  85.5925903
  11.3539410  49.2513237  21.1123409  10.9820547  48.8196335  21.8814793
  11.6846228  50.0865402  21.4429321  64.5956726  32.8291206  37.8359871
  64.3191757  31.9503002  37.5762634  64.1636810  32.9772949  38.6772118
  59.0778160  48.0774956   5.6327720  59.9445572  48.4228439   5.4189429
  58.9753952  48.2501755   6.5686798   1.6375974  44.6683311  87.1839676
   1.1100709  45.1555176  86.5510406   2.5325348  44.9736404  87.0352936
  58.2350349  65.3591995  12.6299114  57.6986275  64.7678223  13.1578979
  58.4906883  64.8364487  11.8699093  66.2883224  63.8537521  84.6276550
  67.0333099  63.5110207  85.1213684  66.5631866  63.8014793  83.7122574
   3.7085617  61.8927383  42.5328293   4.5641351  61.4718552  42.4486618
   3.8489420  62.5960388  43.1667824  43.4422798  22.9360886  13.5969133
  43.5034142  22.0225525  13.3177252  43.9889603  22.9839478  14.3811846
  39.3717041  11.4382801  10.8895693  39.8489037  12.1813879  10.5203743
  38.4911423  11.7762661  11.0526724  68.8495407   5.2264123  74.3090363
  69.0176315   5.9441123  74.9196777  69.4773941   4.5481296  74.5579681
  70.6032028   0.6461288  46.3857231  71.4464340   1.0231160  46.1345787
  70.8295441  -0.1642663  46.8420792  64.2023468  60.8070412  22.5281849
  65.0784988  60.7823067  22.1435051  63.6669922  61.2587166  21.8757915
  35.4255753  34.8481483   2.9098556  34.7473488  35.0676041   2.2710419
  36.2040215  35.3121147   2.6016591  50.4052086  20.7471046  32.9712296
  51.1514931  20.4672756  32.4411507  49.6393013  20.4284801  32.4936333
  60.8182678  48.7048340  33.7168999  61.6757050  48.6922760  33.2916031
  60.9372406  48.1840935  34.5111961  85.5923462  39.9927788  30.8506775
  85.0190582  40.5169945  31.4099369  85.0076904  39.6201172  30.1907291
  77.7632370  29.6781979  83.6589355  78.6956177  29.4662781  83.6142654
  77.4063950  29.3652420  82.8276978  66.1169434  59.4984055  57.2311211
  65.4021378  59.8331299  56.6896095  66.8195724  59.3083115  56.6095009
  15.1671820  48.6080704  63.1594925  15.3005276  49.4440231  63.6062927
  16.0122547  48.1634789  63.2259865  26.9907475  66.4854279  26.8419094
  26.1045437  66.6007080  27.1848202  27.5190296  66.2708511  27.6107445
  15.7605162  44.5371132  50.8343620  16.3933163  45.2467461  50.9448929
  15.5890036  44.2284126  51.7240334  52.5804977   0.0946306   9.5987701
  53.1547546  -0.4325720  10.1542139  52.5460815   0.9477959  10.0313864
   9.2472391  42.6325073  45.3278847   9.2019300  43.5386429  45.6329994
   9.0692234  42.1077805  46.1083984   6.5277543  57.6095200  82.3723602
   6.1244502  57.9773598  81.5860596   6.6483264  58.3605537  82.9534302
  39.4515991   8.9280777  26.4290695  38.6821480   8.4038029  26.2070103
  39.4751396   9.6136026  25.7614365  35.5571518  13.4709435  82.4797363
  34.6741982  13.8374510  82.4318237  35.4850159  12.7539988  83.1098251
   4.0069938   7.1670165  37.1214447   3.3246672   7.6263490  36.6318779
   3.6392326   7.0560489  37.9981842  54.6164322  25.1593418  47.9934921
  54.2591972  25.3923283  48.8504219  53.8702164  25.2234631  47.3974380
  15.8664913  42.1955986  -0.1974235  16.0148182  41.4367409   0.3668148
  16.6300049  42.7544899  -0.0527884  50.3421555  46.5115929  59.9613991
  51.0277863  45.8702812  60.1481133  50.2352829  46.4780540  59.0107765
  30.6010227  70.2286148  10.7230806  30.1641808  69.6496124  10.0984554
  30.6567268  71.0704041  10.2708502  61.7190628  43.5396004  22.0128670
  62.3642807  43.8014297  22.6696568  61.0558472  43.0580406  22.5073128
  46.5996742  20.5433655  52.6280251  45.7209663  20.5018139  53.0053558
  47.1694107  20.1829166  53.3075142  25.3143101  12.3760796  19.0453281
  25.0428772  12.4701529  19.9584026  25.1244354  11.4624949  18.8319225
  84.8384857  54.5200958  84.9177780  84.9718781  55.2366943  84.2973557
  83.9468002  54.2174110  84.7459869  81.4650345  61.4805527  53.1959190
  81.0962753  61.8863068  53.9805298  82.2394943  61.0133896  53.5092964
  69.3248291  41.7331657   0.3670866  70.0485764  42.3443069   0.2295298
  68.6394196  42.0356293  -0.2287022  69.4141159  50.4060020  85.4143372
  68.6915436  49.9234200  85.8158722  69.4067688  51.2568665  85.8527451
  70.4366837  40.7313309  73.8693008  70.1590118  41.2710991  73.1291733
  70.7819366  41.3571854  74.5059586  84.8849182  56.5380630  72.2557526
  84.2842560  55.9997444  71.7403412  85.0290222  56.0354729  73.0575485
  18.9394226  50.5350266  19.6015224  19.4914646  50.3976326  18.8317127
  18.1610260  50.9768867  19.2622757  83.0917435  34.5892181  49.6097298
  82.6352997  34.6299934  48.7693558  82.6875305  35.2793884  50.1355705
  38.5737762  69.0294647  10.7018557  38.3664932  68.1037140  10.5743361
  38.3425179  69.2032089  11.6143055  12.0622854  29.8369293   8.0643578
  12.3644753  29.9516792   8.9653273  11.1213932  30.0084267   8.1036358
  61.7763672  18.1703854  10.4578476  61.4994545  17.6198044   9.7254457
  62.1297607  17.5547962  11.1000280  85.7946625  68.6536484  27.4058533
  85.8873367  69.1376190  26.5852375  86.5721588  68.8892975  27.9120140
  68.7636566   4.4431796  88.8347702  69.4480743   4.1765308  89.4485245
  69.0017090   4.0178299  88.0109787  57.8475075  38.6104774  63.4018974
  57.0463371  38.4291420  62.9104958  58.2851944  39.2986946  62.9008789
  76.3546677  19.3225899   4.8451114  76.5684891  18.3954773   4.9498730
  76.3788147  19.6759300   5.7343802  78.7752151  67.1930466  60.5313568
  78.1898575  66.9908447  59.8014946  78.3191071  67.8768845  61.0218277
  42.7556114  59.2073631  87.8624802  42.5732346  60.0291557  87.4068222
  43.3076439  59.4610367  88.6021729  49.5696068  17.1408596  33.8579407
  49.4955254  18.0948601  33.8328667  48.9276352  16.8338661  33.2177391
   8.1081553  67.2761307  52.1317940   8.7535458  67.2927170  51.4250908
   8.5537376  66.8311462  52.8526840  28.5672321  58.7521019  65.4603271
  29.1352367  58.9328461  64.7113724  29.1007023  58.9719543  66.2240753
  35.2531357  47.4078217  55.7568169  35.5289459  48.3147888  55.6242371
  35.8140297  47.0877609  56.4633522  52.1916962  53.8761139  74.5285492
  52.8384628  54.5071831  74.8442688  51.4641647  54.4144096  74.2168274
  85.3497009   0.5797125  62.4862556  85.8152390   1.4140465  62.4279861
  85.8481750   0.0714886  63.1261520  72.6302948  24.3987427  83.5817642
  72.6955948  23.4442024  83.6103973  72.1905060  24.6333504  84.3989410
  21.9216080  65.8569717  57.6657104  20.9816589  65.7109375  57.7725029
  22.3179283  65.4323120  58.4265175  78.3004379  71.3804703  22.6385098
  79.2020645  71.4498367  22.3246822  77.8131943  71.0316544  21.8920860
  56.8060837  19.0771656  80.6023636  56.1845856  19.6074429  80.1035843
  56.2933502  18.3270073  80.9033585  56.3360405  44.2145500  79.9480896
  57.1396561  44.0835915  79.4448166  55.9469795  45.0061951  79.5763931
  20.9770412  69.7993088  34.4818115  21.8374500  70.2089005  34.5721436
  20.5732365  69.8976669  35.3440742  66.3914490  60.5327148  30.2610645
  66.3840408  61.4846687  30.1612720  67.1829681  60.2500267  29.8030109
  22.0001431  14.1655521  81.9451675  21.3110523  14.0579977  81.2895584
  22.0817146  13.3023624  82.3507309  79.7889862  26.7639294  88.5071259
  80.1872482  27.6343174  88.5136490  79.1492310  26.7985897  87.7959671
  49.1779404  38.4621964  85.5483017  49.1739616  37.5226822  85.3651886
  49.5139732  38.8612099  84.7457428  77.5415573  66.3804245   7.2719984
  78.3018417  66.0824051   7.7713714  76.9789124  65.6086197   7.2089052
  45.7440376  24.0535450  78.9046402  46.1985741  23.6227016  79.6285172
  44.9569054  24.4248161  79.3031540  65.0085220  17.0816517  61.3241844
  64.1594925  16.7742386  61.0065689  64.8814392  17.2067375  62.2646294
  33.2412758   1.2665992  40.8405724  33.0337639   1.8186357  40.0866318
  33.9233742   0.6746320  40.5234795  44.4543533   7.8524280  18.7583580
  44.2384605   8.7045193  19.1372566  43.6102142   7.4108028  18.6654606
  76.9078674  24.8171616  72.0233536  76.1377869  24.9905701  72.5647812
  77.2805939  25.6821957  71.8529968  58.6121063  32.8801460  68.9693375
  57.7104645  32.9062538  69.2896347  58.5977669  32.2308960  68.2661285
  52.2743721  56.8805656  59.0338898  52.9075890  56.7466545  59.7391090
  51.7156944  56.1038628  59.0629539  19.5158997  71.3572922  75.8106995
  18.8678951  70.9849319  75.2126465  20.2881966  71.5055008  75.2649689
  41.9249840  63.3520012  71.4433594  42.3612099  62.6490402  71.9248047
  41.8861923  63.0358505  70.5407104  16.3314915   5.1080275  54.2677002
  16.1425972   4.2299237  54.5985832  16.8794956   4.9607530  53.4968338
  81.0658569  24.4891491  63.8099937  81.0549240  25.1938114  63.1622543
  80.5518036  24.8290710  64.5424042  29.2819920  13.5690002  55.1329346
  28.9607048  14.3015280  55.6586838  29.1527519  12.8004608  55.6887016
  30.0858631  45.5157318  28.2258816  30.7777805  45.3107872  27.5970116
  29.4383869  46.0052261  27.7185307  76.6440964  68.4808350  15.4948606
  77.0511398  68.0295258  14.7553577  76.9838943  69.3743896  15.4465914
  64.0755081  70.6405945  57.3685722  64.8444519  70.2992935  57.8251686
  64.0853653  71.5799942  57.5520630   7.6943569  56.9130669  85.1608276
   7.5837288  56.1378746  85.7113495   8.3775549  56.6681099  84.5367508
  21.1840820  15.9076309  71.1470413  21.2083340  15.9101257  70.1901474
  20.6417103  15.1513596  71.3709106   4.8804679  14.8858919  49.5527344
   4.5430250  15.3087740  50.3423767   5.4354420  15.5500326  49.1438904
  28.7719975  55.3868065  21.7961292  28.8364124  54.4444809  21.6408653
  29.6794262  55.6914139  21.8004627  83.3381195   7.4772792  55.1940765
  84.2132645   7.1515989  55.4045067  83.4784241   8.0940619  54.4756584
  46.3948135  65.5860214  69.2889481  46.0098572  66.4521942  69.1556168
  45.8826714  65.0068588  68.7245789  64.6422043  37.7704353  39.1019974
  63.7193298  37.6664886  38.8701820  65.0574570  38.0823479  38.2979431
  34.8796501  18.0537586   9.9138546  35.0448875  17.1750393   9.5721197
  34.5986710  17.9103661  10.8175812  82.6509323  35.9769173  72.2323990
  82.4131622  36.8759880  72.4590302  83.3306198  36.0699425  71.5648651
  32.1195145  62.9256401  60.6711044  31.5104179  63.1948547  61.3586769
  32.6986923  62.2942963  61.0979424  60.6742172  13.8987579  75.4713135
  59.7740898  13.6130867  75.3151245  61.1858330  13.0897570  75.4703674
  39.2371559  27.7973728  79.7745514  40.0406075  27.5984440  79.2937927
  39.4719391  27.6750660  80.6944122  60.8254395  65.7999496  52.0589066
  61.3826408  65.0236282  52.0033798  60.2808037  65.6491013  52.8314667
  32.4547081  66.1288223  73.6751099  32.1983528  65.2373047  73.9111328
  32.1829185  66.6619186  74.4222183  10.6495352  56.4382172   3.7146509
   9.7458334  56.2328911   3.4750724  10.7965946  57.3166618   3.3640168
  82.5418854  18.2762737  80.1002121  81.7958603  18.8455563  79.9115448
  82.4239197  17.5259228  79.5177231  64.9760971  64.0848465   9.2168818
  65.0894928  63.4693489   8.4926319  64.3588409  64.7360077   8.8834076
  48.1822929  43.3661232  60.2530937  49.1021042  43.6228027  60.1875381
  48.0706558  42.6998138  59.5750084  84.4984741  42.4474945  69.6254272
  83.6521225  42.8854294  69.5352020  85.1431198  43.1427803  69.4941406
  11.7962084  20.1230888  84.7656631  11.4120016  19.9366798  85.6223297
  11.3765516  19.4986019  84.1739426  40.6478653  54.4174042  55.5732994
  40.5239525  55.2781487  55.1733093  39.7945824  54.2035828  55.9506836
  28.0688019  29.7654572   8.3629732  27.3851681  29.2249737   8.7588959
  28.0458107  30.5830078   8.8602810  15.3484507  12.8532763  60.0184250
  14.8611164  12.3222055  59.3885803  15.4182167  13.7130451  59.6035004
  83.9073944  69.4200439  35.7285614  83.9746323  68.4905090  35.9469032
  84.6624985  69.5889435  35.1650734  38.3250084  49.5853958  16.4340897
  39.0778008  49.4557190  15.8572702  38.2069168  50.5348129  16.4639816
   5.3992929   6.9465613  30.7064190   5.4910154   6.9287839  29.7537899
   5.7146597   7.8136430  30.9612637  71.5906677  45.1028900  24.4744167
  71.9279861  44.3915253  25.0188484  72.3735428  45.5368729  24.1353054
  62.3545265  54.2845917  73.8394928  61.4587059  54.6187325  73.7937698
  62.2714348  53.3498802  73.6506958  72.8774948   4.9385643  28.3194942
  72.5881958   4.4752722  29.1055603  73.1867447   4.2471933  27.7341709
  73.5036163   5.8742509   5.6858029  74.1701584   6.2518210   5.1118741
  73.7473679   6.1700225   6.5629220  82.7664490   6.6459961  61.9643669
  82.9922104   6.5688992  62.8913612  82.2250443   7.4337935  61.9144287
  80.7822266  31.2234306  37.1201286  80.9183197  30.3770828  36.6942139
  81.1163559  31.8640194  36.4922485  37.7550201  67.5109253  86.9820786
  37.5158768  68.4365158  87.0302734  38.2382126  67.3459167  87.7917252
  35.1124916  56.6066513  80.4164963  35.5881271  56.6151886  79.5858765
  35.3454819  55.7692223  80.8173141  41.2233772  50.7147141  31.6194744
  42.1250763  50.4596825  31.4242134  40.9274750  51.1706886  30.8315907
  21.8582935  41.6385880  23.4874763  22.3175335  42.4258080  23.1948757
  21.5806141  41.8413811  24.3807850  38.1347504   4.4974542  81.5388184
  38.6440239   4.0171208  82.1916275  38.7278824   4.5904112  80.7933044
  75.5596008  15.6544456  41.9419136  76.2266159  15.2178316  41.4121094
  75.4127579  16.4909477  41.5004005   2.7246835  49.5818672  71.3708115
   2.4400961  49.0185051  72.0904388   3.5224390  49.1668549  71.0428162
  15.3540745  33.8466835  74.1185379  15.2902346  34.7511139  73.8116760
  16.0645847  33.8609200  74.7597885  34.4002762  49.8372536   6.6849613
  33.4713669  50.0248604   6.8197355  34.7965698  49.9574814   7.5479374
  20.6616306  68.5943604  49.7956963  21.1382160  69.4081116  49.6316566
  19.8631897  68.8709030  50.2454185  27.8821468   3.7800503  79.9732819
  27.1174316   3.5134308  79.4630356  27.5207653   4.0807257  80.8070908
  70.5759277  57.6278000  50.3506622  69.9711075  57.1229973  50.8943520
  71.4113388  57.1675034  50.4309502  14.7944031   9.1116219   8.3918686
  15.3121672   8.3706045   8.7065830  15.4425364   9.7329206   8.0599899
  71.2993240   8.1363230  52.7213173  71.3988724   8.2836361  53.6618614
  71.4233246   9.0006123  52.3290672  14.5921106  39.9682503  78.8830872
  14.5493422  40.9004059  78.6697922  15.3978395  39.8755951  79.3914642
  19.2662354  52.1444931  55.9256325  18.5593853  52.6661224  56.3057632
  19.7834797  52.7729607  55.4219284  31.4791088  23.7025948  72.7792130
  30.5925770  23.3429451  72.7484436  31.6749916  23.9348602  71.8715134
  14.5617800  54.5003624   9.5293884  14.6220503  54.0690994  10.3818054
  13.8905764  55.1724243   9.6479092  64.5588608  48.6390724   8.3047142
  64.4925842  47.7921448   8.7457972  64.6221848  49.2756462   9.0167522
  25.8758202  64.6152496  54.4157333  26.5764313  64.1819992  54.9032516
  25.0889416  64.1147537  54.6315193  58.0801315  15.3521271  67.6803894
  58.2374573  16.2586727  67.4164581  57.2703743  15.1090889  67.2315521
  32.5464554  49.7282677  30.3187752  32.9481316  48.8898582  30.0908222
  32.4877510  49.7138557  31.2740631  59.0199509  29.8753872  76.9926834
  59.2315788  29.2756443  77.7080536  59.8706055  30.1721973  76.6693878
  55.3070030   5.0102549  23.0690842  54.8420982   4.5484266  22.3713665
  55.9698753   4.3877797  23.3680077  68.1712952  33.2650261   9.8298912
  67.3611984  33.7447701   9.6572151  68.8638687  33.9160881   9.7172604
  22.2966080  58.2484818  31.1998901  21.5383720  58.6899033  30.8171921
  22.1332073  57.3175011  31.0488625  41.9149628  59.6113586  84.1791611
  41.7515182  58.7001839  84.4226379  42.8369675  59.7546463  84.3927155
  14.8801374  23.2874699  20.8993454  14.4843016  23.9528828  20.3365192
  14.3586273  23.3113098  21.7016487  72.7577896  14.3717012  45.9065056
  73.0483246  14.6476202  45.0372009  73.1675110  13.5163193  46.0356712
  15.7813396  24.1343651  75.3982697  16.4995632  23.9157810  75.9920807
  16.2052193  24.2768955  74.5519562  24.1030464  54.3880997  78.1781235
  24.5441647  54.2753754  77.3361359  24.8102150  54.3722382  78.8230209
  46.6411209   6.7422991  41.8736115  47.5226746   6.7131171  41.5018005
  46.7596817   7.1295085  42.7409286  63.7049599  58.4657288  79.4394302
  63.1587715  59.1910706  79.1364594  63.6197891  57.8003197  78.7566299
  65.0030441  40.3063965   9.9690275  64.4457321  39.9872780  10.6788130
  65.8420944  39.8669395  10.1072578  85.8365707  61.8288383  55.2479248
  85.2099228  61.1482506  55.4935799  86.3654709  61.4294357  54.5572968
  52.5337982  33.7014847  79.6085892  53.4732513  33.6176300  79.7717590
  52.3895416  33.2266846  78.7900620   7.8771949  28.7030373  84.5196915
   7.8262839  27.7718334  84.7353287   8.7854052  28.9423523  84.7043839
  51.1702881  51.3156281  77.8442307  50.3556023  50.9980812  78.2336960
  51.3269234  50.7285843  77.1045837  64.6208954  61.4299736  19.3150177
  63.8975830  61.5020790  19.9377937  65.3977890  61.3158226  19.8624115
  14.9807281  11.8148794  86.7126236  15.0353031  11.5870752  87.6407166
  14.6648073  12.7184172  86.7059555  61.6714325  57.3981247  83.7303162
  60.9910202  57.3252678  84.3996124  61.1915474  57.4210625  82.9024124
  19.0758762  28.8248253  65.4263153  18.1793213  28.5498848  65.2344055
  19.3836651  29.2232513  64.6122208  61.9417877  28.0157719  37.5062752
  61.1080475  27.9615021  37.0391960  62.5529137  28.3771400  36.8642693
  44.0001144  58.5854645  26.3042641  43.2900200  57.9973679  26.0470886
  44.6867104  58.4298782  25.6557198  33.5495415  34.6215591  79.9840088
  34.3216972  35.0593834  79.6257935  33.0151596  34.4133568  79.2176361
  31.6505566  17.1843987   7.2245831  30.7306061  16.9798412   7.0570111
  31.7576885  18.0817585   6.9091496  73.6235428   6.4625535   8.3715477
  73.4232559   7.1912365   8.9590321  73.9372025   5.7675924   8.9502335
  11.0662050  26.7520142  55.0880394  10.8183079  26.4707947  54.2073059
  11.4374037  27.6256752  54.9649048  75.8163986  33.5682793  25.0151367
  75.8833542  34.4706612  25.3273258  76.5206223  33.4843712  24.3722820
  15.4087591  56.9131203  79.2573624  14.6782084  56.5095825  79.7260590
  15.5383492  56.3555717  78.4901733  74.3034668  -0.2572522  40.7896118
  74.4080963   0.4782720  40.1860466  74.7211151   0.0361315  41.5993805
  26.6424961  43.4909859  87.7299652  26.5682964  42.5436096  87.6150513
  27.0394688  43.5970306  88.5944901  24.4856358  46.4412117   5.2808371
  24.5917168  47.2991524   4.8698416  23.6351166  46.4883118   5.7174487
  79.2337036  27.8522587   6.2570691  79.2275314  28.4791412   5.5337343
  79.4019318  28.3850231   7.0343041   1.1095763   9.0779676  25.0377712
   1.1767944   8.7726183  24.1330757   0.1684549   9.1499157  25.1969757
  10.9957819  11.5232029  70.7019806  10.2204561  11.1078711  70.3243561
  11.6356134  11.5280676  69.9900665   2.2268112  32.2156525  74.4756775
   2.3397410  31.2754040  74.6149902   2.9118218  32.4489212  73.8491135
  82.1209793  27.3382893  76.5478134  82.3401871  26.4155140  76.6769028
  81.3866730  27.4953403  77.1414032  74.5643082  65.5454102  45.0358162
  74.8193512  64.8229294  44.4620590  74.4715500  65.1438904  45.8997650
  26.7581005  50.6097832  27.6370296  26.9881535  50.6917953  28.5625458
  25.8861618  50.9992294  27.5715446  70.2548981  50.6741600   1.3368443
  70.4684067  49.9885521   1.9697626  70.6347046  50.3669319   0.5136861
  68.8195496  30.9398804  85.1693192  69.2722702  31.7721272  85.3058548
  68.2471924  31.0988922  84.4187469   1.2934113  69.8277740  53.1711388
   0.8013535  69.3301849  52.5180511   1.2114638  69.3145447  53.9749489
   5.6420755  53.2354279   9.3933983   5.4391499  52.4564438   9.9113121
   6.5473843  53.1059799   9.1107473  29.8326836  51.5952721  46.4711609
  30.0080032  52.4236794  46.9175186  28.8864899  51.5967522  46.3264351
  47.3842201  68.2538452  38.0906143  47.9965897  67.6566620  38.5202675
  47.0283775  68.7852478  38.8028030  12.1493807   4.9066958  51.0534363
  11.3691044   4.3606172  51.1493492  12.1937571   5.0985970  50.1167221
  69.6361923   3.2255495  39.1040840  69.1797638   3.3247731  38.2685890
  69.6561356   2.2805903  39.2553673  54.7231064  62.1473427   5.4290090
  54.6302414  61.3418503   4.9202909  55.6565094  62.3541374   5.3818464
   2.0102060  18.5274429  53.9374695   2.6137321  18.5828209  53.1965790
   1.1882744  18.2209129  53.5544548   8.6149235  49.4265327  20.6544781
   8.4412622  50.0689278  19.9664364   9.5573664  49.2676964  20.6015148
  81.3009949  54.3005600  62.8442993  82.0889740  53.7856674  62.6704750
  80.9484787  53.9327621  63.6546631  78.4987488  48.1697693  53.3395958
  78.6607285  48.2861366  52.4034042  79.3422241  48.3532944  53.7532349
  86.1137238  47.7220459  76.9402084  85.3305588  47.8386040  77.4780807
  86.4673843  46.8752594  77.2124252  66.5456772  46.8700447  26.3672771
  66.8705215  46.8522186  27.2674942  65.6632462  47.2340546  26.4382381
  81.0993195  37.0744209  33.9193344  81.8070602  36.5588760  34.3060532
  80.6194077  37.4236221  34.6703186  60.5531197  26.0935516   7.6084137
  61.3551559  25.6460724   7.8781013  60.0273361  25.4115944   7.1904211
  13.0488901  57.9748116  78.1212921  12.6724844  57.1065559  78.2651215
  13.9083910  57.9357338  78.5407715  73.9867783  53.3351288  39.7548790
  73.3008118  53.5618896  40.3827744  74.3839340  54.1739731  39.5206985
  69.2605820  23.9758701  33.5482674  69.0404739  23.6284409  34.4126015
  68.4293976  23.9814167  33.0735817  59.9686775  49.7339325  16.5252953
  59.4532433  50.2130737  17.1741276  59.6102982  48.8465233  16.5425777
  85.4509583   8.3840923   3.9297426  84.8260193   8.3242369   3.2071803
  86.1574249   7.7861795   3.6855390  60.7115021  58.0624123  12.3284626
  60.6598930  58.9622421  12.6507607  59.8354607  57.7052269  12.4740791
  78.5703430  33.2224846  58.9498138  78.1342545  32.3892365  58.7716064
  78.6887360  33.6201477  58.0872154  35.4430809  56.0715370  16.5650711
  34.4897728  56.1566467  16.5789165  35.7510834  56.8908005  16.1775513
  66.0533295   6.1752958  49.8155785  66.0876617   6.9397764  49.2405815
  65.7131348   6.5136528  50.6438370  62.8076019  15.4425926   1.2058018
  63.6334991  15.2038765   1.6266806  62.7174454  16.3812180   1.3703779
  26.5407066   5.6112890  59.9091339  25.8692551   5.1172600  59.4386864
  26.1147346   5.8787937  60.7235184   7.5981812  34.4625893  66.6129150
   6.8652201  34.9872932  66.2909164   7.2628856  33.5661507  66.6273727
   2.4996464  25.2677383  82.6441650   3.2838876  25.3071976  83.1915588
   2.2439189  24.3454380  82.6582031   1.9705435  22.4982109   1.9896352
   1.3351500  22.8063049   1.3434271   2.4464436  21.7981930   1.5427287
  55.4729004  62.1932487  63.4497147  55.7721367  61.7686043  62.6457443
  54.6190033  62.5613747  63.2226219  43.2833595  51.2811775   8.2247715
  43.5138397  51.3454475   9.1515846  43.9434929  51.8099365   7.7765808
  81.2973175  22.3561115   6.3956265  82.1686325  22.0757275   6.1155920
  80.9463272  22.8337212   5.6440105  57.6722870  37.3036079  75.1489029
  57.6014061  36.7496872  75.9263229  57.3097534  38.1465073  75.4215317
  43.4890518  24.8589096  65.8474884  43.9903412  24.3686504  66.4990845
  44.0085258  24.7927666  65.0462341  49.4381676  18.0872517  12.9638014
  49.0418015  17.2902546  13.3158283  49.0031052  18.7987728  13.4335785
   9.0251026  45.3120422  46.4771423   9.9028292  45.4858971  46.1371384
   8.8925276  45.9793816  47.1504250  23.1125355   9.3940239   5.7713223
  23.3532658  10.0004444   6.4717035  22.3317547   9.7820988   5.3763380
  15.5257292  35.2317200  84.4084015  16.3272858  35.4708633  84.8737488
  15.8263845  34.9402084  83.5476685  17.1878738  53.9422569  57.5721436
  17.3603230  54.8564568  57.3469162  17.8605804  53.7234535  58.2169876
  43.4927979  20.9140892  64.5235214  43.9239159  21.3603134  65.2523880
  43.1813278  20.0899696  64.8977509  20.6269722  41.1339340  18.6764221
  20.4678059  40.8696938  17.7702904  19.7549286  41.1846008  19.0678368
   7.1200800  54.9342117  35.8457336   6.4054761  55.4012184  35.4127464
   7.5433440  54.4400520  35.1436729  81.0812073  49.0040283  53.9711342
  81.0736542  49.6287842  53.2459793  81.6370697  49.4134064  54.6342010
  43.5915985   0.8392957  48.6203156  43.6197815   1.3850658  49.4061737
  44.4893608   0.5243698  48.5150986   1.8519692  43.1018219  83.9875488
   1.8076706  43.8903656  84.5283508   2.1658771  42.4207573  84.5823975
  85.6809082  62.1798363  29.3933640  85.5401154  61.2710304  29.1278858
  85.9264908  62.6301384  28.5851879  26.1274147  67.7480545  20.9562988
  25.3572617  67.1798935  20.9392147  26.8414059  67.1753159  21.2363338
  55.7749901   5.3890905  59.1425362  55.3647232   6.1518264  58.7349281
  56.6320763   5.7033677  59.4304008  21.3463211  13.4763260   6.6486864
  21.1240616  14.3708887   6.9067349  21.0710812  12.9376659   7.3905225
  85.0662155   2.9931614  84.1920013  84.3448334   2.3713646  84.0960617
  85.4893188   2.7442186  85.0137329  17.2004910  45.8954124   6.4033737
  17.5899010  45.0729485   6.1064820  16.2683907  45.6989403   6.4972839
   0.2064396  32.7779770   9.5300846   0.2775280  32.3477440  10.3821859
   0.4286748  33.6925812   9.7042828  36.7965927  13.1581049   2.1798279
  35.9377861  13.2754421   2.5859289  36.6810570  12.4170589   1.5850724
  78.3681793  32.1126060  66.3486710  77.6043930  32.4736557  65.8986588
  78.2832336  32.4219589  67.2505112  85.2624664  56.6757660  37.2728882
  85.7342758  57.4228630  36.9048233  85.8284454  56.3580742  37.9764290
  33.1970863  53.2869072  47.6883736  33.4552803  53.1455498  48.5991898
  33.4381294  54.1958084  47.5093994   9.5694227  19.7543030  80.6512451
  10.1009903  19.9664555  81.4184875   8.7275133  20.1778698  80.8186111
  30.7838268  47.0786514  30.4402733  30.4195061  47.0048409  29.5581989
  30.1814575  47.6634560  30.9000435  82.6191025   2.7960045  44.9759216
  82.9390106   2.4415133  45.8055191  81.6842499   2.5904288  44.9722214
  57.0803261  30.4978867  30.3350010  56.9654236  31.3039169  30.8383331
  56.4923401  29.8686924  30.7528725  68.4553452  39.5099258   1.4870354
  67.5609436  39.2732048   1.2415929  68.6840057  40.2272835   0.8959814
  46.3063965  26.3930531  13.1358137  45.5505295  25.8092461  13.0720415
  46.2148972  26.8106670  13.9922352  44.9031677  41.0181694  85.7348938
  45.3762512  40.3599815  86.2440262  45.5066872  41.2557564  85.0309448
  16.7528763  14.7244339   4.0643930  16.5805683  14.1665163   3.3059273
  16.5061417  15.6032600   3.7762623  84.2571793  61.4508667  66.7688980
  84.5574570  61.9356461  66.0000992  85.0534286  61.0667458  67.1358795
  23.4327927  15.8045454  56.9327698  24.2254143  15.5063190  56.4866257
  22.8165474  15.0783596  56.8372383   2.1777780  53.8278008  79.2121201
   2.4085927  54.4802399  78.5508499   2.2486448  52.9891815  78.7561417
  22.5014935  15.3781719  12.3813553  22.1778717  16.2227898  12.6945963
  22.1379833  15.2943764  11.4998398  60.5247459  15.1468573  64.9922714
  60.3796806  14.6983480  64.1591873  61.1834755  15.8125458  64.7943726
  66.3481598  40.4643021  63.8512993  66.8751984  39.7372971  63.5197487
  65.4513474  40.1296883  63.8509216  54.0968361   1.2897238  30.3959484
  53.7222328   1.3720795  31.2729435  54.9900246   0.9796008  30.5451756
  42.8676758   9.1028090  67.2206268  43.1882706   8.6651039  68.0092087
  42.1720200   8.5313234  66.8955154  58.2738991  18.4286041  61.3835793
  58.5530128  18.4567947  62.2987480  58.5916023  19.2510147  61.0108376
  13.4322596  31.7587051  73.5004807  13.9764605  32.5454750  73.4677658
  13.8894587  31.1762962  74.1071167  56.8348007  13.7402954  44.2292061
  57.6299515  13.3235960  43.8970528  56.5297394  14.2860746  43.5044327
  76.8895493  70.2166977  29.5360947  77.7781830  69.8615723  29.5571270
  76.4638519  69.8427429  30.3075714  14.7400646  41.7931900  27.4503021
  14.4545259  42.6538391  27.7568703  14.2719831  41.1725655  28.0088310
  52.6208763  56.4478989  45.2227058  53.2417603  55.7551994  44.9970894
  51.7818604  56.1378365  44.8819046  21.8117714  24.8740749  86.9598999
  22.7657051  24.8361073  87.0291901  21.6341705  24.7488689  86.0276871
  84.2063522  55.0826683   7.5822859  83.8214645  55.3827400   6.7588463
  84.2892075  55.8761864   8.1111450  71.2500610  22.1052723  20.0912437
  71.8086929  21.5663929  19.5310974  71.8399353  22.4402199  20.7665882
  73.3344193  29.6017303  55.3555069  74.2160721  29.6641979  55.7229576
  72.9217606  28.8887310  55.8429260  18.5025940  66.1430283  22.6232395
  17.5838451  66.2704849  22.8596458  18.9874306  66.3644638  23.4183064
  23.0550079  50.8544464  19.3428898  23.8922081  51.3047180  19.4550686
  23.1153431  50.0902824  19.9161625  45.5510406  51.1103134  20.3668575
  45.6385880  50.2751083  19.9075089  45.4112244  51.7527580  19.6711941
  17.6807499  48.4478531  33.0920906  17.2079220  49.2366867  33.3574295
  17.6172314  48.4403992  32.1370277  49.1401596  57.7013054  29.8404770
  48.9629936  56.9251480  30.3719101  49.3027306  58.3962860  30.4782906
  24.3105927  10.7578402  45.6915054  23.5740185  11.2321720  46.0771179
  24.9268456  11.4426594  45.4317207  42.6091194  71.0712662  33.9412346
  41.7942085  70.7423935  33.5617714  42.8223228  71.8438797  33.4179268
  41.8039093  61.2354813  51.2518654  42.5408058  61.8250313  51.4120102
  41.1047707  61.5674896  51.8150826  67.9739685  11.4881659  12.0563507
  68.1000443  10.5477114  12.1823797  68.8296890  11.8084230  11.7710276
  30.7003269  15.7474165  80.8314896  30.9626369  16.3990784  81.4816895
  30.3736782  16.2628860  80.0940399  10.1912766  10.5143576  87.9071426
  10.5250168  11.2273598  87.3626480   9.2423544  10.6399126  87.9109802
  55.2928467  68.0808945  77.6418839  55.8831978  68.0218658  76.8907318
  54.7933922  68.8834915  77.4914856   2.0052557  21.1584644  74.8471298
   1.9385438  20.9223003  73.9219208   1.8676955  20.3348522  75.3150711
  13.1093340  58.3026619   8.4899740  12.2301283  58.6662598   8.5949783
  13.2045898  58.1750450   7.5461135   1.5161091  69.2549286  24.7458687
   1.7567308  69.3076553  23.8209076   2.3031807  69.5329514  25.2143269
  85.6086273  50.9593468   7.0728426  85.4042816  50.9187317   8.0070944
  85.4698944  50.0660210   6.7582679  32.9563103  57.9352264  72.8629684
  33.0055084  57.0432053  73.2066422  33.8584824  58.1510353  72.6268768
  84.8801117  59.6089783  29.2548542  85.5513763  59.5243301  29.9319572
  84.7409058  58.7149467  28.9425030  39.0017586  69.1659164   4.7860966
  39.4655838  68.3701477   5.0465784  39.5287018  69.8791275   5.1465001
   9.9951992  68.9685745  24.8824997   9.4253101  68.9842300  25.6514034
  10.8560991  69.2195587  25.2172985  40.2811394   4.0504122  35.1427879
  39.6376495   4.7590380  35.1430931  40.0384102   3.5061448  35.8918457
   9.7701206   6.3428497  59.3416100  10.7034216   6.1710129  59.4667206
   9.3375158   5.8175082  60.0147362  78.2433624  69.4968719  62.1967316
  78.7335968  70.0617294  61.5993767  78.4990845  69.7929230  63.0703392
  43.1049538  50.1877403  25.1911240  43.5496445  49.3422165  25.2509212
  42.5370216  50.1060066  24.4249611   2.7029893  66.6101990  50.3956108
   2.9476979  65.9758911  49.7218170   2.5271604  66.0789032  51.1721687
  63.9473724  30.1142998  73.7155304  64.2944870  29.9735851  72.8346558
  63.0127258  29.9228096  73.6380844  16.6862545   4.5195198  83.7666321
  15.8159351   4.1410966  83.8914108  16.6623001   5.3418121  84.2560120
  69.1415863  55.1898842   5.2739778  69.8497849  55.7446556   4.9470043
  68.6986694  55.7285004   5.9296832  76.2687531  60.8641624   4.2267160
  77.1316299  61.2783203   4.2389960  75.8932724  61.1179047   3.3835912
  68.4827118  58.4233932  55.9921494  68.8675919  59.2762070  55.7901382
  69.0721512  58.0427742  56.6432457   0.0347629  52.5933228  49.1369362
   0.0333723  52.6181145  48.1800575   0.8836950  52.9595413  49.3847847
  48.6807823  50.7933350   6.0621805  49.4752121  50.7901535   5.5282302
  48.7189827  49.9725990   6.5532670   8.1183681  59.9744225   7.6353335
   7.6458740  60.8067474   7.6500511   7.6559124  59.4479790   6.9832401
  72.4657974  55.8463898  77.4846878  71.8181381  56.1438828  76.8457336
  72.9992447  55.2111664  77.0070190  79.0231171  12.1754322  66.9327393
  79.1256485  11.7706661  67.7940598  79.8016586  11.9041710  66.4464111
  48.4593201   1.2613450  42.1301231  48.3867950   1.1374526  43.0764961
  49.2222672   0.7410652  41.8782272   9.2171535  14.7541676  21.7261868
   9.2318363  14.6267328  22.6747513  10.1371632  14.7146206  21.4649410
  79.2568207   6.8054700  65.9916763  78.3348618   6.5855765  66.1253281
  79.6194000   6.0483246  65.5317841  21.9573460   7.2508798  16.2958755
  22.5004292   6.4948592  16.5188694  21.4125271   6.9484453  15.5692835
  66.2011566  35.1405830  18.0993443  66.1336594  34.8650093  19.0135288
  66.5831146  36.0172806  18.1410351   4.5621114  50.5333252  14.3988705
   5.1550369  50.9212151  13.7552776   4.4325576  49.6351357  14.0943995
  68.6534042  18.3405323  69.4978638  68.0378036  18.9339104  69.0675507
  69.4817963  18.4810753  69.0393372  38.9828110  58.1285286  10.5114164
  39.6937447  58.3152924  11.1245470  39.1537132  57.2358170  10.2112646
  86.0550232  29.2535744  42.8867836  85.4107742  29.3587532  42.1867065
  85.9119263  28.3649216  43.2124405  73.3881607  50.0395279  54.4663734
  72.8405228  49.2778664  54.2761269  74.2850418  49.7102852  54.4078445
  40.7840233  69.3471603  63.1193008  41.0697823  69.6168365  62.2464600
  41.2316475  69.9486465  63.7143440  16.9068394  17.8297863  78.2820969
  16.5430737  18.3312988  77.5524445  17.4436951  17.1557331  77.8653564
  31.1827431  58.5259247  59.1577644  31.5225010  58.2205620  58.3166084
  30.4079227  59.0400581  58.9307137  68.0356979  58.9495583  88.0942230
  68.4230194  59.6175117  88.6599579  68.7094727  58.7713432  87.4381027
  81.5285034   4.9001231  53.4015541  82.1263123   5.6433196  53.4822731
  80.8559799   5.0607128  54.0634842  16.8089485  45.0283089   2.7289383
  17.1521702  44.6105919   3.5188375  15.8910456  45.2078857   2.9325037
  51.4741211  27.4073544  52.2156487  50.9711113  27.3140583  51.4066315
  52.2320290  26.8355656  52.0937386  29.9614315   1.2791867  15.7676020
  29.9289093   1.3911053  14.8175240  30.6249447   0.6034189  15.9065924
  76.2920685  39.4720154  42.9562683  75.3395233  39.4434357  43.0461426
  76.5210800  40.3862839  43.1233139   8.5130539  55.2208328  48.4959450
   7.8938432  54.8395691  49.1184006   8.7109432  54.5083809  47.8880959
  35.1071243  70.4245834   8.2355232  35.4117279  71.0910645   8.8513594
  35.5637054  70.6265488   7.4188385   0.1629800  66.9768143  64.0551300
   0.4147210  66.0721970  64.2409363   0.7178296  67.2333603  63.3185425
   2.0812082  20.8485107  71.9285812   1.6625293  21.7092209  71.9394379
   1.9870059  20.5477238  71.0247650  62.2185135  22.2321129  50.4676971
  61.4757957  22.1442471  49.8703041  62.3215294  21.3612881  50.8514709
  12.9195328  48.3704567  61.5332375  13.3993702  48.6515770  60.7541618
  13.5083113  48.5683174  62.2615395   0.4403003   9.8992586  57.4297714
   0.3762177   9.9020910  56.4747200  -0.1660047  10.5838537  57.7125359
  80.2197418  48.5576172  46.9407921  79.8094330  49.3828087  47.1995239
  79.6456375  48.2080002  46.2593193  63.9095688  34.1228867  35.2966690
  62.9679413  34.1657333  35.1301384  63.9833183  33.6814384  36.1427841
   5.6405721   4.8188505  13.5847778   5.4548140   5.7541375  13.5013247
   4.7842789   4.4166617  13.7305098  30.8961201   7.5835395  80.5721130
  29.9689083   7.6580768  80.7978516  30.9589424   6.7613392  80.0860367
  84.9948578  12.1233034  73.2146072  85.4791946  11.4327116  72.7621307
  84.1044922  11.7804317  73.2915344   5.2985058  39.0807266   3.6885836
   6.2039065  39.3702545   3.5760956   5.1333537  38.5129089   2.9358945
  64.9237976  63.4597244  62.3904495  64.0575104  63.0624199  62.3014336
  65.0009537  64.0384674  61.6319427  74.1069412  64.3433990  65.1437912
  73.1895599  64.0777740  65.0798721  74.3171310  64.2568054  66.0736008
  51.4703789  18.8716774  23.6932812  51.3983192  19.7838573  23.4122696
  51.0710106  18.8567448  24.5630589  56.9054222  65.2121735  23.1345863
  56.5973358  65.8225403  22.4646893  56.4648094  64.3878174  22.9283524
  49.4618225  50.1544342  38.3819885  50.3954163  50.1939583  38.5895309
  49.2476463  51.0347557  38.0731239  56.3044586  27.6160450  63.2738342
  55.5004349  28.0420265  63.5710220  56.7196503  27.3013058  64.0768204
  64.5748444  15.6388264  36.4732780  64.8468170  16.4774609  36.8460503
  65.1391373  15.5221930  35.7089500  50.8226509  51.4990005  13.3004503
  50.8736267  50.5820885  13.5704508  50.7949944  51.4659195  12.3442221
  66.2444382  29.4220810  78.2574081  66.6302261  29.5339146  79.1262589
  65.8539810  28.5484180  78.2793655  79.1106491  61.6678505  18.9018288
  78.7102356  62.5308495  18.7962894  78.4700241  61.1666756  19.4064598
  23.0872421  43.9947433  22.8045921  22.3974361  44.6280823  23.0027714
  23.8873844  44.5182037  22.7599468  45.6768074  62.0144615  72.1453247
  44.8959427  61.4609947  72.1327972  46.1816101  61.6995125  72.8951340
  85.3932114  32.0012550  54.4754219  85.1473312  32.8433800  54.8583069
  86.3456650  31.9667530  54.5641785  26.6345177  59.5464592  29.7229633
  25.6925793  59.4988136  29.5595188  26.9766827  60.0727272  29.0003338
  75.6977081  14.1702480   5.9821739  74.9447632  14.0897989   5.3966503
  75.5403748  14.9819260   6.4645190  41.6160278  65.8751297  70.4760284
  42.4067116  66.4026260  70.5891495  41.8469009  65.0177612  70.8335953
  36.2618866  60.5722961  30.9871960  36.2912712  61.2257233  30.2883358
  35.7739220  60.9975777  31.6923618  79.3277969  60.6474419  61.8843460
  78.5365677  60.8709335  61.3942108  79.2955475  59.6946030  61.9696922
  47.5618095  35.9754791  72.1857452  47.9597473  36.1794128  73.0320892
  47.6917419  35.0329552  72.0808792  11.4309406  20.1478977   3.3403690
  11.4926710  19.8584385   4.2506628  11.0215111  19.4135857   2.8827815
   2.3970220  40.8813782  53.6881599   2.4764869  39.9599686  53.9349747
   2.5502536  41.3614044  54.5019951  66.1254349  16.8254910  78.6455307
  65.2947006  16.3627949  78.5358353  65.9408264  17.4966564  79.3025589
  63.5540314  28.1148262  77.5411148  63.0801506  27.4163723  77.9925919
  64.2098465  27.6577702  77.0145798  64.4120865  25.7986870  30.9803829
  64.9797516  25.6771030  30.2193241  63.7635536  25.0982246  30.9097939
  14.3576918  36.1468544  58.0866623  15.1223259  36.2722473  57.5246658
  14.2053156  35.2019157  58.0764542  80.5686188  21.2720985  16.5440178
  81.2491684  20.8905945  17.0985756  80.3109512  22.0741215  16.9985542
  77.7456512  41.6266212  43.9442863  77.3838806  42.2157936  44.6062737
  78.3220749  41.0405045  44.4346237   8.6801271  41.2020454  47.6349106
   8.9050074  42.0288353  48.0616188   8.0639973  40.7824402  48.2353668
  73.3674393  14.3732033  14.8834534  73.6155167  14.8858051  14.1140852
  72.4310760  14.5402956  14.9908409  77.4395599  57.9604912  70.9804688
  77.3167877  57.2165985  71.5701981  76.5786438  58.3766670  70.9374542
  43.1858673  12.9280939  24.5230064  43.2655869  12.2495117  25.1933823
  42.2753143  13.2172995  24.5820427  67.4803925  50.7220650  33.5155754
  68.2807236  50.2290039  33.6961174  66.9622803  50.6391830  34.3161469
  69.6432266  35.5703049  72.5929718  69.6405945  36.4727592  72.2739105
  70.5570221  35.2941055  72.5227280  60.4557304   4.6416969   9.2412910
  60.9222145   3.8061764   9.2182407  59.6091385   4.4546142   8.8356895
  68.1906815  67.4574509  80.7821579  68.8333817  66.9211731  81.2464676
  67.8116074  68.0172958  81.4597321  47.7248917  10.7764530  84.6093216
  47.4606514  11.6919231  84.5180893  48.0201187  10.7016726  85.5167770
  40.8105202  49.0686340  72.9883347  40.6333199  49.4520264  72.1293564
  39.9548302  48.7742424  73.3003540  71.1506882   1.0727684  86.6561813
  71.4699707   0.1745405  86.7426682  71.7789841   1.5989555  87.1507568
  78.9038086  16.0771942  30.8449535  78.2896652  15.9627943  31.5701962
  79.2697144  15.2044792  30.7010269  77.6022873  66.2386627  47.3003006
  77.7927780  66.5568695  46.4178696  77.2604294  65.3545151  47.1674843
  70.7339478  67.3241196  55.3952179  71.3465500  67.1428680  56.1080246
  71.0718918  68.1205444  54.9856644  47.7837563  45.9564438  13.3464127
  48.1808052  45.6907349  14.1758614  47.7630348  45.1551361  12.8232384
   5.3035035  30.8447647  19.1892357   6.2367420  30.6965523  19.0364914
   5.1941047  31.7917633  19.1028728   2.4112613  47.6493607  54.2253647
   2.6579416  48.1488571  55.0037498   2.9312830  48.0335159  53.5195084
  72.2519302   0.1345629  49.1794815  72.0654907   1.0024996  48.8214874
  72.5805664  -0.3667851  48.4332390  71.0330658  68.0739670  31.0795078
  71.2191086  67.4379730  31.7702503  71.7669754  67.9882660  30.4710217
   2.6529164   0.5277219   8.5237722   3.0022347   1.1717218   7.9077587
   2.0450194   1.0249276   9.0710192  15.3274918  10.0587893  60.6436615
  15.0299673   9.8458929  61.5281868  15.1072569  10.9837141  60.5330124
  84.8161011  38.0107307  76.1311493  84.6937256  38.5769615  75.3691559
  85.4866867  38.4521942  76.6523666  75.9162216  23.8418694  86.4104309
  76.3757095  23.0341873  86.6401138  76.2165070  24.4804630  87.0571594
  24.3689232  25.1745224   1.4567455  23.7755585  25.8948040   1.6696883
  25.0363655  25.5715046   0.8971395  37.3360023  33.1792030  86.9617538
  38.0104294  32.7628899  87.4984665  37.8129272  33.5373077  86.2130661
  85.6898193  51.7993240  11.6782131  85.4035110  52.6404381  12.0342865
  86.3041534  51.4602585  12.3292589  35.4520454  27.4463634   4.4049044
  36.2556686  27.8171539   4.0402999  35.4684830  27.6999092   5.3277678
  27.5388451  60.4797668  37.5546608  27.2985344  59.8428459  36.8817482
  26.8599243  60.3894081  38.2233429  86.7625656  12.0125856  47.3972740
  86.8603439  11.7551413  48.3140068  86.3995895  11.2376966  46.9682922
  18.8050880  39.8485107   9.0337801  18.1771564  40.0829697   9.7171259
  19.2873707  39.1054497   9.3964052  63.7360191  63.7813911  59.3213310
  62.8563995  64.1269760  59.4732323  63.7875748  63.6662788  58.3724785
  61.6681633  53.3140221  86.9937592  61.6012077  53.8341446  87.7945251
  60.8128700  53.4085770  86.5745239  83.6342010  50.3487396  30.6726818
  84.3312683  50.7957916  30.1926098  82.9650269  50.1698761  30.0120354
  58.9684601  19.0983505  49.3481178  58.9085350  18.2377377  48.9334068
  58.3887482  19.0391769  50.1075020  82.2673798  48.7222023  27.7764606
  82.0226593  48.8909302  28.6863346  82.9143524  48.0187073  27.8289604
   5.6777077  69.9179535  88.5421371   5.5977793  69.9647598  87.5894318
   5.3710279  69.0391083  88.7653275  35.5969810  69.3710632  64.4586639
  36.5000877  69.6882706  64.4551010  35.5503578  68.7726746  63.7130165
  86.2476959   7.3886280  36.0366135  87.0299988   7.9309416  35.9359703
  85.5632706   8.0025835  36.3028030  12.8392220  35.2911148  71.4718475
  12.4787369  34.4172363  71.3214569  13.0936861  35.5982361  70.6016998
  68.3602066   8.4323483  12.0362940  68.1401672   8.5626574  11.1138868
  67.8221970   7.6887932  12.3081398  11.7398281  64.2713470  42.6490593
  11.0113840  63.6711464  42.4898148  12.0829525  64.4681473  41.7774086
  12.3291636  54.2800026  60.4280586  12.3973885  54.9415169  59.7395973
  11.5401258  53.7850952  60.2073326  60.9019127  48.0761871  51.3747673
  60.9232674  47.7478142  52.2736282  60.2121620  48.7398605  51.3785515
  16.3455505  50.4035568  64.8521347  17.1237202  50.3245811  65.4039001
  16.4402294  51.2549019  64.4249496  39.4630318  42.5064316  22.1809750
  39.1154060  41.6635323  21.8895931  40.3254662  42.5648613  21.7698479
  11.0300217  28.2428551  70.9601669  11.8309298  27.7697239  70.7345047
  11.1178789  29.0871372  70.5177841  69.5027847   3.8032084   2.4735212
  69.8193436   4.7046776   2.5316074  70.2682724   3.2667925   2.6796994
  42.0710907   2.1179781  30.2450275  41.7127457   2.3964689  31.0877991
  41.7670441   2.7805910  29.6247578  11.9234934  32.2836342  18.8525639
  12.0167618  32.2371292  19.8040733  12.5173903  31.6103954  18.5204983
  29.3870544  54.3824806  11.7928963  29.5462437  54.4358482  12.7352562
  30.2321205  54.5917206  11.3950090  48.0387535  51.5833435  76.5665359
  48.9665604  51.7766533  76.4322433  47.5802078  52.2072144  76.0037231
  56.8513985  58.3927917  59.7706375  56.5463905  58.2093811  58.8820648
  56.4169159  59.2117920  60.0087357  50.2756233  46.5599022  81.5683899
  50.9291306  45.8782921  81.4116516  49.4405212  46.1454926  81.3513718
  24.4900055  68.8325195  78.4257584  24.9220333  68.0774002  78.8249817
  25.1124821  69.5511017  78.5370560  51.4581947  63.8735237  29.2863293
  52.2512932  64.2677002  29.6494541  50.8327484  63.8828621  30.0108719
  39.1227493   2.4717951   4.0338578  38.5384941   1.8941714   3.5427036
  38.9497643   3.3443146   3.6802776  20.0662327  59.0409355  11.5715227
  20.4678860  58.3215103  11.0843554  20.0970879  59.7844887  10.9695168
  26.8703346  71.4449768  38.9771347  27.1686859  71.8621063  39.7853546
  27.4657593  70.7054672  38.8553391  42.3582916  31.4527721   0.1808280
  41.9101067  30.7989311  -0.3556906  42.1563950  31.2020969   1.0822885
  26.0598488  16.1343307   1.1249481  26.9297752  15.7677717   0.9665333
  25.9310741  16.7616215   0.4135024  56.3197517  63.1775551  82.2955399
  56.1074257  64.1054535  82.1947937  57.2032013  63.0936813  81.9367676
  82.6875305  71.0683594  64.1316376  83.2057114  70.2858734  63.9433670
  83.2828979  71.7974396  63.9578056  10.3753204  14.1096687  76.2225037
  10.4701471  13.9991455  75.2764435   9.8119869  13.3846321  76.4930725
  74.2422562   6.3238702  39.9616280  73.6266556   5.6018577  39.8352547
  74.0590668   6.6429186  40.8453064  37.0095406  10.9294815  22.9754314
  36.2493019  10.3480730  22.9601154  36.9079285  11.4354258  23.7816124
  23.7279797   2.2201884  13.8559370  23.0631981   2.9086337  13.8375330
  23.3316956   1.5183139  14.3722334  44.7014465  27.9190617  10.0002213
  44.6859665  27.7579880  10.9436445  45.0743904  27.1204185   9.6269751
  62.4168396  10.2935600  10.4777517  62.6302071  10.3769665  11.4071331
  62.8539963  11.0377836  10.0639191  31.1737080  31.9038372  80.4352798
  30.3697033  31.6462116  80.8863220  30.9711552  32.7580681  80.0538483
  67.0477371  20.8046837  25.1197453  67.6090012  21.5175400  25.4247837
  66.1956482  21.2159863  24.9748096  19.7310848  57.5761337  62.0310745
  19.5792446  57.1419716  61.1916237  20.1195393  58.4193039  61.7978325
  56.7988739  10.5801268  -0.0181325  56.0022392  10.5933266   0.5123642
  57.2005081   9.7327538   0.1739134  39.8693314  67.9188156  67.4530869
  39.1475372  67.7782516  68.0658569  39.4420547  68.0636292  66.6088715
  72.8401108  27.5961971  62.9044533  72.8330536  28.2497864  62.2051659
  73.7389374  27.6071053  63.2334290  71.0702744  20.6677818  34.6391983
  71.5870590  21.1078053  33.9642601  71.7209549  20.2955418  35.2344093
  83.7805023  30.5732441  56.5231018  84.1669693  31.3411503  56.9440460
  84.2071838  30.5290222  55.6674042  45.0094833  64.8248596  72.4837646
  44.2275124  64.7471161  71.9372177  45.2868576  63.9212875  72.6349182
  72.0529175  28.5477486  34.0170212  72.6194153  27.7781181  34.0715714
  72.6387177  29.2880402  34.1752586  54.6579247  14.4270086  38.6641884
  54.2244759  13.9113722  39.3442421  53.9551086  14.9451017  38.2719383
  39.0826836  62.1906166  46.5692825  38.9858093  61.4836617  47.2072983
  38.3664360  62.0534935  45.9492645  13.8979311  65.5266190  77.8395767
  13.5998840  66.3415985  77.4355927  13.8842812  64.8872604  77.1273499
  11.0981417  15.3495398  82.9585648  10.5496292  14.7806969  82.4183884
  11.9923630  15.1600618  82.6744843  10.6831617  56.7403221  51.1547623
   9.8484535  57.2043381  51.2194252  10.8934622  56.4988403  52.0568123
  52.7453232  60.0439911  25.9294701  52.2482109  60.6916275  26.4291477
  53.4119148  59.7301903  26.5405464  22.1450329  58.2360687  75.9443741
  22.6672878  57.6840591  76.5264130  22.4217548  59.1292038  76.1492386
  70.2614059  40.8372803  20.9400501  69.6151047  41.4970970  20.6887131
  71.1059494  41.2405663  20.7392159  23.7947617   7.6295023  77.2683411
  24.6175957   7.2590117  76.9491043  23.6079884   7.1421185  78.0707169
  78.8262482  50.4481316   5.6129565  77.9684296  50.8684044   5.5516901
  79.4516449  51.1576271   5.4655566  85.3927231  43.2754402  64.3929214
  85.1931000  42.7791939  63.5991211  84.6495819  43.1088409  64.9727631
  77.4790955   8.8377523  59.4544029  78.1705322   8.1960087  59.6166191
  76.6668167   8.3348532  59.5138512  75.2760086  21.7179890  58.1427155
  75.4290390  21.4047127  59.0341568  75.9905548  21.3400478  57.6300545
  45.7317390  36.5791855  76.5996780  45.9125557  37.2545547  77.2534485
  45.1818352  35.9435539  77.0577316  13.3838787  33.3251152  58.4086685
  12.5026007  33.2910957  58.7807198  13.5054607  32.4671631  58.0020142
  38.1879883   2.9286408  58.5741463  37.3980522   2.7527907  59.0853310
  38.4261093   3.8271337  58.8027153  10.9646101  25.5465946  23.7431126
  11.8290339  25.9383507  23.8677349  10.3553419  26.2806110  23.8221512
  83.7542877  33.2769890  75.1222229  83.5260696  34.0904007  75.5722427
  84.6499176  33.4165764  74.8146667  20.1338978  18.2647438  76.0720062
  20.8693123  18.8075199  75.7877655  19.5015850  18.3240490  75.3558350
   4.4645042  15.9380484  51.9471169   5.2681875  16.1161938  52.4355736
   3.9344313  16.7267132  52.0622826  62.8858299  48.1182747  87.9523544
  63.4824142  47.3830185  87.8119202  62.0942001  47.7188835  88.3129654
  13.8144093  59.3741913  84.1765976  14.4425154  59.7373581  83.5522385
  13.5044918  60.1318474  84.6727219   1.7446322  67.7926331   8.4402552
   1.8406373  68.6212463   7.9707718   2.4528840  67.2434387   8.1041088
  21.1437111  52.9089699  65.7378693  21.1089153  52.7396278  66.6793289
  20.9164371  52.0708580  65.3351974  68.7907257  35.3092651  46.2204628
  68.7439880  34.7832985  45.4220886  68.7824860  34.6676903  46.9307747
  12.2551270   1.6126271  83.1497879  12.1760311   1.7182599  82.2017288
  11.3669128   1.7462972  83.4806061   9.1815681  22.9374199  75.2233734
   8.8567228  23.6843014  74.7205048   8.5658016  22.8527546  75.9513092
  73.4847565  35.1998940   5.6332393  73.3833542  35.6909943   6.4485736
  73.6223373  35.8711357   4.9648547  80.8046875  70.8176956  28.3559055
  80.2583694  70.0334854  28.3030968  80.9133682  70.9711304  29.2944565
  53.8140831  39.4904556  88.0924377  54.5754128  39.7693634  88.6011810
  53.4856071  40.2954483  87.6920395   9.5475950  69.5276260  31.2380943
   8.7171268  69.1129150  31.4717045   9.6953077  69.2717667  30.3276272
  53.9527779  17.1507015  49.3355865  53.2477875  16.5596485  49.5999260
  54.3569221  16.7197247  48.5824890   4.1901698  70.7504883  12.0649719
   4.2230368  70.4428711  11.1591444   5.1066794  70.7882538  12.3384972
  70.3352509  31.8660736  74.4860077  71.2249908  31.5143795  74.5162277
  70.2386322  32.1967697  73.5929565  14.5766459  61.2831383  17.3679028
  14.8701134  61.7945557  18.1219330  14.4417095  61.9314079  16.6766911
  59.8595276  28.6018944   8.3477879  58.9436836  28.5847359   8.0699959
  60.1990891  27.7399940   8.1068373   6.2307067  70.3127899  75.1887054
   6.3183846  69.8652115  76.0302582   6.9902029  70.0232620  74.6831589
  80.9602814  62.0776329  60.1542969  80.5895691  61.3857956  60.7021751
  80.4345016  62.8513603  60.3571129  10.7303905  61.2282333  88.3534088
  10.4328766  60.8840446  87.5112381   9.9324083  61.3039436  88.8765945
  29.5632706  37.9680214  61.5827637  29.9066830  38.7698364  61.1885681
  29.3750706  37.3966560  60.8382111   6.8029208  66.5177765  30.4076481
   7.0647864  65.7688065  29.8721943   7.0855513  66.2895584  31.2932396
  62.5948715   2.7791471  38.8328285  61.6772308   2.9705791  38.6391182
  63.0622063   3.5794659  38.5934105  38.0139847  55.5692558  61.5989761
  37.0868835  55.6123734  61.3647575  38.0414581  55.8353195  62.5180435
  63.6619720  70.3164902  79.1811295  63.6381416  69.4392242  78.7989502
  63.3645134  70.8926544  78.4770126   5.9105239  48.7870979  75.1489639
   6.4031057  47.9870300  74.9659653   6.3697715  49.1875420  75.8871841
  53.6883850  50.4508629  42.2113228  53.3693581  50.6212425  41.3250809
  53.3259392  49.5938225  42.4357185  34.9756088  13.5983877  77.1918335
  34.6472282  14.3572054  76.7095566  35.5023651  13.1181717  76.5529709
  72.4154434  70.5538559  27.4127121  72.2478104  70.8196945  28.3168488
  71.8777390  71.1449051  26.8856716   6.1411953   5.9278049  33.0981560
   5.6459680   5.7387328  32.3011398   6.9271507   5.3862448  33.0259209
  40.2726440   1.7661695  26.0054913  39.4599037   1.8414779  25.5054798
  39.9893303   1.5314858  26.8891697  83.9668579  63.7825050  80.7748718
  83.2307663  63.9094086  80.1763000  84.0704269  64.6288071  81.2099457
  80.8297653  55.5110474  31.8194866  81.2907562  56.3033714  32.0950546
  79.9273300  55.6462135  32.1085663  66.9333496  49.4863091  87.0678177
  66.3791046  50.2644768  87.0087051  67.1688690  49.4297829  87.9938660
  56.5809441  55.2516365  22.2318974  57.5060310  55.4941826  22.2720776
  56.1148224  56.0874481  22.2124310  79.2454605  54.8878136  47.8506165
  78.4915695  54.3281250  47.6645126  78.8666840  55.6830482  48.2252731
  72.4066238   1.8431950  52.3828773  71.7257233   1.6320666  51.7441063
  72.3911743   2.7984092  52.4425354  13.9638472  19.6268044  79.8025284
  14.2596970  20.5354652  79.7473907  13.5604086  19.4542294  78.9518356
  58.8130417   8.5837116  53.0053864  59.6191177   8.0675936  53.0152321
  59.0782623   9.4481316  53.3194962  39.1730347  67.4948044  64.6486359
  38.7413406  66.9843063  63.9636078  39.9602509  67.8415833  64.2287903
  71.9967804  48.4160156  65.1405182  71.7644424  48.4649582  66.0678024
  72.9435196  48.5560913  65.1231079  42.2495728  67.6542969  80.5729141
  42.1897583  67.8890305  79.6468735  41.6437454  68.2519608  81.0111084
  25.7833767  25.8213196  57.6245308  26.3773632  26.5709343  57.6631584
  25.5607548  25.7396717  56.6971664  47.9663124   3.8918240  41.5887184
  48.5068626   4.2872982  40.9048767  48.3218536   3.0094495  41.6947250
  68.9357758  25.8985424  76.2702332  69.7673187  26.2612095  76.5755844
  68.3071442  26.6112213  76.3848801  40.3091621   0.7210007  28.6600742
  41.0966034   0.7484381  29.2035904  39.6583214   1.2175587  29.1561279
  62.0823441   4.4751153  65.8580475  61.9812012   3.5681720  66.1469345
  62.1657181   4.4154601  64.9063492  23.3001175  61.5063934  62.2650108
  22.5659790  61.6584702  61.6699066  23.2562180  62.2305260  62.8894577
  80.1753464  62.1964340  23.5367165  81.0775299  61.8815384  23.5926971
  79.6513977  61.4033318  23.4240341   9.0408630   0.5062246   1.0092366
   9.1552992   0.0050555   0.2017925   8.0930557   0.5378584   1.1392069
  86.6514587   0.4843419  73.6818619  87.0914764   0.4572856  74.5315018
  85.7186737   0.4508550  73.8940430  71.4384689  56.7297478  38.2393913
  71.6350861  56.5374146  37.3225632  72.2815552  56.9789734  38.6179733
  21.9472790  49.4882927  23.7591915  21.3241444  48.8735123  24.1464653
  21.4071579  50.0755615  23.2304020  37.1675072  30.9809971  76.7498550
  36.6000443  31.7204838  76.9675217  37.2168617  30.9902134  75.7939758
  74.2889481   5.2392988  43.6006355  73.3764725   5.1847963  43.3166466
  74.3727188   4.5594511  44.2692299   1.9740292  59.5283699  85.4014206
   1.7902693  59.8309097  86.2907715   2.8364553  59.8907280  85.1985703
   6.7092628  11.4037886  26.7543125   6.2992654  11.2812948  25.8980827
   6.9278188  12.3352251  26.7841625  31.4375763  67.5490189  60.0468330
  30.7568722  67.6319733  60.7146568  32.0877151  66.9658966  60.4386482
  17.7026520   9.1982136  63.5748825  17.6723976   8.5045424  62.9159889
  18.3457546   8.8928862  64.2147446  85.7851639  39.2118378  62.4289322
  85.9282990  38.5237389  61.7791100  85.0355148  38.9065628  62.9398689
   4.2853899  31.7581978  87.2996140   4.5053363  32.4976768  87.8662033
   3.7456567  31.1886578  87.8478317  79.9143906  56.9708138  23.7743969
  79.4365616  56.8310776  24.5919437  80.7639694  56.5543594  23.9193459
  79.1817245  15.4659863  14.7049809  79.4115906  15.3972015  13.7783422
  78.9410706  16.3847008  14.8244972  23.1204262  34.9862175  77.1083755
  23.2688217  34.7091637  78.0125046  22.5438309  34.3148155  76.7437057
  19.5029182  47.8840485  54.5527573  19.0477276  48.5373344  54.0214882
  20.1636944  48.3835869  55.0324097  61.5324020   8.3939333  82.4504166
  61.0528488   7.6421533  82.7983932  62.1028633   8.6674891  83.1687317
  60.4061432   5.5225472  52.9517288  61.1078262   6.0266228  52.5396767
  60.0287170   5.0092053  52.2374039   6.2669783  54.3435822  49.8781548
   6.0736055  54.1679764  50.7990265   5.6548114  55.0373840  49.6329498
  26.2345963  57.5774994  27.4602280  25.2957249  57.3912277  27.4677944
  26.6272335  56.8487892  27.9409008   3.7249665  66.1071396  54.1393814
   3.4058731  65.4757919  53.4945526   4.6619201  65.9245148  54.2100754
   7.4679809  41.2355728  75.0813599   6.8796210  40.7853889  74.4752274
   7.0310206  41.1723976  75.9306641  24.5472050  32.6816177  88.6095886
  23.6792831  32.7230949  89.0111160  25.1425247  32.5219269  89.3419266
  66.9001694  17.9972515  54.6297874  66.5922928  17.7367020  53.7617111
  67.8006363  18.2888184  54.4870148   9.0411863  56.4790955  75.7202759
   8.2551489  56.5640564  75.1806793   8.7442322  56.0188370  76.5052643
  48.7236900  13.5026379   7.3663197  48.9146996  14.1104183   8.0807066
  49.5065041  12.9556198   7.3014798  35.5396194  64.9294434  13.9532690
  35.8479805  64.8966980  13.0476904  35.4568825  65.8636932  14.1444788
  83.1593781  65.2565231  76.9603271  83.3018417  65.6724091  77.8106079
  82.3556824  65.6573944  76.6292725  43.0840912   5.2974401  75.8589859
  42.5613251   5.3414397  75.0583572  42.5882683   4.7177486  76.4372177
  76.7998352  25.3087940  88.3790131  76.9269028  25.2918835  89.3275909
  76.6480484  26.2314034  88.1741028  40.0680962  65.1123962  19.0745564
  40.0330353  65.9831085  19.4706249  40.9809608  64.8414841  19.1720963
  42.5162392  64.4053040  45.7653503  43.4610443  64.5477295  45.7080345
  42.3909378  63.9651871  46.6060829  35.7188492  20.7945156  85.9521637
  36.6053505  20.6067123  85.6438217  35.2709045  19.9491100  85.9227371
  25.8929768  21.8533230   0.0837120  26.4843159  21.1357307  -0.1434692
  26.2583504  22.2188263   0.8894055  41.4875946  62.2880592  77.9430542
  40.6509323  62.4926147  77.5254517  41.4392624  62.7153931  78.7982025
  84.3275070  49.2981949  79.8888702  84.0117264  49.6249771  79.0464172
  83.6071320  48.7643089  80.2239227  65.0606689  30.9711857  67.2728653
  64.8756638  30.1052876  67.6364899  64.5876465  31.5767212  67.8436584
  10.9501534  46.0290527  31.0472946  11.8306341  46.4023857  31.0072002
  10.8991680  45.6284103  31.9151192  48.1433907  50.7673340  79.0723190
  47.9724426  50.8982620  78.1396484  47.4630508  51.2754211  79.5141525
  13.6340370  54.0925636  41.5532188  14.4763203  54.4793472  41.7923584
  12.9873295  54.6144371  42.0282440   3.9826379  69.4604645  65.1357956
   4.7581420  69.9303131  64.8290863   4.1056967  68.5645676  64.8220062
  59.0617981  23.6838589  79.5871048  58.9167900  22.7519798  79.7508240
  58.9703064  23.7775211  78.6389008  65.9306793  43.5340080  63.2658958
  66.7854996  43.8903236  63.5078659  66.0220718  42.5889359  63.3872261
  77.5877609   5.4945860   3.2475584  77.5277863   5.7439270   2.3253520
  77.4096909   4.5541129   3.2534578   3.0364575  68.9230194  37.2295723
   3.5486169  69.7313232  37.2058182   2.6518419  68.9088440  38.1059875
  39.6889954  50.4608154  46.2095947  39.9893608  51.2863159  45.8293839
  40.3996773  49.8439217  46.0346451  65.8535233  52.8489265  67.0400162
  65.6992111  53.0833054  67.9551544  65.2826767  52.0961571  66.8860321
  26.7621212  70.8653336  33.3088951  26.8113098  69.9179916  33.1809807
  27.4809151  71.0636139  33.9091072  13.0876541  21.3228264  25.2439137
  13.2060404  21.7195244  24.3808689  12.1630764  21.4639168  25.4475803
  62.4815102  12.3254805   2.7778003  63.1318512  12.3904142   2.0784628
  61.6388245  12.3569489   2.3249004  26.7382946  66.7099762   2.9151697
  25.9308186  66.2301178   2.7309129  27.4048100  66.2682037   2.3890297
  15.3162861   5.7010746  13.7388821  15.6037474   6.6058993  13.8609076
  15.0255613   5.4229302  14.6074133  22.6700573  45.6434212  66.7946548
  22.0186596  44.9420815  66.8004913  23.0444412  45.6299133  67.6754990
  11.4446793  46.2848549  63.2334290  12.1481352  46.1730003  63.8728561
  11.6975136  47.0602646  62.7323837  21.3359528  66.5888596   5.8718004
  21.3902283  65.9669952   6.5974498  22.1657505  66.4862137   5.4058285
  85.6502304  57.7895889   0.3240935  85.4864960  56.8584709   0.1742624
  85.8302689  57.8532181   1.2620536  43.4131393  29.2410889  39.0304871
  44.0046806  28.6090317  38.6220512  43.9238968  29.6193085  39.7462425
  65.3365326  45.1615181  33.7543221  64.5813141  45.7428207  33.6650734
  64.9587402  44.2831535  33.7988663  38.7134476  41.3316307  77.1936722
  38.2676849  42.0909195  77.5691910  39.5353699  41.6820335  76.8503189
  68.1266098   9.1209488  73.3897934  68.7253036   9.6659660  73.9004364
  68.6429596   8.3484116  73.1599960  65.4722366  39.4056091  33.9043579
  66.3204422  39.1592522  34.2732506  65.6763077  39.7199287  33.0235672
  37.1487541  67.8787079  51.7130356  36.7133636  67.0402756  51.8669510
  36.8720322  68.4301834  52.4448357  47.7359390   4.5000248  57.6783600
  47.2646484   4.8929391  58.4130287  47.3463135   3.6311448  57.5810471
  46.1926918  23.8662453   1.0869378  46.0306244  22.9230747   1.0670304
  45.8386307  24.1523857   1.9289573  38.3146667  52.5013504  27.1315784
  38.4427986  51.6452446  26.7230530  38.9604988  53.0674858  26.7089405
  65.8335800  39.9909935  15.6556396  65.2658081  39.2213821  15.6951513
  66.3843536  39.8430824  14.8868723  52.3840790  68.9107895  78.0009689
  52.6686211  68.0104599  78.1580429  52.2448006  68.9563904  77.0550537
  45.8082504  35.4902267  13.4528122  46.0071373  34.5560532  13.3896322
  46.1763573  35.8680344  12.6540699  17.5344772  47.5423889  22.2770958
  16.6434345  47.6080933  22.6205463  18.0561485  48.0973778  22.8568211
  24.6184921  64.7360535  16.7429733  24.7723885  64.2920609  15.9090548
  24.4461174  65.6461258  16.5015488  73.4007950  21.3213711  61.6183128
  72.5976181  21.8226032  61.4772072  73.2071304  20.4537449  61.2634125
  51.2744522  54.0024147  18.8403225  50.6273918  53.5619965  19.3913002
  51.0094681  54.9221725  18.8482304  69.9704895   0.6911172   9.5486298
  70.1074677   0.5549453  10.4861403  70.6393127   1.3287522   9.2989788
  40.0651855  15.0250902  87.9455338  40.2921486  14.7409573  88.8309631
  40.5239220  14.4111891  87.3720245  45.8880539   2.6113708   2.4751003
  46.3620758   2.0709419   1.8430637  45.0862389   2.1208296   2.6559196
  83.8771362   8.7711430  39.7806892  83.4636612   7.9457421  40.0336304
  84.6561584   8.8281994  40.3339500  57.3519707  68.5760117  20.1858463
  56.4758453  68.9485168  20.0865154  57.8743477  69.2877731  20.5556374
  62.8496666   5.4589524  36.7984238  62.6325645   5.1113558  35.9333954
  63.5216141   6.1193795  36.6294327  63.5652351  63.5025253  88.3417740
  63.1815910  63.1353989  87.5453644  64.3458176  62.9711723  88.4985580
  59.7304115  19.2389774  22.1561260  59.8802223  20.1843815  22.1559277
  59.7754745  18.9895306  23.0791531  77.9355164  61.4206352   1.3363218
  78.4242783  62.2435989   1.3447767  78.2816238  60.9442520   0.5816699
  81.9298935  45.0595093   2.9599376  81.5558853  45.1610947   2.0847065
  81.7077789  45.8738556   3.4113131  17.2877674  46.4277077  54.7255516
  16.9856110  46.6266136  53.8393440  18.0212841  47.0258522  54.8684044
  10.3016396  52.3395081  62.4403038  11.1864452  52.5818062  62.1670952
  10.2844067  52.5167198  63.3807983  20.7223873  20.8593311  13.5209761
  20.4474850  21.3251953  14.3106794  21.2839050  21.4817829  13.0589342
  33.9840393  19.8234730  79.3604965  34.0177841  20.5365181  78.7227936
  33.8505707  20.2604866  80.2015915  18.4595089  12.1735172   1.4283482
  18.0607071  12.4867163   0.6165016  18.9137707  12.9380035   1.7825232
  29.1380291  52.7455025  21.4247684  29.4896851  52.3768616  22.2351246
  28.6194458  52.0365486  21.0443878  76.8585892  23.1321278  43.2442932
  76.0105972  23.2593174  42.8188972  77.2517548  22.3939247  42.7787743
  69.1533203  38.2367020  20.4800262  69.6484375  39.0305824  20.6821308
  69.6761475  37.5269089  20.8529568  84.7531128  69.8844223  77.4430771
  85.1955795  70.5525131  77.9666290  84.2706680  70.3795853  76.7810440
  51.8397751  30.3223591  64.0425110  51.1403351  29.6855469  63.8959351
  51.6298752  31.0481796  63.4548416  10.0637999  20.4824448  18.3043556
   9.9524393  19.5371780  18.4058514   9.1741762  20.8337669  18.3414402
  15.4670696  28.2676277  62.5328865  15.0003052  29.0780258  62.3288841
  15.9270191  28.0458374  61.7232628  66.8503723   0.7945124  32.0529785
  67.2546844   0.7887892  32.9205818  67.3610611   0.1628555  31.5465832
  76.5604935  64.2554779  75.8981018  77.4617157  64.5466385  76.0368576
  76.6458817  63.3609734  75.5682449  83.7899246  42.3567886  75.2661438
  83.3520813  42.3067284  74.4164276  83.1057205  42.1445580  75.9010162
  67.5050049  53.2948189  87.5565796  67.8068771  54.1893768  87.7142944
  68.3036728  52.7673073  87.5662994  50.8149376  63.3479462  22.1037197
  50.6810265  62.4527855  22.4151382  50.7015915  63.8921165  22.8829937
  53.6123352  11.3793793  52.1632156  54.4711304  10.9741230  52.2835236
  53.5271988  11.9836121  52.9007034  64.6983871  21.3592758  44.3281898
  64.2177658  21.3925724  45.1553078  65.6160278  21.4627991  44.5800705
  72.2139435  35.9194641  33.2221069  72.9683151  36.4928551  33.0865326
  71.5014038  36.3441238  32.7444229  78.5764389  24.5636806  44.6991539
  78.0566864  24.1930637  43.9858971  79.1402054  25.2099152  44.2739754
  72.9188461  36.1495972  46.7173729  73.3578186  36.9276047  46.3735237
  72.4584351  35.7814064  45.9632568  24.1725864  51.0112991  24.4835300
  24.6710968  51.1950607  23.6873207  23.3742046  50.5842056  24.1730270
  83.3697891  63.5899963  59.4521751  83.9329834  62.9148407  59.0737495
  82.5472946  63.1379852  59.6403618   6.5788317   5.4127078  82.6333466
   6.2978945   6.1759892  83.1380310   5.9175506   5.3226509  81.9471817
  74.9435349  51.6584129  71.8038864  74.5238876  52.3515625  71.2943039
  74.2510681  51.3300552  72.3773956  76.3062286  35.8156586  40.0725021
  76.7691116  35.7928162  39.2349777  75.4566727  35.4152794  39.8876228
  38.0587616  61.9868813  63.9055481  37.2107964  62.3541870  63.6560135
  38.6453629  62.2304382  63.1894379  69.5871582  54.8841934  64.3729935
  69.6297684  54.3282280  65.1510239  70.3741913  55.4267082  64.4228973
  86.4076157  10.4435854  54.8326988  85.5461731  10.8602495  54.8094254
  86.9904785  11.0748434  54.4107819  56.2778473  23.5160427  71.0995483
  56.2037277  22.6095810  71.3979874  57.1604385  23.7817898  71.3577042
  58.3970795   1.5815405  31.9106445  58.7715912   0.7530272  32.2098770
  57.8834991   1.3469422  31.1377087  24.1864891  45.9166794  62.0057793
  24.6481323  45.2923965  61.4459648  23.4236660  46.1809921  61.4915085
  66.1114883  17.3718948  75.6222076  66.1561127  18.3101349  75.8064575
  65.8842468  16.9733753  76.4623108  61.8235779  58.2554703  22.6063042
  61.3628731  58.0424767  23.4178543  62.7184868  58.4519157  22.8833923
  41.4206200  29.0007401   8.0427036  42.1089516  28.3956108   7.7665739
  41.6821098  29.2761002   8.9213581   2.0677147  55.4849892  12.7785692
   2.2918496  54.8357391  12.1118860   1.8639191  56.2775764  12.2820730
  58.4060135  67.1699066  60.1545830  57.6708870  67.6286240  60.5612755
  58.0078087  66.6526413  59.4545059  29.4748249  41.3131714  62.2876740
  29.3801079  40.4931259  62.7722206  29.5851612  41.0415878  61.3764648
  20.7260399  57.3339958  70.5675201  20.1466904  57.6394844  71.2655640
  21.5936260  57.3069229  70.9710007   5.1129274  35.5260506  66.0798035
   4.6776118  34.9840050  66.7377701   4.4598250  35.6343040  65.3884506
  65.3564377  28.0988197  43.2371101  64.8299637  27.3753567  43.5771980
  65.9566650  27.6867924  42.6156693   4.8242860  62.4243736  22.2939014
   4.7379942  62.2961845  23.2385464   5.5448437  63.0476799  22.2016087
  20.7747574  64.3713074  55.3808365  20.8281384  64.6663208  54.4717979
  21.1283436  65.1003723  55.8904114  54.2906685  66.1730881  65.4181366
  54.7999878  66.9129105  65.0872345  54.7046318  65.9512634  66.2521973
  -0.1163567  69.1725082  35.0958290   0.7359890  68.9376984  34.7289429
   0.0706593  69.8992157  35.6900978  39.6939316  34.6703262  17.4464092
  40.3160019  34.6946602  18.1735058  40.1743698  34.2482567  16.7341824
  64.1445389  15.4279881  58.3765182  64.5067139  16.1213303  57.8248520
  63.8178329  14.7752781  57.7572746  47.0137291  10.1996784  23.2651482
  46.5839424  10.2919760  22.4148560  47.1025925  11.0966749  23.5872250
  82.0195770  63.0096931  36.3680458  81.7963409  63.2626724  35.4722824
  81.2233047  63.1810913  36.8708382  79.4488068  17.9286194  42.8832130
  79.2438736  18.2520084  42.0059128  79.1221390  18.6091919  43.4717178
  84.2840958   4.4076166  37.4660454  83.3558807   4.4804134  37.6882019
  84.6161041   3.7221963  38.0458717  17.3501949  34.0297127  76.3391647
  16.9892044  34.7849426  76.8034363  17.8995724  33.5898895  76.9879913
   5.6696081  26.5660305  25.1346340   4.8751473  26.5559425  24.6008148
   5.7995858  25.6521511  25.3879356  85.5896912  21.0030632   7.3066373
  85.9713516  21.4192982   8.0794973  85.3030624  21.7333584   6.7582335
  30.8386307  43.6261940  84.6061859  30.2483997  43.5451736  85.3553772
  30.2869568  43.9678268  83.9024963  57.5916595  17.7146397  51.8290558
  56.6659279  17.7245007  51.5858345  57.9060135  16.8578300  51.5404549
   8.2745142  40.0826988   6.1948037   8.2880659  40.1121025   5.2381516
   7.9344554  40.9384995   6.4559407  67.5770569  63.8001480  46.1078300
  67.2894669  63.6071777  45.2154808  68.5236435  63.9212723  46.0334854
  84.4984055  24.9477062   7.4570622  83.7769547  25.5597935   7.6022677
  85.2774887  25.4229050   7.7459497  25.2018681   2.6870837  61.9010582
  25.4618130   1.7665211  61.8660622  24.9794350   2.9077029  60.9965820
  39.5682945  35.1318474   3.1283317  39.3000221  34.6059723   3.8818035
  40.4592018  34.8388786   2.9367933  58.8478622  49.9384537  75.7166061
  59.3914452  50.4986343  76.2706375  58.5419922  50.5169296  75.0180130
  20.1508904  62.9513702  29.2523327  20.2325535  63.6572533  28.6110096
  19.6944809  63.3517303  29.9923573  72.4375687  24.4638157  78.6361694
  72.9718323  24.8958340  77.9697113  72.5984421  24.9662819  79.4348373
  61.3259659  51.1475105  84.8319321  61.8938446  51.0167389  85.5913010
  61.9259377  51.3671341  84.1191635  43.6074715  55.2811508  27.4572487
  43.1588631  55.8257904  26.8104496  43.6012306  54.4029427  27.0765324
  71.2969513  40.6539421  43.2241325  70.3870316  40.5162315  42.9608307
  71.5217514  41.5136490  42.8683319  17.1141911  14.5096054  72.3511505
  16.5486145  15.2817621  72.3625259  16.6601028  13.8719807  72.9020309
  20.7077904  70.3816299   1.5198251  20.5261993  69.9912567   2.3747334
  20.9131203  69.6365662   0.9550602  11.4851360   6.3287683  23.7225761
  11.8712893   5.6210046  24.2385101  12.0665569   6.4195900  22.9676380
  40.7220116  52.1515617  44.4376984  40.3280640  52.4749870  43.6274948
  41.5070648  51.6841240  44.1523476  65.2265091  51.7946777  88.0829697
  65.9295883  51.5031281  88.6634140  65.3670120  52.7370453  87.9911423
  20.0755234  23.6997089  73.6238098  20.9952679  23.9592133  73.5694275
  19.6640186  24.3850651  74.1502914  82.9971008  41.2046738  72.5153198
  83.1274338  40.9355507  71.6060257  82.2493439  41.8013992  72.4836578
  50.2832794  55.9755096   5.0749102  51.0808907  56.0268097   5.6016150
  50.1252441  55.0372543   4.9703436  54.5058212  46.5248947  64.2991333
  54.0041847  47.2824440  63.9979515  54.6558838  46.0071526  63.5081558
  23.1686459  42.7426414  88.5707397  23.7603874  42.2580376  87.9952087
  23.6317329  43.5592537  88.7576218  19.7424297   6.7069736  42.3088150
  20.2793331   5.9573369  42.5657387  20.3346329   7.4567633  42.3666229
  12.9907808  35.3571587   1.4773178  12.8986969  36.3030014   1.3627092
  12.7477932  35.2017097   2.3900192  12.6960697  53.8700790   0.3169637
  13.5974140  53.7496796   0.0181075  12.7804680  54.3217049   1.1566917
  51.3703728  35.4962692  22.3692532  51.3039322  36.2624931  21.7994137
  50.9709778  35.7752037  23.1932125  15.2672100  64.6214218  29.4844856
  15.6600733  64.0995255  30.1841354  15.6947746  64.3120270  28.6859303
  44.1345482  61.4233932  64.9426346  43.4860878  61.3461456  65.6424637
  43.6438179  61.2442436  64.1405563  39.8512192  66.4231720  78.3613434
  39.0113258  66.8468475  78.5382843  40.5031700  67.1025009  78.5336838
  79.2970657  60.4795303  69.2714844  79.4112320  59.9687614  68.4700394
  78.4836884  60.9646416  69.1325073  47.9609795  56.5948792  22.3139915
  47.6931992  57.0719376  23.0994473  47.4155083  56.9574165  21.6159515
  84.5692673  60.2417564  72.3550034  84.1646652  61.0481110  72.0351334
  84.2114792  59.5548058  71.7925797  42.7083931  69.8600311  49.9626923
  41.7755699  70.0669556  49.9056816  43.0780182  70.5648575  50.4944992
  36.2461357  63.2987671   2.6403079  36.0656052  63.4156570   3.5730340
  35.6460609  63.9026146   2.2026916  28.1246433  27.6840420  76.0979614
  28.2757950  28.0379848  76.9743805  27.2868176  28.0606346  75.8287811
   1.8102415  33.0649796  43.4807930   2.3397608  33.1937675  44.2677193
   1.1334794  33.7397728  43.5344048  19.9672184   6.8379045   6.8505497
  20.7737064   6.3730850   6.6274991  20.0174313   6.9635372   7.7981396
  27.9404640  20.2949467  61.8172264  27.6723633  21.0619431  61.3111916
  28.8033714  20.5249805  62.1617661   2.1430526  68.4838486  33.8276443
   2.1721668  68.9067383  32.9694176   2.8105795  68.9384613  34.3414268
  68.7814865  59.5150833  28.5556679  68.4767380  60.0699081  27.8376617
  69.7321777  59.6265068  28.5575562   3.7441280  10.6642971  81.8361969
   3.3408275   9.9435511  81.3523560   4.1169362  10.2510014  82.6149368
   1.1296962  59.7738037   4.9826841   0.9300835  60.3580933   5.7141166
   1.9021673  59.2865791   5.2692666  84.3054886  31.6519947  52.1580086
  84.5267563  31.6755142  53.0889854  84.5966949  32.4993095  51.8211327
  82.2334900  33.3464317  72.8916092  82.7388535  33.2392960  73.6974411
  82.3891373  34.2539825  72.6301575  47.1059685  44.1522560  85.4681625
  47.3330078  44.0416222  86.3914413  46.7813110  43.2936592  85.1968002
  50.8584480  35.5471611   2.6796780  50.6435127  34.6173248   2.7534316
  51.7428703  35.6177750   3.0388966  76.5980530  26.1495361  67.0117798
  76.9312820  25.4180508  67.5315094  76.6725159  25.8525066  66.1048813
  78.2301712  18.8156185  49.9262886  79.1587753  18.6827507  50.1167641
  77.8529587  17.9361515  49.9481659  46.8765793  44.9276962   9.6493711
  46.2449646  44.7357597   8.9562197  47.6335411  45.2910080   9.1897612
  80.5378723  12.9299011  31.8082466  80.3008728  12.5324144  30.9703522
  81.4050064  13.3063755  31.6579971  35.2680817   8.7418900  86.1848984
  36.0214806   8.8626089  85.6069260  34.7274780   8.0888462  85.7404709
  39.4581909  22.0163307   2.4052112  40.3073502  21.7313747   2.0676332
  38.9110603  22.1137180   1.6258564  41.1026230   0.8122000  44.2621498
  41.8244400   0.2022909  44.1097488  40.3865356   0.2615206  44.5787010
  41.1351547  48.3342133   5.6445613  41.3774719  48.5453224   6.5461979
  41.5289421  49.0321388   5.1210494  34.3446846  36.8131065   4.5529742
  34.3927612  36.0774994   3.9423983  33.6973991  37.4030724   4.1667132
  71.8166962  18.2524643  89.1872482  71.5312195  18.2808380  88.2740555
  71.0452805  17.9560394  89.6702423  49.0933571  22.7386894  23.1319656
  48.7211151  22.2753983  23.8823185  49.4383087  22.0452976  22.5694332
  10.3978119  16.3225460   3.8196838   9.8374271  16.3448505   3.0439889
  10.5178690  15.3905125   4.0017066  18.5461063  60.4027023  40.0003433
  17.7400208  60.0977325  39.5838699  18.2565212  61.0695038  40.6230354
  50.5462761  54.1043701  77.0838394  51.0359650  53.3106613  77.2993927
  49.7692909  54.0652962  77.6415100  56.5278511  41.9986572   8.0085793
  55.7407379  41.4649734   8.1175117  56.2019310  42.8484001   7.7120271
  24.0254154   3.7644687  34.3505478  24.1888981   4.1293988  33.4808731
  23.8491268   2.8371160  34.1918907  30.7652073   1.0079861  29.4594269
  30.8111553   0.9159307  30.4110813  31.3387451   0.3188647  29.1241684
  58.3768845  11.1920948  62.4980812  58.3923302  12.0973654  62.8086891
  58.1691246  11.2620859  61.5663261  60.6329536   5.6303959  79.6088257
  59.8794479   5.9813423  80.0834808  60.6058006   6.0689735  78.7584457
  41.5013504  38.9914322  82.7115021  40.5693588  39.0537453  82.5023727
  41.5243835  38.6288109  83.5970612  44.6335754  16.7337017  76.2271881
  43.9384270  16.3926144  76.7899170  44.2178993  16.8416977  75.3717499
  23.5063953  54.4027901  20.7395287  24.0822353  54.5443687  21.4909248
  23.4420223  55.2616768  20.3219166  26.3665981   7.2204728  62.3182602
  27.1278973   7.7339635  62.0481071  26.5471764   6.9850607  63.2283173
  36.1802177  49.8671570  11.2294769  37.0740318  49.7680092  11.5573473
  36.2464905  49.6802521  10.2930441  11.0946465  67.4578934   7.9485259
  11.3496819  66.5726929   7.6885214  10.7578154  67.3583069   8.8389521
   3.5877626  36.0996361  30.4224014   3.9649880  35.8313751  29.5845642
   3.9699297  36.9606056  30.5924358  24.2951622  59.2092171  49.5892448
  24.9448318  58.5602074  49.3191605  24.5401134  59.4341393  50.4868202
  69.3974152   8.0611496  28.9481983  68.4750290   7.8218622  29.0385838
  69.7462082   7.4350729  28.3136902  33.3162918  39.3939819  67.1688995
  32.5738411  39.4007759  66.5647812  33.5219307  40.3187141  67.3060608
  64.7722549  62.7656746   2.5110862  64.2688446  62.0038452   2.7981818
  65.2832031  62.4483643   1.7664510  86.5275879  65.4485855  49.0638008
  85.9371338  66.1446457  48.7755089  87.3123627  65.5629272  48.5278091
  76.3556366  56.5039024  43.2353401  76.5483780  55.9254761  42.4974327
  75.5706177  56.9812508  42.9667969  20.8133049  36.1835976   7.9917417
  21.6465645  35.8305435   8.3036156  20.3350182  36.4089851   8.7896605
   3.9588771  46.7951355  28.4330082   3.9747822  46.1004715  29.0913544
   3.7372630  47.5859909  28.9246082  80.1156616  26.8672600  80.9551773
  80.4857941  26.2509060  81.5871124  79.1936035  26.9386234  81.2020416
  70.4437103  13.5537014  77.5502930  70.6297913  14.3166800  78.0975266
  70.1684875  12.8768454  78.1686401   8.6356773  28.5630379  67.4338455
   9.3825722  28.6614361  66.8433380   7.8754377  28.5220699  66.8536835
  69.3622437  65.2350464  10.7019873  69.8415833  65.8994217  11.1970348
  68.7089767  64.9026031  11.3175783  69.9288254  50.6681786  71.3126526
  69.8321381  49.9908371  71.9820480  70.2083435  50.1932678  70.5299835
  38.5393333  71.1301422  77.0753860  39.2875481  70.7548447  76.6111069
  38.9219246  71.5520554  77.8447037  28.0491409  37.2639885   7.4161000
  28.1614170  36.6555557   8.1464672  27.1052265  37.4175797   7.3752565
  52.8093300  13.0841169  15.2409029  51.8694916  12.9295864  15.3360806
  53.1258659  12.3332434  14.7386818  85.9888306  31.7199783  77.2833939
  85.0695724  31.9390965  77.4356689  86.0245132  31.4639091  76.3617706
  58.1550980  57.6091919  13.1218510  57.2228699  57.8259201  13.1072083
  58.2528954  57.0227242  13.8719988  33.7284126  63.4530640  87.7969284
  33.6657028  62.5867577  88.1991959  34.6678009  63.6335068  87.7620392
  39.8700027  70.0267639  48.5064812  39.8188324  69.0724564  48.5603371
  40.5085449  70.1936417  47.8131943  37.8512688  44.0795708  23.6471119
  37.0834656  44.3184814  23.1278515  38.2221298  43.3233528  23.1923237
   4.3672471   5.0374556  57.7174492   5.1609735   5.5215330  57.4896355
   4.4480972   4.2089291  57.2449646  36.1720695  34.8880959  84.9314499
  36.0792046  34.5835075  85.8341293  35.6888504  34.2461929  84.4111633
  80.7762680  46.6631432  48.9430008  81.6109619  46.2043953  48.8477783
  80.8591690  47.4310913  48.3776512  40.5228119  22.0251541  84.6277924
  40.1273651  21.9355278  85.4948730  41.1791115  21.3293571  84.5907822
  57.8277512  32.8345680   7.8045750  58.6485443  32.9003410   8.2926388
  58.0970154  32.7998695   6.8866839  56.0756264  66.0783081  20.1006737
  56.8767471  66.6017990  20.0809479  56.3280869  65.2394791  19.7148438
   2.7923028  17.4668903  73.8412628   2.6941957  17.7136383  72.9216309
   2.6193504  16.5255661  73.8564453  28.3164959  44.4898605  24.4206333
  28.7029343  44.0798302  23.6468296  28.2554646  43.7816620  25.0616970
  63.4164734  52.3715210  51.9799538  62.5908394  52.7329903  51.6576195
  64.0608521  53.0590591  51.8116989   7.3492470   0.5566862  13.3127270
   7.9471264   0.7315624  14.0394945   6.4776316   0.7100710  13.6774063
  79.3624649  64.7107697  21.2383900  79.3158035  63.8331299  21.6176090
  79.6044159  65.2760925  21.9719467  56.7612801  38.5868683   9.6126299
  57.1043625  38.6338158   8.7202616  55.8578873  38.8944550   9.5384016
   4.0095215  42.9035034  27.0824604   4.2301216  43.8260841  26.9543533
   4.8259683  42.4354897  26.9075069  83.9453430  67.6875916  61.4876175
  83.1820679  67.8479614  62.0425262  83.6284790  67.8339691  60.5963249
  13.9272928   8.4776154  62.6882248  14.1957493   8.4300165  63.6057739
  13.8104553   7.5647120  62.4251900  58.2551765  56.8397408   8.9133596
  57.3879623  57.2119331   9.0735216  58.7134628  57.5098190   8.4062128
  56.5944214  50.5897331  13.2546616  57.2634315  51.0385132  13.7716274
  55.7934265  51.0888138  13.4145107  12.9831800  59.0864449  39.6462708
  13.5596209  58.5848351  40.2227554  13.3817654  59.9557991  39.6064644
   2.5251548  48.5032005  24.3999310   2.4853415  48.2475281  23.4783669
   2.8213236  49.4132767  24.3834229  74.6015778   3.6457515  79.8908081
  75.3991470   4.0658264  80.2127762  74.3314743   4.1834078  79.1463623
  62.7368546  51.5464020   9.5454235  62.7347832  52.0946274  10.3300753
  62.3107262  50.7342987   9.8195238  39.2871819  39.0844307  40.1731873
  39.6159325  38.2530975  40.5152969  38.5834656  38.8353577  39.5740395
  19.8421402  38.5710030  21.9666538  19.0869732  38.3429489  21.4244843
  19.4714966  39.0649757  22.6979866  18.5593243  29.8597965   0.0729671
  17.6973400  29.4510441  -0.0053523  19.1756535  29.1284771   0.0336772
  61.8112679  24.2370663  73.2621155  61.3282890  24.7688808  73.8946838
  61.4162636  23.3677368  73.3289642  14.6964779  58.4592896  12.4367065
  14.3253899  58.9638329  13.1605606  15.5767670  58.8172226  12.3217831
  83.3185730  31.0330143  44.4212112  83.4972229  30.2045574  43.9762650
  83.9965668  31.6279697  44.1009254  77.3122101  39.0343933  47.9162178
  77.7969666  38.2321815  47.7220459  76.4027176  38.7492790  48.0043182
  29.0027657  39.5645332  80.2937393  29.0069580  40.5178909  80.2081680
  29.6582336  39.2646408  79.6639328  26.7234707  48.3486404  21.1562500
  25.8435383  48.1970634  21.5011806  26.5891666  48.5194817  20.2240448
  37.8850937  71.0083313  25.2582855  38.5211067  70.7514572  24.5906506
  38.0044823  71.9534454  25.3517723  33.1188202   9.7913771  12.6044846
  32.9670868   9.4182053  13.4727879  32.6981277   9.1770697  12.0029240
  69.3592987  70.9102936   0.7320583  70.2125854  71.3384323   0.8015205
  68.7735443  71.4573135   1.2554083  21.3171501  36.5746460  71.2165833
  20.6060295  36.2576027  70.6597900  21.4318447  35.8875580  71.8730774
  23.6607151  41.8318214  61.5682602  23.3684464  40.9481888  61.3446388
  24.4455643  41.6972542  62.0994263  27.5866108  49.5602760  88.1209641
  28.0050411  48.7205276  87.9312973  28.1600723  49.9732018  88.7666168
   6.3251209  71.6761932  24.4536285   6.6223292  70.7833328  24.6288490
   6.9576740  72.0196991  23.8226700   9.8396120  20.5998878  58.1717758
   9.0041103  21.0642891  58.1217918  10.1841507  20.8192501  59.0374565
  51.1043854   5.8522725   7.7098627  50.2423058   5.6619797   7.3399448
  51.6627808   6.0080385   6.9481773  73.4873352   5.1237411  50.3450470
  73.2816696   5.1247807  49.4102020  72.6669312   4.8744011  50.7704926
  65.0406647   3.7826681  18.6363373  64.5566711   4.1483030  19.3768044
  64.4059219   3.2240944  18.1876450  74.4037781  50.1821671  10.5822401
  74.4031143  50.9925690  11.0916357  75.1004562  50.3051414   9.9374514
  83.4366455  42.7178688  66.6737595  82.9890671  43.5243263  66.9297409
  83.6273499  42.2766724  67.5015335  27.8343945   9.5310745  86.6585541
  28.7153816   9.8609447  86.4816895  27.8647919   9.2442379  87.5712585
  47.6460724  28.6473351  36.5495071  46.8378677  29.1585178  36.5910988
  47.3521614  27.7370853  36.5135117  14.8343954  26.4770851  77.5473099
  14.3326664  25.6647797  77.6155777  14.5495834  26.8657303  76.7202301
  81.2044525  10.8959608  51.4382477  81.3218002   9.9471302  51.4849739
  80.3007355  11.0396471  51.7190933  34.6200562  66.9649277  19.9169197
  34.3881836  67.8815308  20.0662594  33.9394875  66.4685745  20.3715515
   8.2561035  56.4122162  20.7655277   8.9552698  56.7979393  21.2933693
   8.1156864  57.0410538  20.0576572  23.1558533  67.6827927  76.4850006
  23.5476131  68.0945206  77.2552185  22.2136669  67.7109833  76.6515045
  54.7247543  11.9060907  87.5395660  53.9955902  11.3447180  87.2761078
  55.1733627  11.4103146  88.2245407  53.1917076  23.8999538  34.4943542
  53.8725357  23.4604168  33.9849319  53.1276360  23.3879280  35.3005524
  21.8189545  70.5125275  26.3873596  21.2391777  70.4510498  27.1465111
  21.5557785  69.7837448  25.8253555  44.0958328  51.6875420  16.7986183
  45.0509605  51.6247597  16.7941303  43.7968521  50.7836533  16.8977680
   7.8104439  35.2272758  58.0015869   8.7198210  34.9287338  57.9898224
   7.2965312  34.4258842  58.1010475  76.9094086   9.4233236  44.7582703
  76.0986023   9.3499851  44.2548332  76.7523422  10.1503916  45.3607101
  32.0558167  68.0657578  88.9394150  31.8123627  67.2330627  88.5349579
  32.0364838  68.6963730  88.2195663  79.0466385  45.4241791  51.6587181
  78.9299774  44.7507439  50.9885635  79.5267563  46.1232071  51.2147865
  62.5817947  56.3991356  13.9557762  61.9800758  55.6551437  13.9811144
  62.1791458  57.0119858  13.3405390  75.3415146  51.1918144  67.9277191
  75.9662399  51.9000359  68.0838394  74.4830856  51.6074257  68.0089493
  56.1324425  13.6174603  82.6277390  55.4223022  13.0202475  82.8628387
  56.8786011  13.3187275  83.1475830  33.2942162   8.5183249  41.2374153
  33.1849480   9.4377594  41.4801712  32.5115433   8.0858059  41.5788574
  41.5624313  44.6470070  72.1014099  42.1011124  44.0881882  72.6615677
  42.0643311  45.4578285  72.0183563  58.0077171  49.1183128  35.4975433
  57.0687828  49.1111603  35.6835098  58.0901489  48.6565514  34.6631508
   2.7612557   6.1959767  59.6242027   3.3378606   5.6997228  59.0432625
   2.6001594   7.0163798  59.1581345  13.5695343  53.3676605  85.8025360
  12.8950844  53.9194794  86.1985779  13.0872707  52.6280594  85.4328842
  65.5904312  18.8891048   6.3597894  64.8890228  19.1323738   5.7555718
  65.1376801  18.5010357   7.1085558  39.2590485  21.1297569  64.5303345
  39.0933838  20.6284580  63.7319069  38.3999596  21.4673710  64.7837524
  68.1089630  -0.1252467  71.0696030  67.6712036   0.7224060  71.1475983
  67.7637177  -0.4994314  70.2590332   0.9885212  42.4448090  17.7683773
   0.4218227  42.3822441  16.9995003   0.3846037  42.4534378  18.5109673
  56.2708664  40.0729790  82.6971970  56.7615089  40.7242966  83.1984787
  55.7671661  40.5864792  82.0656586  18.2399254   7.2723308  58.9576492
  17.8681583   8.1107950  59.2315102  19.1866684   7.3972306  59.0233154
  50.1744652  44.5859833  11.6516924  50.5652924  44.4475632  10.7889481
  50.3560104  45.5041389  11.8523569  28.4895229  68.8453903  14.3943224
  28.2840919  67.9230423  14.5469522  27.8894176  69.1123886  13.6980343
  14.9580450  23.6861839   8.7943792  14.2005157  23.8368492   8.2289762
  14.8086519  22.8179493   9.1686563  54.1152725  64.8316498  72.6477966
  53.2936974  65.2810974  72.8458786  53.9087410  63.9018974  72.7433777
  34.3878136  32.8707428  74.7498245  34.7385521  33.0284996  75.6263733
  33.6935730  33.5219498  74.6488724   9.9583273  58.6573257  18.5598545
   9.0406246  58.4618340  18.3705482  10.4036932  57.8135147  18.4832802
   5.9993486   9.2291670  28.5753212   5.5295382   8.7555857  27.8888588
   6.2467246  10.0590439  28.1674728   0.3311631  27.5630074  82.9821930
   0.9617569  26.8439465  82.9430084   0.3525903  27.9483700  82.1062546
  37.7335472  50.6888199   1.8123925  38.1532173  49.8373833   1.6892769
  37.2114029  50.5856819   2.6079810  60.8160095  47.0475349  46.6157074
  59.9803848  46.7604065  46.9838486  60.9966927  47.8799706  47.0523300
   7.5239801   1.3468033  62.1402130   8.0912981   1.6661550  61.4385033
   8.0183582   1.5138632  62.9426537  83.8291931  43.9912071  45.8566513
  84.4656830  43.3002052  46.0400200  83.8965225  44.5837021  46.6054153
  48.4224167   8.7035933  64.2599411  48.4287605   7.9840741  63.6286888
  47.5129433   9.0017328  64.2741623  80.7733002   1.3381819  83.7252808
  80.9639816   2.0580928  83.1239471  79.8273163   1.3857003  83.8634491
  37.0921631  54.4929771  28.7586670  36.2341156  54.6420860  28.3614788
  37.2077904  53.5432358  28.7295341  45.5612526  17.9261360   4.8929915
  46.4902191  18.1091137   4.7523856  45.2158165  18.7281647   5.2849789
  38.2833900  68.7143326  69.5684433  37.4947052  69.0442657  69.9989700
  38.5458755  67.9594803  70.0952530  80.5087204  12.9178686  74.7627945
  79.8051147  12.2973404  74.5727463  80.4668884  13.0444565  75.7106628
  61.7174721  10.3189039  60.0663528  61.9858551  10.4891891  60.9692383
  62.1866875  10.9737892  59.5494461  26.7580585  46.8032684  74.3312836
  26.9801140  46.5409546  73.4379044  27.3619022  47.5195274  74.5276871
  85.1767349  48.2168388   5.4193501  85.4463348  47.2989998   5.4526930
  85.0670166  48.4005013   4.4863644  73.9646759   2.4297116  42.1117668
  74.1037979   3.2108085  41.5762634  74.8024826   2.2894542  42.5529594
  21.4609547  16.3929157   3.8023932  22.0516071  15.7388458   3.4288280
  21.6040726  17.1761360   3.2710600   3.6308310  11.6520233  42.4769325
   2.9951746  11.9173632  41.8122749   3.1959512  11.8333187  43.3101425
  37.5026703  67.7361832  48.8317490  37.4250641  67.9429779  49.7631111
  38.4066353  67.4394150  48.7268105  62.1873207   7.9740419   5.3568254
  62.1021690   8.9139328   5.5167804  62.3386040   7.5963712   6.2232614
  65.9552231  37.3443947  44.4981613  66.6578903  37.9134636  44.1840782
  65.9744797  36.5916061  43.9072533  35.1423912  60.6529007   5.3741727
  34.9740067  59.9204445   5.9669495  35.1933632  61.4179344   5.9471984
  62.9319191  71.1737366   4.2927623  62.6450424  71.9985046   3.9007289
  63.6813240  71.4151764   4.8371239  43.4955215  26.3755760  87.1148376
  43.6260757  26.1146240  86.2031937  42.5501175  26.3102036  87.2496414
  50.1581879   4.3096948  56.1393814  49.3852882   4.3164077  56.7040215
  50.5394897   3.4408424  56.2656212  19.9141312  32.0664558  30.6125069
  19.8374214  32.1251907  31.5648193  20.1329746  32.9558792  30.3345394
  49.4760628  62.1060677   7.4920058  50.4237251  62.1498451   7.6195092
  49.3390846  62.4286613   6.6012759  24.0966167  65.2477875   6.9076929
  23.2907715  64.7529602   7.0559940  24.6890240  64.6216125   6.4915237
  42.5214043  28.2604504  13.1268082  42.5271950  27.3781624  12.7556391
  41.7187004  28.6573181  12.7885866   2.3298857   0.4678394  86.7515869
   2.6066267   1.1086285  87.4065933   2.1649017  -0.3308737  87.2526550
  47.1583977  41.8770409  83.9771271  47.0415840  41.5221291  83.0958633
  47.4038734  42.7914734  83.8364716  17.9061260  59.3596420  45.1377068
  18.3053398  59.8249168  45.8728104  16.9646969  59.4831009  45.2589531
  47.4222679  71.6142502  11.9391975  46.9938469  71.8008194  11.1038065
  47.0222702  70.7969360  12.2362385  67.5956802  67.5969467   1.5605941
  68.1726608  67.4404373   2.3081415  67.0403366  68.3265839   1.8353049
  68.6569138  15.5427589  33.2551346  69.0722427  15.2069950  34.0494843
  68.7734680  16.4914436  33.3065758  44.3446999  18.1460781  11.5881023
  43.7340965  18.8814087  11.5363073  44.8086205  18.2777691  12.4149446
  30.6742783   5.2601714  71.4699783  29.9949493   5.7651243  71.9169312
  31.4971542   5.6251426  71.7954025  59.0757904  70.6212616  66.1100006
  58.2234840  70.2761917  66.3759537  59.3317947  70.0785522  65.3642349
  84.8583679  47.8690872  56.2060318  84.9087067  47.9955711  55.2585602
  85.6541519  47.3845749  56.4256020  60.8765373  40.8507690   5.6389217
  61.5475273  41.5322800   5.5995612  60.1308899  41.2731361   6.0653539
  45.5641403  65.4341660  15.9184284  46.1776962  64.8388748  16.3490257
  45.5602646  66.2153778  16.4715328  10.2302141   3.5010290  18.7687702
  10.1631212   2.5467386  18.8013287  10.6622124   3.7388885  19.5891552
  58.7639198  51.8123817  53.6199455  58.8944359  52.2665787  52.7875366
  59.6481743  51.5970497  53.9165192  50.3162575   4.3775835   5.1058106
  51.1783638   3.9629750   5.1390433  50.4419632   5.1474576   4.5510817
  57.6955948  41.8370743  87.0282211  58.3587914  42.4813080  86.7805099
  58.1788712  41.0147972  87.1090851  68.2814102  56.6948357   2.0596466
  68.3748169  57.6008110   2.3541150  67.7662430  56.2716522   2.7464867
  66.6516266  29.5413437  62.1535301  66.1966400  29.9758453  62.8749390
  66.6065292  30.1669636  61.4304848  50.6398010  28.0629311  21.1651459
  51.4400139  27.5376759  21.1651516  49.9770164  27.4896774  21.5502834
  56.2444038  65.9009476  56.6741257  56.0795364  65.9357681  55.7318726
  56.4916916  66.7957916  56.9072342  52.1808701  71.0764465  62.3516808
  52.5266151  71.9467697  62.5497398  52.4585915  70.9075851  61.4513512
  57.9684143   8.7981672  17.4916821  57.5238304   8.2974310  18.1756725
  57.6092873   8.4563990  16.6728706  36.4411201  37.2322006  73.0273972
  36.6726532  37.0993385  73.9466248  36.9416466  36.5664635  72.5556946
  12.8211651   8.1619759  13.2248383  11.9820127   7.8000097  12.9401703
  13.3454914   8.2085342  12.4253721  31.2883034   8.0831642  88.0645218
  31.0770092   9.0164528  88.0881729  30.4796314   7.6618128  87.7734146
   0.7069599  66.1419296  28.9312782  -0.2496066  66.1510162  28.8976669
   0.9498613  67.0547562  29.0860996  47.1001854  51.9964943  17.4022999
  47.3425980  52.8541412  17.0531425  47.9339752  51.5411644  17.5193539
  37.0649261  31.9127884  13.8089151  37.3261375  32.8079491  14.0249920
  37.6537056  31.6561832  13.0991802  85.2990189  20.2016411  34.9120865
  85.7806320  20.3852234  34.1055031  84.4273300  20.5661945  34.7588120
   7.2484126  32.5117149  10.8219929   7.6461711  33.3791618  10.8964996
   7.0311317  32.4267883   9.8936558  19.8235912   5.5688405  87.9906540
  20.6883183   5.2548203  88.2549820  19.6512337   5.1252112  87.1601639
   7.5838609  38.8891258  16.4735260   7.0485544  39.6794891  16.5442677
   6.9648347  38.1690216  16.5938892  70.0188217  40.6443443  62.0861130
  69.3173904  40.0711365  62.3954010  69.5656357  41.4177818  61.7504845
  63.3649063  52.0550270  82.7264709  64.2733231  51.9809570  82.4340363
  63.2779274  52.9652138  83.0097198  63.0334473  38.0138474  43.7229424
  62.6762047  38.2542953  42.8680763  62.5699615  38.5766907  44.3431206
  47.5622139  61.0324478  45.8521767  47.4760475  61.9213905  46.1965485
  46.7084084  60.6300964  46.0114212   4.7363496  11.3984327  79.3341293
   4.3070898  11.5319538  80.1791992   5.6668725  11.3268480  79.5468140
  38.6893959  32.1063271   2.6873171  37.9958534  31.7505379   3.2428758
  39.4235153  31.5034618   2.8050168   2.7954402  70.2016068  14.2839975
   3.4097397  70.3896332  13.5744114   2.2434449  69.4979782  13.9427671
  83.8801041   7.6683621  69.1151428  83.7676773   8.5579605  68.7801666
  83.1598282   7.1728597  68.7253723  66.2748413  51.1464539  62.7304535
  66.9025269  50.9317703  63.4204865  66.3924866  50.4572144  62.0767441
  52.1470375   2.1302226  59.0920258  52.7111588   2.5374691  59.7494087
  51.2965622   2.5529814  59.2112007   4.1147919  39.8583183  28.8407040
   3.2698841  40.2881889  28.9732742   4.1981893  39.2599411  29.5831451
  61.6745682  47.6364059  24.8472652  61.6916389  46.7530556  25.2155418
  61.8340836  47.5091324  23.9120712  11.5963926  37.6723099  57.8573036
  11.7914257  36.8211555  57.4652214  11.7897940  37.5573959  58.7876930
  43.8895302  53.0830269  25.9088268  44.7555161  53.1329002  25.5040855
  43.6320953  52.1662483  25.8114853  71.4700699  32.6288948  48.7514839
  71.8471756  32.3399887  49.5824814  71.9799728  32.1692772  48.0844116
  59.3424454  67.0722122  16.0708923  60.1004791  67.1086731  15.4875546
  59.6812477  67.3510361  16.9216003  58.9481659  34.9965782  42.9326668
  59.7392464  34.4585724  42.9015083  58.9368019  35.4546661  42.0922775
   0.5229688  65.8070602  10.0741253   1.1453084  66.2904739   9.5307674
   0.9787300  65.6816101  10.9064560  64.0087357  41.6373291  45.2820740
  64.2825241  42.4592743  45.6891174  63.1220818  41.4905891  45.6115341
  65.5420151  55.3737068  45.3298531  66.3802261  55.5016556  45.7739830
  65.6537781  55.7997017  44.4799881  32.0269966  55.5713692  19.6232319
  31.7357521  54.6604271  19.5833435  32.7850571  55.5550957  20.2074528
  52.6469040  51.7974968  60.6343689  52.5518723  52.0966110  59.7300835
  52.5709343  50.8448219  60.5807610  51.7873116  59.0073204  16.8903465
  52.7059441  58.7634163  16.7769585  51.5189629  59.3355522  16.0321598
  32.3047066  54.0075912  43.2437477  31.8072968  54.1783485  44.0435333
  32.5619507  54.8752174  42.9318390   9.3446045  23.7356129  28.8765221
   9.6190138  24.3265438  29.5777588  10.0551081  23.7772541  28.2364578
  61.8072739  41.5480614  75.4907455  62.7473183  41.6684990  75.3564377
  61.5284691  42.3376961  75.9544067  33.1924095  48.6612206  64.0454559
  33.1786957  49.5631027  64.3658524  33.9862785  48.2843094  64.4248505
  74.0389328  51.0912819  57.0174370  73.5764618  50.8972206  56.2021484
  73.9846954  50.2799950  57.5225143  40.8192444  53.6083031  62.6371765
  41.1650085  52.7386894  62.4360657  41.3338127  53.9027405  63.3886795
  48.7489166   1.6397527  45.1000862  48.7705994   2.5785089  44.9143486
  47.9119186   1.5026562  45.5437889  75.6167526   0.2908824  42.9884872
  76.1998444  -0.3301680  43.4249916  76.0341721   1.1425664  43.1174316
  42.8288460  51.8527145  66.1481705  42.5382538  50.9894600  65.8539276
  43.6216965  52.0245590  65.6401443  24.5969734  68.9537964  27.9221916
  24.6249046  69.5215912  27.1520863  24.3807087  69.5419922  28.6457176
  44.1091614  40.0060425  52.3133087  43.7184334  39.3348923  52.8728828
  44.5458183  39.5138130  51.6181297  29.4746685  36.3729820  81.9720154
  30.0191517  37.1056404  82.2600861  30.0336742  35.8811493  81.3704758
  48.3320160  41.6368828  49.1062469  48.1691322  40.7167473  48.8987541
  49.1773529  41.8280258  48.6999168   1.5967126  24.9697094  11.9775496
   2.2386909  25.3514576  11.3789148   1.5962681  25.5561829  12.7340403
  85.0759735  55.2472878  42.2140160  85.0385284  54.4576569  42.7537498
  85.8738327  55.6936340  42.4976044   9.9468288  34.7728310  63.2728004
   9.7264671  35.4810829  63.8778229  10.1415110  35.2154045  62.4466896
  52.8481636  28.4724884  10.8587551  52.4847183  29.3534908  10.7694626
  53.7750511  28.5726414  10.6417694  26.6358624   7.9582667  58.3706589
  26.6977291   7.5843396  57.4916916  26.7416153   7.2094750  58.9574814
   9.3139858  52.4479828  65.1393890   8.4582262  52.0789871  65.3579025
   9.3906679  53.2219048  65.6974182  49.0826492  39.3779793  16.7688408
  48.8437653  40.2298546  17.1341839  49.7460289  39.5781021  16.1084538
  83.5425415  25.6882572  88.6615143  84.4867172  25.5672455  88.5609131
  83.4249725  25.8945465  89.5887985  30.5220604  15.5631361  76.2178726
  30.3821144  16.4672756  75.9364853  29.9325867  15.4503984  76.9635544
  85.5582581   1.4068062  33.5262909  84.8770065   1.9079514  33.9746017
  86.1462326   2.0707629  33.1661835  24.5876999  59.4861298  82.4540405
  24.7565517  60.4246674  82.5368958  24.7248020  59.1393623  83.3356171
  54.0257454  20.0310650  19.7655067  53.4355583  19.3912125  20.1636238
  54.5362396  19.5251427  19.1333122  84.5485306  49.0225410  32.6624527
  85.2930145  48.6231766  32.2124672  84.1284943  49.5653572  31.9952564
  37.6649475  36.2747726  17.8277378  36.8433762  35.7901878  17.7475414
  38.3449402  35.6026993  17.7812977  75.6980362  56.6679573  36.9914131
  76.4869385  57.2090797  37.0237846  75.0742188  57.1842804  36.4810333
  39.8516045  54.6994362  84.2750168  39.4690285  53.8359222  84.1194229
  40.3929825  54.8641853  83.5030060  54.9308548   0.3089641  88.2710571
  54.4814720   0.8388253  87.6126251  54.3849945  -0.4718927  88.3634262
  77.3202209  41.2335625   1.5193673  78.2337265  41.1764145   1.7994938
  77.0110397  40.3276863   1.5243767  70.8213806  18.9914207  51.9081154
  71.3912582  18.3406296  52.3179207  70.6018448  18.6148396  51.0559311
  46.7031021  64.3900604  42.0269814  47.4818878  64.9115753  42.2212677
  46.6533775  64.3808136  41.0711212  71.7025299  62.4190941  39.8599739
  70.9906387  62.0505371  40.3830528  72.0669556  63.1144562  40.4076004
  28.0407867   3.3758202   3.2110288  28.7711163   3.5630460   3.8007722
  27.4937725   4.1603184   3.2506428  35.9803162   7.5503716  64.8311310
  35.1850510   7.0954099  64.5540161  35.6677361   8.2550879  65.3984909
  46.0007706  33.1525955  83.5095444  46.8272324  33.6057587  83.3427048
  46.0905876  32.3153229  83.0544205  37.6864586  22.0126743   0.4578798
  37.5188408  21.2195053  -0.0510592  36.8200302  22.3942719   0.5989943
  51.8889236  66.4520493   7.0651450  51.6988678  66.9340820   7.8699789
  51.0338097  66.3258743   6.6539330  73.2200089  36.7131500   2.9465506
  72.5680695  37.3994331   2.8043358  73.3414078  36.3157196   2.0842607
  13.7931690  62.7039680  38.6067848  13.5575657  62.2721939  37.7856331
  14.5028849  63.3004951  38.3686829  30.3688164  12.0757885  60.5259132
  29.9755421  11.4809189  59.8874016  29.6882191  12.2013779  61.1871605
  32.8228645  45.5857468  31.5490265  32.1301498  46.0728912  31.1028557
  32.8736992  45.9834785  32.4181976  18.7334099  11.6321821  63.0745811
  18.2736855  10.7926273  63.0803261  18.0359020  12.2873478  63.0962601
  21.3417015  10.7692175  11.1725740  20.5215111  10.3733444  11.4671974
  22.0225906  10.1820221  11.5009384  67.7078476  24.5940819  10.9702539
  67.1711121  24.4365501  10.1935120  67.2234650  24.1795025  11.6842070
  61.7466278  19.1418724  33.1558685  61.2281342  18.6862793  33.8190689
  61.2558556  19.9441185  32.9776077  41.1457367  64.8049316  74.0790482
  41.0991592  64.1281509  73.4037552  40.3232880  64.7192078  74.5611954
  55.0128288  19.8358879  15.9032192  55.7270813  20.2444878  15.4142160
  55.3893356  19.6447163  16.7622471  61.7336540  56.3057404  40.2101135
  61.2696266  56.0989647  41.0213814  61.0405159  56.4169807  39.5594101
  24.4559956  21.6639462  77.5815506  23.9699821  21.6144543  78.4046936
  23.8007298  21.4904461  76.9057083  68.6683960  28.8578033  43.0799637
  69.3133469  29.4513493  42.6952934  68.2400284  29.3777237  43.7599792
  78.1168900  49.3749542  40.9924507  78.7293854  48.9530563  41.5950165
  78.6756973  49.8066483  40.3462257  31.0699596  66.3382034  77.2118530
  31.0548573  65.3836441  77.2812119  30.6988983  66.6443787  78.0393829
   8.6518202  47.1393013  12.0309019   9.1739388  47.5784111  11.3594799
   8.4799929  47.8186111  12.6830082  43.8762665  40.4085808  82.4143524
  43.4440956  39.5715866  82.5843506  43.2065773  40.9411163  81.9852219
   1.4779289  10.7167091  74.8176117   2.0943906   9.9908609  74.9143219
   1.8891647  11.2964010  74.1764603  69.1878204  35.6837463  49.8940163
  70.0468369  36.0787086  50.0434303  69.1740189  34.9167366  50.4665031
  71.9510880   0.4265727   0.8765558  72.6987000   0.0050293   0.4527533
  72.2601700   0.6314000   1.7590214   4.9922972  31.7898712  43.4455872
   5.9418082  31.9053555  43.4092026   4.6530981  32.6598625  43.6560478
  32.5021210  70.8760834  17.7050800  32.7360191  71.2051086  16.8371716
  31.5551586  70.7427979  17.6635017  11.1436300  53.0725822  54.7638626
  11.6892872  52.8961029  53.9974785  11.7188311  53.5484505  55.3629646
  18.1360226  58.8191681  70.1892700  18.7081528  59.1872177  70.8626480
  18.5573711  57.9964943  69.9404602   3.0651021  29.9223175   0.2960650
   2.3202686  29.5454998  -0.1724048   2.7292707  30.1030712   1.1740041
  85.2591095  11.0918760  21.1973915  84.9055481  11.3415833  20.3436527
  85.1816025  10.1380653  21.2190533  24.3019218  69.1586151  73.3488083
  25.0450535  69.7291946  73.1527786  23.8029232  69.6347427  74.0125351
  51.4690819   7.0392709  46.5558815  51.0636406   7.8356047  46.8989601
  50.8323517   6.6976638  45.9280968  46.1594620  38.3885689   9.9717283
  46.6645432  37.6743622   9.5830956  46.5628471  38.5286865  10.8283968
  57.3145866  48.2537804  62.1791649  57.4764481  47.3441010  62.4291916
  57.2717056  48.7266159  63.0103226  33.9759903   4.3186474  59.2706375
  33.0436325   4.3291054  59.4870453  34.2935104   3.4857533  59.6194878
  60.2096634   4.2361007  50.5069504  60.8901176   3.5751967  50.3788261
  59.4753342   3.9301341  49.9746170  24.9174957  64.4903946   3.7415874
  25.2513962  63.9264717   4.4392500  24.1740475  64.0084839   3.3792601
  24.2558823  35.7656441  65.1610107  24.0742550  35.1259651  64.4724960
  25.0525665  35.4437981  65.5828476  84.7166443  19.5610733  62.6095657
  85.4181671  18.9383717  62.4189377  85.0572586  20.4043503  62.3110733
  77.6766815  26.5592365   1.8608018  77.8682938  25.6228809   1.8083016
  78.5367279  26.9788971   1.8818066  49.6251526  15.4352951  64.1833115
  50.0059166  14.6377316  63.8156891  49.4884949  16.0060463  63.4271355
  56.4932861  23.7650890  12.1662655  57.0034065  24.5359001  12.4149761
  56.6091423  23.6967754  11.2185612   2.6589534  12.9632521   3.7501974
   2.4722526  12.1871452   3.2219625   2.8071873  12.6225777   4.6323533
  54.4521179  66.4772339  25.9328327  53.8775482  67.1460114  26.3054523
  53.8573074  65.7876434  25.6380615   2.9238861  29.2270699  70.1008530
   3.2112355  28.7220364  70.8615112   2.8154488  30.1184940  70.4322739
  60.1506195  30.4630623  49.4968834  59.2971687  30.8325729  49.2703552
  60.5999069  31.1670647  49.9645958  57.8927994  58.7336197  30.6139507
  58.2466278  57.8488121  30.7042618  57.9692841  59.1126862  31.4895592
  76.2487869  65.9546051  62.0007858  75.8556213  65.1045609  62.1984406
  76.1962585  66.0270081  61.0477753   7.4506354  21.6540642  18.2466812
   6.7529383  21.1185131  18.6243534   7.3644810  21.5280113  17.3017368
  56.5551529  22.9559269  81.7913132  57.0125694  23.5992527  82.3327332
  56.4617081  23.3827515  80.9396515  71.2706451  49.7914352   6.9009409
  71.3192749  48.9425278   6.4613657  70.4759140  49.7409668   7.4320488
  67.5853424   8.4844275   6.3102865  66.7601471   8.9681005   6.3469715
  67.6172180   8.0021410   7.1364923  16.2269955   6.0019426  65.0656433
  16.7474270   6.4509625  65.7318039  16.3788795   6.5035877  64.2647018
  23.9135208  70.2235413   4.8981285  24.6192951  70.8652954   4.9772902
  23.9061699  69.7703857   5.7412343   9.1259089   5.1494441  62.1465530
   8.2619982   5.5319653  62.3000717   9.2032337   4.4600449  62.8060837
   7.1955791  11.6739311  65.2988358   7.7339144  12.1734686  65.9127502
   7.7740030  11.5058899  64.5549164  18.2585335  69.0752869   7.1636801
  19.1724205  69.2942276   7.3456206  17.9003277  69.8631363   6.7547617
  27.6206226  51.8112488   2.6210227  27.3087597  51.0545807   3.1174383
  28.4531403  51.5247231   2.2454598   3.9712443  67.0837402  13.3205853
   4.2805071  66.8012466  12.4598980   3.1164269  67.4792404  13.1499891
  11.8781891   9.1896391  60.3011742  11.1922493   8.5978270  60.6101685
  12.6097813   9.0419979  60.9005127  72.9608688   6.4313354  84.2332458
  73.4055023   5.7011981  84.6638641  73.6616592   6.9127431  83.7935104
   3.8447123  27.6195011   4.0523477   3.7161384  28.2101879   4.7945004
   3.6344984  26.7518368   4.3975992  62.3528252  18.2237225  55.1251678
  62.1892700  17.9917259  56.0393105  63.0208817  18.9079266  55.1675415
  31.0296650  29.5486031   0.5257128  30.2440701  29.4297886  -0.0081006
  31.6180458  30.0645123  -0.0255382  24.1545563   6.6966090   8.1639643
  23.6081181   7.4678903   8.3148432  24.7266693   6.6547952   8.9302340
   3.6980836  17.2065525   9.9587975   4.6387482  17.3814163   9.9871540
   3.3234146  17.8063679  10.6038370  67.1230698  34.1851692  38.3804016
  67.6800232  33.4676018  38.0785217  66.2319641  33.8949814  38.1855698
  69.2838135   2.5741429  34.8202248  69.9046402   3.2309849  34.5049934
  68.5779877   3.0834086  35.2185822  16.1933956  26.7542934  69.7371063
  16.4591961  26.0713367  69.1213531  15.8013325  27.4328861  69.1875305
  30.5195770  28.6565781  12.7433558  30.2621555  28.1179790  11.9951057
  30.9965076  28.0570431  13.3172255   8.6246929  10.4533300  63.2722435
   8.0235586   9.7720137  62.9711189   8.8786068  10.9181786  62.4749527
  35.6912804  49.7104454  88.2197723  35.2737122  50.0164528  87.4146423
  34.9642143  49.5559044  88.8228683  48.7499924  24.5866604   0.6376804
  48.6159286  25.4556446   0.2593639  47.8659363  24.2479553   0.7789629
  46.8537636  23.6481190  11.1352358  46.3791466  22.9507561  11.5876226
  47.2452507  24.1664963  11.8382683  68.6349945  23.8660564  50.9960899
  67.8137970  23.3745708  50.9786034  69.3163452  23.1960964  50.9399223
  47.8373146   3.8171794   9.3982573  47.9940033   4.5890737   8.8543282
  48.1713409   4.0607271  10.2615900  43.8176918  17.6131783  88.7710724
  44.1102638  18.1273937  89.5235443  44.5278168  17.6948700  88.1344528
  10.2732658  30.3411255   3.2278476  10.5448055  31.2442265   3.3918786
   9.6183472  30.1616516   3.9024603  60.6004562  44.6161385  59.4987526
  59.9270325  44.0193787  59.8252640  60.3671417  44.7619896  58.5819550
  82.3886795  26.7833195  84.1037827  82.1847229  25.8621063  83.9425430
  83.0427399  27.0034790  83.4404755  41.0537148   1.7448277  20.3247280
  40.1712227   1.8513222  19.9696217  41.0600014   2.2831826  21.1161613
  50.2647247  57.3984299  20.8209953  49.3383179  57.3391457  21.0544186
  50.6576042  57.9102173  21.5280704   3.9740357  42.4869614  65.8262405
   3.7777822  42.5332603  64.8905258   3.2807364  42.9995003  66.2420197
  65.1800308   7.5536199  66.4420624  65.5428696   8.2938757  65.9556503
  64.2349319   7.6164174  66.3039703  81.1225967   4.4261279  83.7927017
  80.8192596   4.0386791  82.9716644  81.8787003   4.9569240  83.5421066
  55.6566124  54.5979691  11.8255434  56.4730911  54.7610168  11.3533001
  55.0834999  55.3206711  11.5696659   0.7789773  63.9057961  42.3321457
   0.0666143  63.2939415  42.1466484   0.4548537  64.7516479  42.0227890
  21.0020065  37.9034615  19.2837715  21.6979923  38.5454483  19.4240685
  20.4866714  37.9288368  20.0900078  19.6169376  30.3486633  61.7232742
  18.9267063  30.5209904  62.3636780  19.5494328  29.4106503  61.5449371
  80.2244873  17.4622250   9.5639544  80.8079300  16.7070694   9.4893026
  79.4478378  17.2154083   9.0618343  45.0418053   6.4689422  28.5637970
  44.8574638   5.5705233  28.2897644  44.2551117   6.7414832  29.0360947
  46.0288963  68.4637833  56.9589310  45.6856651  68.2105560  56.1020164
  46.2382927  67.6340485  57.3877983  10.2263985  13.5758505  49.1067276
   9.9444990  13.1775026  49.9301872   9.7108116  14.3796120  49.0406303
  39.5046959  10.1560888  16.3602352  39.6652985  10.7671299  17.0793095
  39.1334457  10.6978922  15.6639204  10.9445324  18.9712353  15.1778927
  11.1987934  18.2577763  14.5926085  11.1468544  18.6452713  16.0548439
  16.4364738  39.2957344   6.1595974  15.8360586  39.6610832   6.8094072
  16.0998878  38.4157524   5.9905491   2.3355064  20.6390495  66.7394867
   2.9668765  20.1169415  66.2445068   2.3385901  21.4925957  66.3062668
  76.1993408  71.6376953  11.5129347  76.0149155  70.7569656  11.1865377
  76.9097977  71.9556961  10.9558411  85.3647919  52.5362625  65.2311478
  85.3536758  52.8706818  66.1279602  84.7656860  51.7898903  65.2464066
  77.1069489  51.3068123  37.7167130  76.2378540  50.9372673  37.8727417
  77.2260818  51.9442863  38.4207497  54.6283684   5.3306890  55.6563568
  54.6870499   6.0941420  56.2307510  55.2346649   5.5221305  54.9408264
  60.0339432  21.6415157  69.8847504  60.4066505  22.5105171  70.0336075
  60.0512886  21.5331402  68.9338608  85.4820557  59.1434402  50.6458511
  84.6262817  59.2976761  50.2457428  85.8440475  58.4029541  50.1591530
  32.1520081  24.6521778  86.3570099  32.8123741  23.9899578  86.1530075
  32.6221657  25.4841423  86.3020630  20.3069000  28.0643368  87.0279007
  20.0843201  28.9143028  86.6481018  21.1855564  27.8770847  86.6975479
  37.8712158   8.3301287  33.4959106  37.8631210   9.2069702  33.8797264
  37.8604774   8.4822111  32.5509300   9.5865278  52.5582504  77.9335861
  10.1703796  51.8020935  77.8737869   9.7636395  53.0610619  77.1385727
  84.2115326  28.4955425   9.8444490  84.3275299  29.4456425   9.8538647
  85.0906754  28.1484013   9.6933584  51.8123856  12.9418488  71.3474731
  51.2063179  13.4515123  70.8097382  52.4744225  12.6288919  70.7310410
   7.7902083  33.0453110  89.1813583   8.3860655  32.6981697  88.5175247
   6.9654927  33.1818428  88.7150574  12.3636799  38.2540550  79.3127975
  12.6360722  37.5639420  78.7080002  12.9750528  38.9719162  79.1480942
  26.8867912  70.7281494   7.1706519  26.3325539  69.9564896   7.2872601
  26.5580063  71.1407013   6.3719459  73.2720413  44.2398529  18.1099358
  73.1992035  45.1860619  17.9849510  72.5349197  43.8760376  17.6195068
  79.8889923   6.8964124  44.6986809  80.1952972   7.2067890  45.5507812
  79.1627274   6.3080254  44.9050140  62.8626022  12.0586367  39.1708031
  63.7792397  11.9877758  39.4372406  62.8370399  12.8289289  38.6031532
  84.0532303  67.0298157  83.8056412  84.9515991  66.7008286  83.7750015
  84.0644913  67.8091965  83.2500610   1.7878301  33.3119354  25.9353600
   2.6097870  33.1044655  25.4908657   1.9536457  34.1503296  26.3664398
  85.0969086  66.5844727  33.2626724  85.5164642  67.0174103  34.0061493
  85.3431549  65.6637573  33.3514977  26.5863800  40.5526962   5.8284664
  26.3368664  41.4329338   5.5471106  26.4921017  40.5699387   6.7808561
   5.9810419   3.5788262  61.2287064   6.1178131   2.6545727  61.4367485
   5.3602114   3.8839252  61.8903084   5.5182176  42.0638504  19.8741436
   5.8074102  42.8414078  19.3966446   5.0007663  41.5705719  19.2376289
  58.3151817  29.5942707  72.1322784  58.1767769  28.9915791  72.8629227
  58.7241554  30.3629017  72.5299988   5.7553535  40.0390472  46.3402977
   6.6958432  39.9941902  46.5126343   5.6900692  40.4245911  45.4666138
  43.7623215  54.8262367   0.8587388  44.4483070  55.0035057   0.2151315
  43.4019852  53.9788094   0.5974773  55.7074738   3.4121346  44.6117020
  54.8704567   3.5750642  45.0465431  55.8723259   2.4796133  44.7511978
  76.2815933   0.3212592  81.7869415  76.6495514  -0.4484706  82.2209396
  76.8348618   0.4491103  81.0163651  23.3666153   1.3514199  23.6158981
  23.1284714   1.7196746  22.7650700  24.2931366   1.1272765  23.5290089
  38.8525505   2.8391771  65.0346222  39.4657059   3.5592725  65.1820450
  38.2114410   2.9221821  65.7405396  48.3680687  40.8476715  53.6575890
  47.8022766  40.3556099  53.0626183  49.1121559  41.1121025  53.1166306
  36.6324120  15.5723391  71.4837341  35.9076500  15.4863329  70.8644180
  37.1162033  16.3408127  71.1810379  17.7812996   4.1281257  22.4660454
  17.6158447   4.8469534  23.0760803  18.1495876   3.4321146  23.0102558
  47.3622704  45.0306854  33.7598305  47.7869186  44.6786537  32.9775391
  46.5898247  44.4787407  33.8819656  41.1400490  60.4444313  17.7727547
  41.4474945  61.2817345  17.4254265  40.4009285  60.6754189  18.3354111
  33.3368874  60.0620651  19.8413868  32.5561638  59.9619942  20.3860779
  33.0825272  60.6980324  19.1727486  54.1926308  47.7295723  74.1377792
  54.1863747  46.8336105  74.4746017  54.3144188  48.2763824  74.9139175
  55.9579201  26.0291443  81.7443619  55.5470963  26.7894192  82.1559906
  56.6108780  25.7362576  82.3800507  56.7866783  65.9863663  26.8103828
  57.1421204  65.3391418  26.2012844  55.9057693  66.1660233  26.4818172
   5.0094275  50.8976440  30.2646732   4.8175840  50.1074867  29.7596207
   4.9760914  50.6122742  31.1777363  11.8650618  64.1256485  87.6215668
  11.2136555  64.6163406  87.1204453  11.4285669  63.3023109  87.8402634
   1.1748427   2.1708298  40.1798210   1.3426788   2.9178839  39.6053886
   2.0426221   1.8982110  40.4779282  20.4959831  66.7770462  53.7159538
  20.2100029  66.3610764  52.9026794  21.1011181  67.4630814  53.4341698
  11.3487053  50.6246796  17.0999146  11.8141251  50.0737915  17.7293072
  10.4314337  50.5727692  17.3685207  49.0773048  33.0246773  64.2554169
  48.7803078  32.4336891  63.5634956  49.1779976  32.4625893  65.0236282
   3.9353185  44.4659805  23.5479679   3.0081022  44.7013588  23.5148144
   4.3432069  45.1698036  24.0524387   1.0094553   9.3921280  86.8386688
   0.2642532   9.9281120  87.1100159   1.0410808   8.6831713  87.4810181
  66.4089890  46.3481827  55.7330017  66.3033142  46.1312027  56.6592789
  65.5145798  46.4054337  55.3968658  67.4222870  42.5482292  52.4324455
  67.1843262  41.8322754  53.0215263  68.3751144  42.4922829  52.3601646
  30.3124104  62.8693008  67.8334732  30.2305222  62.4526138  66.9756317
  29.5473785  62.5648842  68.3216171  23.6299248  65.0604324  23.1801929
  22.8643093  64.6499252  22.7782650  23.6051426  64.7718735  24.0925255
  68.2303314   6.0455141  47.2350922  68.3001022   6.8156328  47.7992592
  67.5353546   6.2652855  46.6146622  50.9144478  20.0639915  70.2993622
  51.8029976  20.1215057  70.6506500  51.0314293  19.7525730  69.4018250
  20.4846325  57.9483719  56.8456459  20.5537300  57.0752258  57.2317467
  21.3345432  58.3539810  57.0170212  73.9327850  47.8486290  33.3430939
  73.5181885  47.4730835  34.1198196  74.6275482  47.2293701  33.1193657
  83.8798981  61.4988899  33.5195770  83.0910110  61.8672562  33.1218414
  84.3916855  61.1731339  32.7791786  21.8074512  63.5546913  16.8079987
  21.3212776  64.3148727  16.4886322  22.5115948  63.9265823  17.3391380
  20.7149429  51.0279655  78.0661011  19.9541130  51.6059303  78.1237793
  21.2305126  51.3822823  77.3416138   1.9467357  41.1608200  77.3879242
   2.2359109  40.3140373  77.0479736   1.0178885  41.2054558  77.1610260
  55.0211868  40.9986610  25.5357723  54.9200096  40.6681595  24.6431561
  55.8857727  40.6914062  25.8083763  47.3644104  17.7565060  71.3042679
  46.8071175  18.4241543  71.7041473  46.9205742  17.5325699  70.4862823
  13.8466854  61.1216316  21.7767563  12.9808588  60.8752747  21.4513588
  14.0565338  60.4532166  22.4289951  74.1814270  49.5072594  87.4026566
  74.6982574  50.0966835  87.9519272  73.6474915  49.0094910  88.0218201
  75.1727219   4.4473987  19.4712315  75.5858917   3.7170336  19.9317684
  75.0466537   4.1268439  18.5781574   4.1346803  62.9514923  65.1595001
   4.1136708  63.3969193  64.3125153   3.8629677  62.0544739  64.9651794
  39.7844696  39.6664886  71.1538696  39.5054092  39.8629684  70.2595825
  39.0539703  39.9542465  71.7014008  59.6467476   1.2087231  51.1953888
  59.3883057   0.3133362  50.9769363  60.2394943   1.1118413  51.9407043
  15.1043777  13.5375214   1.1556019  14.5832949  14.2857838   0.8643833
  15.9480295  13.6479816   0.7171018  69.9126587  62.6008377  49.8240852
  69.1156616  62.9934502  50.1802902  69.8264999  61.6671982  50.0167503
  59.5728531  63.6777458   6.2469969  58.9264069  63.1021423   5.8383198
  59.5535393  64.4743195   5.7165914  37.0365143   0.2937505  46.2802429
  37.1585579   0.9096859  47.0027122  37.8932648  -0.1185512  46.1696930
  54.3487282  58.4520569   5.0675330  54.5262337  58.7915077   4.1903234
  54.8801041  57.6582947   5.1292505   2.3707283  51.8723106  59.7171173
   1.8352209  51.7658234  60.5033264   2.4523044  50.9874763  59.3612366
  39.9784317  59.5076141  54.5424461  39.0544281  59.2723999  54.4580498
  40.0269089  59.9972725  55.3634911  34.1463966  58.8418274  35.8477364
  33.5425186  58.1082802  35.9638214  33.6265373  59.6163177  36.0625381
  53.1743317  12.2043238  55.0165901  52.8033752  13.0381603  54.7279053
  53.7448158  12.4368153  55.7492065   8.3806334   8.0369558  61.2998161
   8.4375772   7.6310868  62.1648369   7.7715311   7.4809089  60.8139801
  19.1563358  63.3456955  68.4710236  20.0797386  63.5591164  68.3368225
  19.0103149  62.5662079  67.9350128  40.1039658  49.4228821  40.9277534
  40.9686966  49.7870712  41.1170616  40.2762909  48.6941071  40.3315773
  59.3388405  27.8921108  50.1199150  59.9392242  27.3987045  50.6787720
  59.7942314  28.7163334  49.9481430  52.0650940   1.9611030  79.3003464
  52.1514320   1.4873405  80.1275864  52.7830696   1.6318201  78.7596893
  45.8195152   2.6169624  21.2594013  46.0145798   2.9063826  20.3681011
  46.2351151   3.2719100  21.8202515  47.5329742  54.6977310  16.2776337
  48.4148254  55.0697632  16.2903881  47.3126411  54.6356239  15.3482103
  78.5129166  49.4718246  57.9295006  78.7862320  49.8419800  58.7688560
  78.2833481  50.2324600  57.3956757  69.2139893  20.3963661  82.6945038
  69.5851822  21.1850777  83.0899582  68.3066101  20.6305389  82.4994354
  54.4103508  10.9395065  20.5826187  54.3019791  11.6416359  19.9411354
  53.8241768  10.2459602  20.2799244  80.4056854  43.6643600  63.8080139
  80.6743164  42.7509308  63.9065819  81.2254410  44.1432762  63.6860733
  84.0427399   0.9072235  71.3106384  84.2503510  -0.0059394  71.5087891
  84.2349091   0.9994913  70.3774796  31.7997971  19.9365234  67.5410309
  31.7163639  20.0201206  68.4909134  32.5692177  20.4617157  67.3210297
  22.3058109  49.8062744  80.2594986  23.1704674  50.1312790  80.0085526
  21.7048454  50.2226982  79.6417084  49.0393753  43.5887871  56.1717644
  49.3374901  44.1749191  55.4762039  48.0926170  43.7245293  56.2099800
  83.6558685  14.0907345  56.5942192  82.7838669  13.8664122  56.9190598
  83.5354767  14.9256516  56.1418343  53.1997948  50.7098122  89.3401947
  53.0780525  51.3830605  88.6707535  53.6502457  49.9982834  88.8851624
  22.8795452  22.0312939  12.6549988  23.0245609  21.7753677  11.7441177
  23.4616566  21.4627438  13.1591091  12.8672657  69.6847992  36.6189690
  13.0545788  68.8352127  37.0181656  13.4660168  70.2913666  37.0546341
  53.6625557  22.3953857  11.8714647  54.5055771  22.8405724  11.9572258
  53.5011826  22.0193024  12.7367687  82.7832260  20.5574760  12.8633680
  82.1598663  20.1442089  13.4607477  83.3935242  21.0208473  13.4369965
  48.2874794  30.2811260   8.9282970  47.4760704  29.8701572   8.6300497
  48.0029335  30.9447517   9.5566816  16.7849236  33.5825729   8.4434929
  16.7447453  33.8432579   7.5233512  17.7091789  33.3863220   8.5966930
  54.9621506  49.4333305  60.8894463  55.8464165  49.4089584  61.2551079
  54.9821777  50.1561012  60.2622032  60.6228523  21.4991760  23.3636227
  60.8429375  21.4324551  24.2927856  61.4318314  21.7955341  22.9465446
  58.8710251  18.3250103  64.1350555  59.2281036  17.5090752  64.4857330
  58.0696602  18.4713135  64.6376877  55.2214432  48.4655991  24.0500050
  54.8855858  47.8261337  23.4218998  55.9375381  48.9016533  23.5881615
  43.0212784  58.7599716  33.7845612  43.4109840  58.0838318  33.2303085
  42.6578674  58.2797203  34.5285530  28.0177135  49.9260406   4.3227029
  28.0243568  49.1107903   4.8242579  28.9425106  50.1472015   4.2128386
   9.1756706  15.4653416  68.7346268   8.8610926  16.1576233  69.3160248
  10.0983047  15.3589048  68.9662552  23.4894276  30.6597481  65.7289047
  22.9061184  30.5047569  64.9859619  23.7309227  31.5830517  65.6552658
  80.8814011  11.9019623   5.9828391  80.8185425  11.3435450   5.2079520
  81.2620773  11.3368149   6.6550918  79.2630920  49.6482620  36.8177376
  79.0949554  49.2013893  35.9881172  78.4390869  50.0899010  37.0231895
  82.0727310  40.1181145  21.7749405  82.2825546  39.5669746  22.5289001
  81.5549698  39.5528069  21.2017193  79.0677567  25.4812584  75.9760590
  78.1366882  25.3889160  75.7740097  79.0891495  26.0246391  76.7637863
  70.8602066  68.1880417  68.6492004  71.1302032  68.4420700  69.5317001
  71.5482635  68.5323944  68.0797882  32.9388695  29.5945797  80.0122833
  32.4917412  29.1115437  79.3173141  32.4475403  30.4123878  80.0898590
  80.3846054  21.8011551  51.9676323  80.0693359  22.7046108  51.9922066
  79.5916977  21.2732620  51.8735237  61.2656593  23.6891022  25.1950397
  61.3181877  24.5095615  25.6852646  60.5390015  23.8201427  24.5859203
  49.5339813  56.1432686  34.0122528  50.3011322  56.3763313  34.5351257
  48.9978676  55.6092033  34.5984192  58.9986229  63.0129318  35.5459900
  59.3533821  62.1672821  35.2716675  58.2397614  62.7907028  36.0854111
   9.3059540   3.3227088  70.1178131   9.1977234   2.3865981  70.2857819
  10.2248917   3.4163258  69.8667679  64.1690979   5.0602326  78.9162521
  63.4225655   4.5532508  79.2354507  64.9352417   4.6003828  79.2594757
  58.4257851  12.6008272  22.7622986  58.7341309  11.9041939  22.1827679
  57.7190132  13.0232000  22.2741280  66.7389679  60.8820610  21.0810184
  67.4984665  60.3005257  21.1158314  67.0938568  61.7510147  21.2686405
  73.4440308  68.8605042   6.2325983  74.0321350  68.1307755   6.0380287
  72.8082733  68.8530884   5.5170617  86.2985077   7.3159032   6.4800310
  86.0785217   7.4063358   5.5528526  87.2369614   7.1274934   6.4862604
   9.7290707   7.1760273  66.2364578  10.4705095   7.0897713  66.8356781
   9.9931765   7.8645296  65.6261749  61.0591736  20.4209061   4.8967695
  60.9847374  19.4800053   5.0561314  60.5120888  20.5774841   4.1270852
  59.2448082   5.8719707  36.9251251  59.8469810   5.1318536  37.0015755
  58.3911934   5.5121074  37.1661072  54.4202423  44.7320938  39.3801689
  53.5224876  44.5372543  39.1112747  54.9355583  44.6403847  38.5787506
   0.0166673   0.7737856  30.4039345   0.5476460   0.4529088  31.1328602
   0.6082929   1.3390863  29.9073009  41.4961357   4.3175659  28.4304810
  41.8197823   4.7946529  27.6663647  40.5649071   4.5351191  28.4719219
  85.5763779  55.5004272  76.2708893  85.5563126  54.9298630  77.0391922
  85.6220016  56.3859978  76.6313324  42.9662285  29.8513393  86.7311401
  42.8739471  29.0353851  87.2230148  43.5621948  30.3829842  87.2587891
  34.8066216  28.7527924   1.0736933  34.2653503  28.2593441   1.6899461
  34.8242264  29.6415253   1.4287658  74.3185501   3.7828231  14.8097467
  73.8833771   3.1167719  14.2775517  73.6091995   4.1995149  15.2990618
   9.9474878  56.7158508  62.9420090   9.5615788  57.2878151  62.2785606
   9.2779894  56.6535378  63.6232719  51.8756447  33.4136925  86.9737930
  52.5464935  34.0942879  86.9191895  52.3378334  32.6039009  86.7573318
  35.7290268  43.8592033  54.6750717  36.6597328  43.6426125  54.6193047
  35.2808723  43.0708427  54.3686829  26.5927887  66.2648773  30.0001335
  27.1451511  65.7157211  30.5565052  26.8913593  67.1577530  30.1729488
  57.1261673  71.0252075  14.0765543  57.7900085  70.3644714  14.2739859
  56.6214104  71.1068497  14.8857431  39.1312370  55.2258987  88.8693619
  38.3622246  54.6565208  88.8436432  39.7255859  54.8552818  88.2169647
  54.0013161  33.4206429  59.7132645  54.5595512  34.0868073  59.3122253
  53.2282791  33.3851280  59.1498909   8.7504749  10.6416254  84.3564072
   9.4124184   9.9514856  84.3143311   9.2464952  11.4380159  84.5460281
  60.6776543  67.0302658  13.2579594  61.4049416  67.1120453  12.6410303
  59.9924545  66.5818100  12.7623587  71.5981827  10.8486929  52.0105247
  72.3858719  11.3810902  51.8994980  70.8817902  11.4830608  52.0348473
   3.6989617   0.5557160  37.9012833   3.1169984   1.3001173  37.7482567
   4.5057716   0.9472772  38.2359047  71.3213196  43.2642212  88.5650940
  71.2001648  43.5908012  87.6735229  71.1935272  44.0328026  89.1211319
   8.2919769  67.1520538  37.7177200   8.4220648  67.5071487  38.5970497
   9.1408577  67.2585220  37.2884216  72.1346436  68.3435822  77.7907410
  72.9202881  67.8753052  78.0730820  71.4434891  67.6814957  77.8038712
  16.0088139  66.1346436  23.7705727  15.6202288  65.2624664  23.8379345
  15.2795811  66.7033157  23.5234566   9.8027306  48.4236679   9.9954586
   9.6577797  49.0589104   9.2942533  10.4818859  47.8415642   9.6546726
   7.8957105  12.2248621  24.1915665   8.6920023  11.7259712  24.0091934
   8.1968307  13.1277132  24.2936401  46.3721123  32.4616470  86.7562866
  45.6093750  32.7314911  86.2447739  47.0950966  32.9766464  86.3980942
   6.3485193  37.6602402  60.5123520   5.8859963  38.4381104  60.8241615
   6.3954239  37.0867691  61.2773132   2.0172398  20.5646515  15.5514021
   2.2348244  21.2574711  14.9277935   1.9109577  19.7813072  15.0116711
  64.9900208  46.2634048  40.5004044  65.8675613  46.5528641  40.7501450
  64.8292007  46.6865730  39.6570206  70.1110611  59.8803596  51.8533249
  69.1947403  60.0421410  51.6287727  70.3880386  59.1922836  51.2482910
  27.3026333  31.4706345  12.2605228  27.0607090  30.5501461  12.3625221
  27.3741302  31.8001747  13.1563597  44.4195976  27.2964630   4.0133171
  43.5566483  27.4913254   3.6478391  45.0224419  27.4121037   3.2788517
  78.8358841  65.2971725  77.3117218  79.2243805  64.9925385  78.1317825
  79.3250885  66.0909348  77.0952682  61.9751282  49.6282005  82.1743469
  62.1285629  50.5720100  82.2180710  62.3521690  49.2864342  82.9850693
  85.4391785  55.0306015  35.1830139  85.6058350  55.4655800  36.0192261
  85.2165756  55.7423744  34.5829620  66.7208328  45.9432068  66.8647156
  66.9870300  45.2138214  66.3049164  66.5641098  46.6663628  66.2574921
  12.2163467  28.7267704  80.0271835  13.1112766  29.0026093  80.2252960
  11.7704859  28.7338676  80.8741684  33.1208916   1.8239559  20.5051689
  33.6732826   2.3905423  21.0437584  33.7378197   1.3383542  19.9576092
  21.2848015   8.6025333  61.9273033  21.0649281   7.7871642  61.4766808
  22.2228146   8.7156200  61.7737541  67.1775131  69.5231857   7.1671247
  66.7761688  70.1702881   6.5871110  67.1154404  69.9123001   8.0394611
  58.0764503   5.7719560  80.7697754  57.4943619   5.3453712  80.1409454
  57.6429405   5.6548195  81.6151047  43.6357269  44.8903427  78.1485367
  43.2896767  44.3643112  78.8694916  43.4232521  45.7927017  78.3869476
  75.3769684  38.6261330  57.3740234  75.4132462  38.9824905  58.2616730
  74.8775253  39.2734642  56.8762817  21.2007275  57.9001770  26.0506554
  20.7243690  57.8566666  25.2215462  21.8992882  58.5351791  25.8924923
  78.2363586   4.3503566  72.7734222  78.1273346   4.0310621  71.8776550
  77.5467529   3.9100559  73.2702255  21.3671970   2.5159104  55.1237793
  20.4855423   2.5625505  55.4935684  21.7355251   1.7090670  55.4837379
  76.5763016  54.4056091   6.9271293  75.9096909  54.7641296   7.5130696
  77.2289276  54.0221138   7.5129929  82.9133224  60.6629639  37.2156982
  82.8652496  61.5162048  36.7845383  83.4157104  60.1169777  36.6109352
  70.7094498  22.1619453  67.2114944  70.0879745  21.4364643  67.2721863
  70.2316360  22.9161396  67.5566330   0.2266314  28.0432339  11.5760670
   1.1439159  28.3019428  11.6648941  -0.0883213  27.9645882  12.4765396
  71.0911179  62.4931526  52.9391174  70.6513214  61.6989136  52.6358070
  71.9791946  62.2079506  53.1541061  82.6984787  54.3612442  67.9675217
  83.4845123  54.5416183  67.4519272  82.0215225  54.9105988  67.5723267
  72.0953827  19.1252346  21.3723984  72.0331955  19.8203259  22.0275421
  72.9343567  19.2796745  20.9382343  75.5934448  42.8233147   3.9304607
  75.0330200  42.0487251   3.9770319  75.2067108  43.4366684   4.5553355
  35.3302116   4.0579162  73.5255051  35.0095596   4.3385687  72.6683884
  35.7991867   3.2420547  73.3503952  76.8260422  19.6370258  34.4621964
  76.8544388  20.2485104  33.7263222  77.7420120  19.4067631  34.6177597
  86.9171524  13.4892702  60.2594910  86.6042786  13.9003439  59.4536591
  86.5168686  12.6197920  60.2558632   0.4793514  58.3608093  15.9027271
   1.1945515  57.7516861  15.7191868   0.3006050  58.2460823  16.8360653
  76.8249969  18.7945518  69.2838974  77.5630035  18.3708458  68.8456497
  77.2018051  19.1677608  70.0807419   5.8654037  61.4145164  75.9194794
   5.0120525  61.5118446  75.4969254   6.3761578  62.1592560  75.6021042
  64.8326569   3.6308916  75.0770416  64.3288574   4.2881598  74.5970230
  64.2180099   3.2826507  75.7229233  84.8940811  49.8816223  35.5574837
  84.0158768  49.6906471  35.8869095  84.8497467  49.6753922  34.6238174
   4.1516709  36.1591644  56.7282562   3.9893637  35.3593254  56.2281113
   4.5331535  35.8537254  57.5513077  60.1953468  61.1900864  71.6901169
  59.5637589  61.7424583  71.2294540  61.0485611  61.4858932  71.3726883
   2.6879008  35.6387787  52.1411171   3.4084387  36.1032906  52.5668945
   2.7697492  34.7361221  52.4489212  72.0229721   0.5532151  67.0794067
  71.3542480   0.3270043  67.7258377  71.5541687   1.0618050  66.4177475
  42.5026245  19.1639042  68.9692917  42.3104057  19.1209984  69.9060059
  41.8568001  19.7781048  68.6201477  72.6418457  10.6994400  64.7203598
  71.7857971  10.8651619  65.1152573  72.9578247  11.5651054  64.4614868
   7.4468822  14.0854321  57.6518822   7.2688437  13.2011204  57.3316841
   7.1409163  14.0778923  58.5588341  50.9421921  52.1735153  58.2237625
  51.2331085  51.6615524  57.4691162  50.0228004  51.9323120  58.3367729
  86.2258301  51.5053215  72.6672745  85.6434555  52.1400948  73.0845795
  87.0031128  51.4901657  73.2256927  43.3286514  54.4028473  85.4969559
  43.8959732  55.1392403  85.7252197  43.8027344  53.9405251  84.8057785
  85.7603073   4.6493959  22.4232922  85.3130798   5.3125973  21.8975697
  85.4970016   3.8162739  22.0323849  48.4350128  24.9376736  17.2607346
  48.8529053  25.3224373  16.4903088  47.5362091  25.2658501  17.2346802
  27.0476532  23.0423794  61.2458000  26.6008701  23.4144077  62.0062027
  26.4330349  23.1663284  60.5225334  60.6504517  64.1419220  26.1826267
  60.2807121  64.8105164  25.6059895  60.4003906  64.4205322  27.0635815
   9.4340410  56.3554955  79.8016357   8.7546120  56.4119301  79.1297531
   9.2007322  55.5811996  80.3137512  64.8220367  39.8230247  76.6444550
  64.5669861  39.4613876  75.7956924  65.0178757  40.7424316  76.4639740
  57.0841484  36.9844246  19.2402859  56.6883774  37.5275574  18.5586681
  57.3207321  36.1723518  18.7921810  59.1004906  68.9605484  23.7622490
  58.9430580  68.9843140  24.7061138  59.6417961  69.7310181  23.5902367
  59.2729301  65.2505493  54.1990204  59.2169952  66.0008240  54.7907867
  59.4738655  64.5093231  54.7703705  18.5010567  36.8744278   1.1700869
  18.4594936  36.9860954   2.1198418  18.0348015  37.6331367   0.8190879
  39.0622139  46.0681496  73.2705994  39.5396767  45.5067062  72.6598282
  38.1549149  46.0347366  72.9674149  15.3703718  67.3447800  12.7167244
  15.4842615  66.9172897  11.8678942  15.3912039  68.2809219  12.5181446
  59.4717026  14.5738745  82.7957535  59.3172264  13.9451103  83.5007477
  59.2104263  14.1104603  82.0000076  65.1971054  70.8737335  81.3130417
  66.0230713  71.3316269  81.1570358  64.8485641  70.7036057  80.4379349
  67.3223495  52.2347069  28.2943230  67.8099518  52.0096397  27.5019703
  66.4503708  51.8665771  28.1516266  83.9660492  29.7792587  40.2249107
  84.1106796  30.6636105  39.8884087  84.2383118  29.2035713  39.5102844
  64.8150558  57.7133675  36.0040512  64.0308075  57.1652260  35.9771423
  64.9003372  58.0533218  35.1133270  79.0952072  13.9138641  81.1123810
  79.8333130  13.4614935  81.5207901  78.3367920  13.6564722  81.6365738
  45.4293060  38.2927208  50.1060524  46.3666992  38.4230614  49.9627495
  45.2760658  37.3775444  49.8711014  21.8747978   1.7139113  17.0761242
  21.8441544   1.8964118  18.0152664  20.9561939   1.6603007  16.8124504
  60.0659180  20.6525936  77.3526688  59.9288254  20.0847301  76.5943985
  60.8455772  21.1623135  77.1323242  65.7636642  18.1682243  40.7437706
  65.9319916  17.2668839  41.0185127  66.4451523  18.3528481  40.0974655
  49.5091171  58.9133148  32.6696014  49.7585487  58.2337036  33.2958145
  50.3020172  59.4374886  32.5565376  75.9001007  41.1898651  31.7211227
  75.8195877  41.7063751  32.5229759  76.8241272  40.9423256  31.6874390
  24.7826977   1.8844465  11.2769632  24.4126320   1.1058397  10.8609648
  24.3759079   1.9094964  12.1430616  64.6078033  38.3932304   2.9270031
  63.9305840  39.0330505   2.7073929  64.1785049  37.7880974   3.5317760
   3.0987148   9.5642824   4.9045773   2.7212481  10.2731981   5.4253359
   2.7452965   9.6986675   4.0252209  47.1616058  37.5974197  15.7630825
  47.7773094  36.9227562  16.0493813  47.6039505  38.4236107  15.9579401
  52.2262192  68.2893219  75.0920029  52.4045486  68.3990097  74.1579742
  52.1434402  67.3431015  75.2105255  56.8038483  61.1729622   1.3548920
  57.5904922  60.9310150   1.8436524  57.0812950  61.1719551   0.4387844
  31.2754955   0.2724888  52.4551239  32.2095261   0.3375052  52.2561455
  31.2318649  -0.3128095  53.2112656   2.1727805  38.0964622  15.4424524
   1.7323990  38.9458160  15.4723978   1.4622145  37.4565849  15.4858704
  70.7697067  32.2011414  37.8876343  70.1211929  32.2106628  37.1836700
  70.7654572  31.2980976  38.2050018  79.1570053   6.6883965  60.0820885
  79.7404709   6.7439203  59.3253059  79.5018463   5.9591608  60.5973892
  66.7341080   7.7920971  68.8395844  66.2548599   7.6347947  68.0260620
  67.2737885   7.0099697  68.9546967  65.8857040  52.5092201  23.7983856
  66.6557846  52.0446320  24.1260471  65.7200623  52.1219215  22.9388523
  42.5118179   3.3063438  45.3863297  43.2623634   2.7364473  45.2186127
  41.8906746   3.0957694  44.6891403  78.7202911   7.6155372   0.9115307
  79.3167801   6.9469247   1.2482651  79.0427933   8.4350271   1.2865807
  73.8751221  71.0772247  52.9598007  74.1881027  70.5703735  52.2105484
  73.4092865  71.8173065  52.5705566   1.3982263  18.5407448  75.7073593
   1.9555932  18.4164391  76.4755554   1.9036485  18.1725731  74.9826355
  54.9943314  17.8822403  73.8498688  54.1060753  17.5255489  73.8502197
  54.9641380  18.6007957  74.4815292  17.7167187  45.8753052  83.5583572
  18.4057922  46.0016060  84.2106323  16.9013882  45.9408073  84.0555267
   2.7044709  34.4496346  22.4726429   2.0333753  33.8362694  22.1732388
   3.5312371  34.0524559  22.1988983  59.3381996  59.1581078  68.1419678
  59.3701439  58.5792236  68.9036102  58.4427414  59.0737953  67.8144379
  61.6718941  55.6784210  21.2239418  62.0024910  56.4282455  21.7186165
  62.1426201  55.7144623  20.3912640   2.2846472  17.1182556  49.4042091
   2.3412039  18.0346737  49.1336365   1.3950716  16.8537807  49.1698151
  20.0737934  45.1917229  58.6075134  19.4461269  45.9140091  58.6313858
  20.2489014  45.0572624  57.6761246  82.4960022  -0.1369869   0.7031339
  83.0162506   0.2048456  -0.0239990  81.8201141   0.5255173   0.8462919
  57.7332611  32.6082573  23.3773727  57.2998276  31.7581635  23.3018265
  57.0629959  33.1874619  23.7400055  31.6716290  39.8139801  75.6402893
  31.8495121  39.5131569  74.7491684  32.4849510  39.6465645  76.1164322
  38.2557526   8.6844826   9.7718105  39.0211296   8.6800270   9.1970005
  38.5210075   9.2197628  10.5197048   6.7847080  21.6331043  54.6525116
   6.4957514  20.7240925  54.7327118   6.7874413  21.8013058  53.7102127
  43.8162308  53.1667404  69.3979034  43.0449562  52.8895721  68.9033890
  44.2754707  53.7659264  68.8094254  82.2525711  31.0982437  20.5973816
  81.3095398  31.2551041  20.6456299  82.3503265  30.1654930  20.7888336
  22.1334991  57.5330009  88.0567627  23.0761147  57.5622101  87.8928909
  21.8503075  58.4448624  87.9893799  48.2941475  50.2587013  53.1346359
  48.5470543  49.3366737  53.0884132  47.3922997  50.2439156  53.4550781
  12.0152979  39.2389183  60.4836082  11.0944109  39.4765778  60.5918541
  12.4984999  39.9819183  60.8451309  17.2716351  13.0887184  16.7303181
  17.7763653  13.7500820  17.2036839  17.2943249  12.3183994  17.2980556
  75.2810745  38.4809685  68.4663696  75.3409500  38.6611748  69.4045410
  76.1910172  38.4297829  68.1737595   8.7883863   2.5234609   3.3414292
   9.4783421   2.4330113   2.6841531   8.9885769   3.3465817   3.7871058
  57.2788315  62.5043755  21.0260506  56.5328369  62.8405724  21.5227299
  57.1552277  62.8526535  20.1430683  24.4317188   1.3436246  82.2728119
  24.7113857   0.4981231  81.9218979  23.9319725   1.1232222  83.0588837
  67.0821991  40.4503555  18.0344772  67.9840164  40.4443932  17.7136650
  66.5469513  40.3587303  17.2462196  63.3234940  64.1748734  84.6153412
  63.0909996  64.0503464  83.6951981  64.2795715  64.1305771  84.6289215
   4.4429455  36.9273109  46.5075493   5.1763253  36.4453430  46.8897743
   4.7163815  37.8440819  46.5390968  56.9259796   1.9822019  67.3433838
  56.5443916   1.1718369  67.6809235  57.8706894   1.8586106  67.4354477
   3.2203889   2.5639389  65.2728577   2.3904068   2.9973428  65.4716644
   3.5793207   3.0598595  64.5370178  77.6987839  34.2670593  32.3447266
  77.2612000  33.6412926  32.9219322  77.2370605  34.1864738  31.5101318
  40.9566879  59.2426071  63.2258682  40.8786774  58.3006477  63.0746651
  40.0831909  59.5879250  63.0415192  18.5482502  68.3660355  70.6836395
  18.9690609  68.3826294  71.5432129  19.1709480  68.8042831  70.1036224
  62.1715698  58.4774208   0.4777342  61.7037582  59.3050079   0.5894544
  63.0654564  58.7359772   0.2533489  41.3548737  63.4233932  16.6469612
  42.0471268  63.5898018  16.0071735  41.8209763  63.1704712  17.4438381
   6.5452561  47.7477989  39.4876900   6.8965983  47.8504486  38.6032410
   5.9393792  48.4815521  39.5913849  69.3620224  44.0096397  56.9141426
  69.0754013  44.5859947  57.6225853  68.7058411  43.3131142  56.8917084
  45.4552727  68.3779068  16.4206829  44.6713371  68.0114517  16.0115547
  45.1406441  69.1480484  16.8940964  14.3832541  48.4186707  46.7495537
  14.8114882  49.2728767  46.6931915  13.8468657  48.3669853  45.9584503
   2.6907134  64.7821884  30.2114754   1.9978954  65.2935791  29.7934895
   3.1245894  65.4014359  30.7984352  46.3016396   1.5527256  27.1493530
  45.7057533   0.8767052  26.8266354  47.0914993   1.0748601  27.4023285
  70.8525467  16.2650757  78.5900879  69.9112396  16.3764648  78.7233887
  70.9511414  16.1743393  77.6423111  53.8088684  20.9564648  85.8947067
  53.1817017  21.6214771  86.1786957  54.6330757  21.2121506  86.3088837
  40.4300804   0.5434372  64.2935944  39.9571762   1.3409106  64.5315704
  40.7410088   0.7060865  63.4030342  50.2204857   9.9782457  19.0590935
  50.4028473  10.5617380  19.7956505  49.8224411   9.2049971  19.4589424
  14.4208679  69.9862671  40.7240715  13.7858191  69.2775497  40.8273392
  14.2876844  70.5410767  41.4926300  63.5041962  67.7435760  78.2754211
  64.4329605  67.8574448  78.0737610  63.2637978  66.9243851  77.8425751
   7.1567397  30.2651882  25.5325890   6.9672155  30.6283436  24.6674709
   7.6360183  29.4563065  25.3530483  37.2028809  48.2043953  80.5592117
  37.5423622  48.3585930  81.4408035  36.2769089  48.4405212  80.6144257
   4.1046090  62.2081871  55.7302628   4.8852735  62.5981369  55.3368988
   3.5091283  62.9458427  55.8625488   7.2490163  40.0771332  19.8576298
   6.5501184  40.6978951  20.0636101   7.8600063  40.5757256  19.3151093
  53.5159149  63.7201843  84.4245529  53.8089638  64.4039917  85.0268478
  54.2744789  63.1443253  84.3286209  83.9671478  63.7141190  68.2068253
  83.4400406  64.3604965  67.7371674  84.0098877  62.9636688  67.6141815
  24.5348377  54.3939590  38.3068619  25.3187237  53.8449593  38.2879753
  23.8232460  53.8040733  38.0580597   8.7126837   2.3819146  14.9268503
   8.6234512   3.1384852  15.5063944   9.0173264   2.7501242  14.0974855
  21.5591564  62.9180298  83.4048615  20.7339325  62.5636482  83.7359924
  21.4105129  63.8621674  83.3525009  44.7921906  61.6959724  31.7053986
  45.5002861  61.0614586  31.5948200  45.0885887  62.2641449  32.4164276
  54.6050529  15.1109276  70.0907516  55.5028687  14.7915897  70.1812134
  54.6292381  15.9982958  70.4488373  79.3923645  44.0780563  73.1747665
  78.4910355  43.8000641  73.3377304  79.3274612  44.6773033  72.4311829
  53.0802231  26.8119526   4.4587698  53.7866859  27.3603401   4.1175790
  52.7753868  27.2728710   5.2403479  75.8063583  45.6726837  59.3655090
  76.0778046  45.8653603  58.4680557  75.9136124  46.5019264  59.8314362
  69.9208069  47.3729172  74.3329468  69.4325104  47.4073486  73.5103760
  69.5328827  46.6401443  74.8112640  54.6991463  55.3980446  47.4445152
  53.7628517  55.5269432  47.5960732  54.7427940  54.8859825  46.6369743
  59.7903748  34.0372124  57.6687889  59.0858688  34.3515778  57.1021500
  59.7733688  34.6275749  58.4220581  57.7238617  29.3706665   4.6311002
  57.3014107  29.1304817   3.8064322  58.6609650  29.3365250   4.4389987
  82.8819885   1.6431051  13.9269085  82.7099762   2.4648647  14.3866425
  82.0224609   1.3573519  13.6174068  79.9487381  24.3132877  83.4921646
  79.4848480  23.5621395  83.1222763  80.8524475  24.2066040  83.1952515
  75.5211334  30.0000515  14.3495169  75.1442566  29.6143074  13.5586977
  76.3636551  30.3543072  14.0651045  40.2595825  53.7284164  46.7636375
  41.2024803  53.8863144  46.8110504  40.1166344  53.3961983  45.8773918
  28.0684319  55.0213280  32.6996727  27.1366367  54.8439331  32.8282051
  28.4821053  54.1584778  32.7240486  85.6299896  51.2078857  28.9597301
  86.1064758  51.6717453  28.2712307  86.1183243  50.3937836  29.0821915
  31.7325401  60.5382538  11.3225527  31.9415283  60.6833038  10.3997765
  32.5747032  60.6062279  11.7724152  16.1518288  21.8550720  79.6442108
  16.7544670  21.1791611  79.3340454  16.4419746  22.6545162  79.2049713
  76.4047623  17.3023815  39.9229660  77.3380966  17.4340687  39.7562828
  76.1337280  18.0865574  40.4002953  45.1315002  57.4022179  11.3384037
  44.5276222  57.5152893  12.0724211  45.3961449  58.2924347  11.1066589
  47.2740822  14.6679955  25.6015015  46.9356117  14.1963444  24.8404388
  46.7553368  14.3406258  26.3363228  80.3872375   4.2440166  46.7515755
  80.8405762   4.8664646  47.3201485  80.2699051   3.4647923  47.2949677
  70.7525177  27.0891628  51.8131065  70.9092026  26.1452980  51.7847290
  70.8516693  27.3758125  50.9052353  71.2008514  64.8965149  73.7181320
  70.5999069  64.3548660  74.2297134  72.0368576  64.8277512  74.1792221
  25.9791946  60.6851196  57.2868614  25.0479870  60.8361015  57.1247177
  26.0161648  60.3611259  58.1868019  78.6800613  32.9375801  86.3134079
  79.3179626  32.3395500  85.9239578  78.7010880  33.7106743  85.7493896
   2.4464097  64.1271820  35.9603081   1.8290144  64.8569946  35.9110413
   2.7462904  64.1280975  36.8693199  68.9359055  48.5603104  14.5683479
  68.5451889  47.7130127  14.7820330  69.0504608  48.5384598  13.6182795
  81.5068817  10.3180838  23.2724552  80.6913223   9.8540735  23.4616451
  82.0925446  10.0751562  23.9895401  55.3944359  41.2165947  41.6115913
  54.9559364  40.9933357  42.4326286  55.7878189  40.3945122  41.3189125
  81.4068375  68.9930267  36.2338219  81.2228546  68.3393631  35.5592079
  82.2816849  69.3176575  36.0205116  29.7800407  52.5940704  42.6196976
  30.5636883  53.0969162  42.8416748  29.0596752  53.0878105  43.0115166
  26.2156372  45.6194344  69.3032761  26.4743004  44.6981468  69.2797699
  26.0999107  45.8592453  68.3838577  66.5077820  51.7787971   9.4984798
  66.9024124  52.6247253   9.2865744  65.6614227  51.9999504   9.8870640
  53.9884682  43.4471550  59.3743706  53.6763496  42.7818947  58.7609863
  54.8604012  43.6780815  59.0539970  54.1602097   3.0865302  10.3506594
  54.9908791   2.9789307   9.8873692  53.5734062   3.4766130   9.7027912
  52.2748413  14.6776419  58.6624565  52.6961250  14.7075396  57.8034706
  52.9999542  14.5979347  59.2822037  22.4829922  67.1047134  85.5523529
  22.6822739  66.5837936  84.7744370  23.2488174  67.6675110  85.6663818
  51.0018463  17.5856972  82.3670731  50.6827469  18.4740639  82.5258408
  51.8608398  17.5608292  82.7886658  14.1918850  49.1137543  53.8720322
  13.9889069  48.3704758  54.4399834  14.6328812  48.7246819  53.1167984
  58.5926399  56.1679726  15.6170073  58.8479652  56.4539146  16.4940929
  57.9608116  55.4651070  15.7686901   1.8922398  42.7004471  70.3726883
   1.9346963  43.3407593  71.0829239   1.1982001  43.0249023  69.7988663
  75.1253662  54.9179611  12.5622559  75.6696472  54.5698166  11.8560123
  74.3634109  54.3390503  12.5850296  16.6578045  42.4163170  60.5071411
  16.1642189  41.6159286  60.6859703  16.0637741  42.9515038  59.9808922
  27.7125416   0.6310788  44.3069611  27.7689991   0.0723656  45.0821266
  28.2761002   1.3780663  44.5085602  84.2008820  29.2090511  15.0313816
  85.0991898  28.9548626  14.8200397  83.8846359  28.5137291  15.6082220
  34.0386276  60.1066322  15.3487597  33.9443817  59.8614159  14.4283142
  33.7915649  61.0309677  15.3768806  24.0779839   5.5681005  42.7103653
  24.1491261   6.5134068  42.5778275  24.5802422   5.1868095  41.9902382
  20.5368767  60.6089706  64.9352188  21.1699772  60.2463875  64.3155823
  19.6966858  60.5518379  64.4801941  64.0053787  37.2040634  68.0640411
  64.7725830  37.0731621  67.5068207  63.4619675  36.4315186  67.9087677
  69.6782532  35.4688988  10.0765152  68.9025345  35.9194756  10.4104071
  70.1110916  36.1170464   9.5208244  58.2607918  42.9292679  26.3838749
  58.1023750  41.9874344  26.4478340  58.0405083  43.2686501  27.2513580
  53.9161606  46.2333755  15.0253744  53.9202728  46.7862778  14.2440195
  54.7859192  45.8339844  15.0407495  45.0542831  21.1918011   5.1977448
  45.4107666  21.4043102   6.0602932  45.8090324  21.2310581   4.6103435
  17.5426579  69.7838364  47.8608093  17.1527958  70.6230545  48.1056671
  18.0920963  69.5478210  48.6082344  57.1902122  18.1447182  37.2588043
  57.6917610  18.8745155  37.6222343  56.4783707  18.5615711  36.7732697
  16.3325043  67.6449356  69.2433777  16.1982155  66.7006302  69.1627884
  16.9695148  67.7366562  69.9519272  67.2507401  15.9031773  27.1260204
  67.4675522  16.5759563  26.4805813  67.2003326  15.0926113  26.6193905
  56.8172073  52.2528419  81.8086166  56.7582474  51.9913025  80.8897324
  57.4992218  51.6897087  82.1746368  55.1736412  66.5023041  10.7524796
  56.0982399  66.4104919  10.9825144  55.1445274  67.2676468  10.1783342
   3.7479498  26.7377338  10.6193495   4.4534097  26.5599785   9.9972868
   3.9445992  26.1783257  11.3707628  54.0512009  66.0535965  58.6876335
  53.8556633  65.2072601  58.2855034  53.5173492  66.6800232  58.1989365
  40.5871964  53.4443512  75.8044357  41.3568802  52.9112587  76.0035095
  39.9326096  52.8157043  75.5002136  51.1161461  47.2371254   9.6967344
  50.7086182  47.2802238  10.5617752  51.9731483  47.6467361   9.8150387
  64.5979385  46.7578430  76.1208725  65.0156784  45.9125519  76.2858276
  63.9114723  46.8194313  76.7851028  78.7671738  46.3001862   8.5382223
  78.3451462  46.6482391   7.7527423  79.6861649  46.5522881   8.4480391
  68.0561981  36.2581978   6.8582168  68.2343140  35.3186035   6.8173184
  67.7323227  36.4788132   5.9849119  13.0486126  42.8089676  16.6074085
  12.7642908  43.5338554  16.0506992  12.7263784  42.0248947  16.1628551
  80.3193054  28.3813419  85.0350647  81.0597229  27.7995625  84.8631821
  79.7149429  27.8523998  85.5558319  28.2829723  53.7733116  56.7308159
  27.7610512  54.0609398  57.4798813  29.1400757  53.5643158  57.1021996
  14.3919687  39.5375175   0.8082309  14.9395714  39.0887299   0.1640630
  13.9366751  40.2134476   0.3061754  79.5109558  57.9202805  61.6173401
  79.7237778  57.4674454  62.4333534  80.0205231  57.4619446  60.9491386
  48.9503937  37.9392738  25.7679882  48.6887245  38.8527908  25.6528816
  49.1747475  37.8694916  26.6959038  57.7470131  13.7332487  62.5531311
  57.1579781  14.0081329  63.2557716  57.2310753  13.8372984  61.7536240
  76.4258881   1.8966279  46.2438011  76.2337341   0.9934132  46.4958153
  76.8343658   2.2801008  47.0199013  53.9918327  -0.0922760  21.9330807
  53.3470306   0.4559131  22.3802395  54.7715378  -0.0446009  22.4862652
  87.0702133  67.4633560  57.7495079  86.5476074  66.9094467  57.1696014
  86.4376450  67.8230209  58.3713799   4.1252203  64.4365997  38.1317749
   4.8540921  63.8228493  38.0407448   4.5422587  65.2777252  38.3183746
  28.2001801  14.3593512  71.6787796  28.0176277  13.9208231  70.8477554
  28.8362484  13.7919579  72.1143417  75.1367645  34.5909004  44.6627884
  74.9145279  33.9595680  45.3470840  74.8998413  34.1519470  43.8458328
  77.2688675  20.1661320   7.1562891  77.1033707  20.1620407   8.0990648
  78.2209930  20.2289314   7.0805244  44.1241875   0.8636535  85.7281189
  44.5562668   0.0219252  85.8731384  44.5489349   1.4602504  86.3444748
  81.7997360  15.0462847  39.3976860  82.5925598  15.2637920  38.9074211
  81.4221649  14.3041945  38.9254875  26.7855968  13.5447731  77.6416397
  26.1824265  13.3460941  78.3578415  27.3401642  12.7676153  77.5729904
  66.7569580  56.4633446  88.4590988  66.9191895  56.5782585  89.3954239
  66.9889603  57.3068008  88.0705338  79.7072678   8.5521002  42.2735825
  80.3977280   9.1264076  42.6047478  79.4479904   8.0277376  43.0312424
  31.5355625  11.4740696  73.7263489  31.1109505  11.8729753  72.9668655
  31.4678936  12.1365023  74.4139786  38.3840256  53.0522995  39.4968033
  38.2741356  52.6935616  38.6161995  37.6983109  52.6304626  40.0145645
  11.7894115   8.7929230  25.1772537  11.9412241   8.1537590  24.4810829
  12.4464760   8.5843668  25.8413334  55.4883537  66.7154236  32.2215614
  55.3501015  67.6314011  31.9805088  56.0233192  66.3592072  31.5122299
  35.4674034  30.0752640   8.8032999  36.1533127  30.5244675   8.3093596
  35.5882111  30.3721828   9.7052288  54.2463341  14.5856657  25.8843079
  53.4535065  14.4853067  26.4111671  54.6348534  13.7110262  25.8672066
  25.2774277  50.9104919  88.1766052  25.9761219  50.2804375  88.0002747
  24.5116863  50.5504265  87.7291412  19.5901146  30.6075172  85.8850784
  18.6746349  30.7121868  86.1442566  20.0471363  31.3240643  86.3254471
   8.9567194  69.3616867  68.1068802   8.6146746  69.9241638  68.8017654
   8.5736837  68.5025101  68.2838745  15.5324984  50.7500725  41.6846771
  15.3059845  51.0199738  40.7946892  14.9522877  50.0106010  41.8656960
  64.8432236  65.1227341  19.0898933  64.8112030  65.0482407  20.0436535
  64.0475540  65.6027527  18.8602962  68.6889496  70.4404373  31.0735188
  69.3191452  71.0617371  31.4383087  69.1581116  69.6063004  31.0552044
  42.3965683  63.7425117  67.9864883  41.8168564  64.3964462  67.5959320
  41.8627434  62.9496880  68.0383835   8.6268692  42.8987160  29.9681206
   8.2300911  42.6987457  30.8159485   7.8911877  43.1631775  29.4157944
  81.0618896  50.0681534  21.6891747  81.0517426  49.9681320  22.6410809
  81.0477905  49.1716690  21.3539829  68.8193512  53.0389671  51.6857452
  69.2959900  53.1924210  52.5015297  67.9945755  52.6392479  51.9617920
  37.2576752  41.2334709  66.4933167  37.1326561  42.1524658  66.7300644
  36.6193466  41.0764046  65.7975464  55.6871376   2.1386471  53.3853073
  56.2902031   1.5618182  53.8541489  54.9585838   2.2679527  53.9925346
  69.3324203   2.2314053  30.3069286  69.8847427   1.9908437  31.0507717
  69.4546432   1.5202674  29.6779804  14.3027420  67.5385437  19.9533215
  13.5556507  67.6351624  19.3627682  15.0671577  67.5569611  19.3775082
   0.6155750  18.4411640  19.1141205   0.4701589  18.6972084  20.0249043
  -0.2575293  18.2331429  18.7814827  68.5193634  36.9926758  57.2095451
  68.8759537  37.8588943  57.0127182  68.3076630  36.6206169  56.3534012
   3.2444966  51.0014267  46.1272926   3.6725209  51.8555450  46.0680466
   3.2293363  50.6781235  45.2264748  80.6203842   6.5963159  57.7763824
  80.9410553   7.4854631  57.6253204  80.3815689   6.2767725  56.9062729
  51.0310707  70.1898804   7.3257637  51.0718613  69.3488846   7.7810669
  51.8964005  70.5766983   7.4591975  15.0093498  45.9626961  61.3875427
  15.2154760  45.1217613  61.7956772  14.6486158  46.4920883  62.0987701
  51.5511971   5.5955029  13.7843456  51.4123421   4.6553721  13.6698675
  50.7617760   5.9015899  14.2308397   0.1675299   6.6707153  87.9657440
   0.7159225   5.9851990  87.5842133  -0.4607911   6.1984725  88.5120316
  70.9717178  43.5106430  67.2625580  71.4951935  43.9640198  67.9233551
  70.7863464  44.1795959  66.6034851  34.3578606  56.1902161  85.0562134
  33.5072060  55.8252945  84.8123779  34.9807739  55.4857101  84.8776703
  19.4822731  69.1464310  42.1536980  18.5861301  68.8762665  41.9532700
  19.5241394  70.0616989  41.8766365  66.7289963  67.3094559  44.3839302
  66.0452194  66.9765854  43.8026505  66.4106064  67.1134644  45.2650948
  25.5002213  22.7285614  84.9301605  26.3224182  23.0975437  84.6075516
  25.1344414  22.2641029  84.1773529  79.0752487  13.5479050  46.0043411
  79.6689301  14.0978422  45.4931259  78.2006836  13.7985687  45.7067947
  14.7157688  71.3554382  52.7744980  14.2941637  72.1924286  52.9692497
  14.0581007  70.8649902  52.2813835  66.2406082  41.3417892   4.3122754
  65.4484863  41.7090111   4.7046032  65.9390488  40.5583572   3.8523529
  12.4202442   2.3645926  80.4314499  13.0768080   3.0573661  80.5036926
  11.6281576   2.8149350  80.1381531  12.6592569  19.3877258  82.0874557
  13.4055853  19.8042374  82.5184326  12.9209137  19.3184757  81.1693192
  64.6119614  62.6182785   6.5557837  65.3311615  62.8331184   5.9617915
  63.8208656  62.8335037   6.0617399  58.9424210  49.5690575  80.0984879
  58.1583710  50.0428467  79.8209610  59.1653023  49.9512253  80.9473190
  33.8917351  15.6145468  60.9334717  34.3134651  16.4639206  61.0636177
  33.2367096  15.5632000  61.6295586  41.9342613  18.7082825  64.9365997
  41.2358437  19.2431736  65.3138733  41.4946518  18.1697941  64.2785645
  60.5879173  38.5908203  11.9005632  60.6696968  38.8472443  10.9819813
  59.7217941  38.1877480  11.9605169  19.6960201   8.6585588  23.9791164
  19.5224934   8.8992729  24.8891582  19.2425995   7.8238025  23.8615360
  85.4207153  62.3122177  22.6303425  85.9906082  61.5446053  22.6775131
  85.9562302  62.9823685  22.2056694  15.7775297   8.6274166  71.9733047
  16.5037975   9.1418324  72.3256531  15.0646744   9.2580261  71.8713226
  25.5897388  60.5814629  25.9475231  25.9384918  61.4658737  26.0589504
  26.2973156  60.0064926  26.2390347  66.3332901  19.5169220  35.4571342
  65.7816772  19.5254555  34.6749077  65.7142258  19.4830456  36.1864090
   7.7593861   0.8803661  46.3908730   8.6194963   0.4929541  46.5532112
   7.3115907   0.8318931  47.2354774  74.0936127  19.1520672  70.0369949
  75.0442810  19.1057777  69.9354172  73.8614273  20.0259056  69.7227783
  25.2846889  11.6924438  27.7902908  24.4131069  11.6063910  27.4040623
  25.1763515  11.3968134  28.6942253  60.6040497  47.3452568  20.1256199
  60.3451767  48.1868057  20.5011272  60.1840096  47.3273277  19.2656918
  78.3428879  54.3808556  55.3725891  77.7505722  55.0620575  55.6909523
  77.9020996  53.5594559  55.5899315  85.0271225  23.4281273  44.4529343
  85.7532806  23.6099892  43.8563995  84.4758530  24.2091274  44.4042892
  19.4412556  59.8534813  52.6573219  19.2241974  60.7856064  52.6734352
  19.4829998  59.6013031  53.5797615  52.8514328  49.4679451  80.7633820
  51.9493141  49.6065178  80.4749222  53.3656502  50.0901337  80.2488937
  80.3305893  54.5257492  70.9538803  80.2386093  53.5776672  70.8594437
  81.2750626  54.6701813  71.0115967  37.0038338  61.3816948  44.8577881
  36.4643784  60.6736221  44.5058594  36.4253883  62.1443329  44.8614998
  38.2314453  51.8844414  12.9927769  37.3993263  51.4457130  12.8157768
  38.8976173  51.2407455  12.7517271  74.1512756  57.4645691  70.6563568
  74.7090759  56.6892204  70.5937042  73.3902817  57.1722488  71.1580276
   2.0938702  12.0791321   9.2487917   1.5082837  11.9001684   9.9845171
   2.9227402  12.3283987   9.6575365  12.4886837   5.2658749  47.8827744
  12.5662918   5.2519736  46.9288254  12.5426617   6.1931620  48.1139793
  34.1242752  51.9175911  45.4772491  33.6321678  52.3822479  46.1541214
  35.0379524  52.1493645  45.6437073  11.1336765   2.3003972  36.1816559
  11.8450384   2.5377402  35.5867920  10.6015854   1.6801280  35.6832809
   6.0866394  10.2176609  83.7147903   6.9666238  10.5093985  83.9530106
   5.5017891  10.8033390  84.1955872  65.0356979  47.3787842  21.2806664
  65.5054932  46.6122055  20.9522171  64.3123856  47.0156136  21.7916985
  33.6697083  49.9762878  23.0957108  34.5575180  49.6228752  23.0398064
  33.2987518  49.8307838  22.2253933  60.4233055  10.8352604  83.4756851
  61.3008461  11.1913300  83.6148529  60.5096092  10.2821760  82.6992264
  34.8437691  63.1692848  77.6764221  35.0788765  63.6196861  78.4876556
  34.9397888  62.2394218  77.8822556  22.4154701  55.5334740  31.1200066
  21.9555798  54.8827820  31.6504154  23.3432159  55.3417130  31.2569256
  80.1372452  41.0007172   3.5249236  79.6351395  41.5876465   4.0902824
  80.8764038  41.5303688   3.2260110  64.0422134  60.3006935  37.3897514
  64.7302475  59.8759308  36.8774834  63.6518822  59.5917358  37.9008789
  73.0741196   7.7360964  28.9975224  72.8456497   6.8121924  28.8953743
  74.0307541   7.7441368  29.0295334   0.2795992   2.5026886  24.8136673
   0.3730541   3.3572190  24.3926258   0.1504048   2.7050784  25.7402630
  12.4074221  46.5422134  88.9969101  12.9567842  47.1408806  88.4909210
  12.9519205  45.7648849  89.1214676  67.7397614   0.8509658  82.1290436
  68.3936462   1.5492456  82.1619186  68.2508240   0.0424012  82.1647186
  74.5877228  32.3908768  50.0026169  74.5770111  32.9516640  50.7782669
  74.0945587  31.6128349  50.2627525  56.7422981  12.1085854  13.4961834
  56.5407791  11.8017187  14.3801823  57.6493988  12.4097433  13.5481682
  27.4879513  22.0807362  50.5817184  26.9221897  21.5233688  50.0474052
  27.1365604  22.9630814  50.4624519  55.7207794  47.6828003   6.0817275
  55.5987015  47.0940514   5.3369417  55.3077278  48.5022545   5.8094783
   4.6260290  65.9814377  41.0357513   4.2040110  65.4581528  41.7171516
   5.5626278  65.8962860  41.2139740   5.4381623  69.8851242  80.9197388
   4.7337632  69.7100830  80.2957001   5.4469008  69.1181641  81.4923859
  62.6923676  25.5564423  11.5595798  62.6007500  26.5051308  11.4710999
  63.3159752  25.4418850  12.2766733  51.6551285  46.6517563  17.2268066
  50.7243385  46.8352165  17.0995007  52.0941772  47.4710503  16.9982815
  55.8289490  37.5139771  61.6758003  54.9643631  37.7141953  62.0344582
  55.7521095  36.6163254  61.3524551  67.2477188  57.2714500  15.8595505
  66.5144958  56.9377098  15.3426037  67.9334106  57.4491577  15.2157488
   7.6929393  11.6274309  20.7711678   8.1942692  11.0597506  21.3565216
   7.9896660  11.3880081  19.8931808  58.0522575  23.4720955  54.4785995
  58.0038948  24.2147484  55.0805626  58.9798889  23.4079571  54.2514000
  78.1756973  20.4950809  54.9530945  78.8358612  20.2370777  55.5964050
  78.4082565  21.3934383  54.7183571   7.5987945  53.1734734  19.5964222
   8.0296392  54.0220451  19.6990566   6.7629061  53.3783798  19.1774540
  86.0143585   0.3219287  39.2433701  86.7096863   0.7987401  39.6965866
  86.4418488  -0.0481643  38.4710274  22.0559025  12.5329275  18.5034943
  22.9097309  12.9108353  18.7141914  21.8243752  12.9200678  17.6592503
   8.5668850  45.9384727  75.7805710   9.0387974  45.1698647  75.4599915
   7.9948368  46.1882019  75.0548782  38.5057297  29.3535671  63.0577545
  38.8231049  29.8350410  63.8217506  38.3928642  28.4558907  63.3702812
   7.3531036  58.6779327  87.9326172   7.9863610  58.7760658  87.2215652
   6.5931315  58.2661552  87.5213776  14.3842421  25.1381817  55.6632614
  13.6181183  24.8553581  55.1639633  14.4486895  26.0776196  55.4914055
   4.5601897   2.9556003   6.3078179   4.8626518   2.4203753   5.5741405
   5.3637533   3.2672231   6.7242408  29.3483047   7.5222688  37.7392502
  29.9540558   7.7012892  38.4584503  28.8446083   6.7634063  38.0336113
   8.9226828  63.7658844  56.0248451   9.8772774  63.7512131  55.9558067
   8.7518225  64.0505981  56.9226074   0.9491518  41.6578827  73.5038834
   1.7290862  41.1032333  73.5212250   0.5455856  41.4771881  72.6549301
  11.9622650   8.6541739  32.0648270  11.8109903   9.4248276  31.5176144
  12.8490744   8.7724133  32.4051514  75.8658142  12.2215376   7.8349514
  75.6797943  12.9357986   7.2254777  75.5943756  11.4313364   7.3678999
  85.5285034  59.0803261  31.9045143  86.4752731  59.1813698  32.0027618
  85.4190292  58.2102242  31.5208874  62.4627533  38.7650185  28.1240616
  63.1053009  38.2632866  27.6224365  61.8611031  38.1057205  28.4698658
  33.9532967  53.1647530  50.4649162  34.8166924  53.5738792  50.5231819
  33.9674225  52.4794273  51.1330223   2.6404803  68.0300522  62.6417503
   3.5036998  68.1527863  63.0367470   2.7349894  67.2481537  62.0977516
  29.9793339  71.6348724  50.0788651  30.6125526  71.8438950  50.7655792
  30.3956451  70.9364929  49.5737076  85.6421127  68.4249573  46.6599541
  85.6809464  69.1276932  46.0112000  84.9069977  68.6614838  47.2255440
  85.2649002  43.7854767  15.4580307  84.9347687  42.9004402  15.6128149
  84.5499344  44.3593407  15.7332420  82.3396225  13.2036438   3.2570367
  81.8197327  12.7953691   3.9493253  81.7783127  13.8992701   2.9145925
  20.2285576   0.6984144   7.4363971  19.6259098   0.1295737   6.9573689
  19.7201157   1.4894303   7.6153202  46.3228111  28.2766933  15.7027245
  46.6039848  27.5058784  16.1956940  47.0645294  28.8793163  15.7568874
  39.4473610  63.8929787  87.7844620  39.4740105  64.2003555  88.6905746
  39.4593658  62.9384499  87.8548965  76.1701279  32.2891693  71.2095871
  76.1244125  32.6581612  72.0916214  76.7025223  31.4997387  71.3075104
  46.5149956  11.6058512   4.1047721  47.4046822  11.8999186   3.9092956
  46.1505203  12.2967110   4.6580372  76.3140488  63.8867302  21.2328110
  75.6930695  63.6375351  20.5483284  76.8899765  64.5255203  20.8126984
  70.6344681  54.0481644  39.2275429  70.7285309  54.8711624  38.7478981
  70.7474747  53.3690796  38.5624809  81.4557724   5.0710173  38.1562920
  80.5534134   4.7530856  38.1863632  81.5340042   5.6423488  38.9202881
  56.9120827  26.3391972  10.1297569  56.9870110  26.2324753   9.1814804
  56.6048965  27.2382736  10.2460651  77.5555115  40.1046791  73.3670654
  77.3294525  40.9842682  73.6694717  78.0675125  39.7293243  74.0834427
  62.8482285  43.0049515  59.3383179  63.4790993  43.7239914  59.3034706
  62.0128059  43.4286385  59.5352745  56.3168297  52.1941872  61.2178497
  57.2207527  52.1606483  61.5309486  56.3065872  52.9190750  60.5928230
   9.5208740  38.0299377  18.3430576   9.8513174  38.9034843  18.5527058
   8.7138777  38.1901627  17.8538570  17.3157463  14.2731810  88.8985138
  17.0005856  14.8139858  88.1743317  18.2491035  14.4762287  88.9605331
  21.9417286  58.3267822  48.6820068  21.9239292  58.2992554  47.7253685
  22.7506828  58.7928543  48.8931961   7.8015594  11.1631670  40.7807274
   6.9724169  10.7725554  41.0567284   8.1292200  11.6072063  41.5628395
  15.1595182  58.6130028  45.9916000  15.1898975  57.6643944  46.1158867
  14.8652458  58.7268600  45.0879021  14.4474134  30.8885269  61.6982536
  14.8163595  31.7059479  61.3636932  13.6988840  30.7125854  61.1281853
  52.2549095  30.7774601   5.4270763  51.6050034  30.4124794   4.8265409
  52.7496033  30.0180588   5.7350082  15.2443018  45.9654884  67.5529633
  14.7538815  45.5103455  68.2374802  15.0732288  46.8936462  67.7126160
  10.2112637  41.0384712  81.8362198  10.2933817  41.8878059  82.2699432
   9.6008425  41.1954422  81.1158142  17.1930656   4.4407201  17.4356327
  16.3107452   4.8118343  17.4317284  17.0545769   3.4936211  17.4281273
  79.2060776  43.5070000  28.3262558  78.4602203  44.0246315  28.0229568
  78.9133835  42.5986977  28.2517490   1.1023738  15.8741465  85.6784592
   0.6065108  16.5513992  86.1385422   1.6277138  15.4565763  86.3610153
  46.5689697  22.5646877  81.2465210  46.6260109  21.9593029  81.9857635
  47.4706268  22.6501083  80.9367676  82.3015594  28.7719517  22.3901501
  81.8439484  28.1495914  21.8249130  82.0800705  28.4955444  23.2794056
  44.1182480  14.2329464  67.8475342  45.0500298  14.2213326  68.0663452
  44.0904350  14.0496130  66.9084702  40.9370499  43.9072609  82.4499817
  40.2111130  44.5268097  82.3764572  40.5574532  43.1441383  82.8856201
  10.0007057  13.9724474  62.9201317   9.0551453  13.8694324  62.8127327
  10.3053484  13.1094093  63.2004738  63.3660202  57.4437752  16.4231930
  62.7761269  57.3031845  15.6825914  64.2371902  57.2541466  16.0748577
  85.9054718  27.0087490  30.2263393  86.2807159  27.5441952  29.5272541
  86.4657135  26.2334118  30.2611542  41.4765778  23.9982548  64.3310852
  41.7433891  24.5207729  63.5747681  42.0889549  24.2482738  65.0229797
  65.7061310  13.7774286  81.4757462  65.3909531  13.4979439  82.3352661
  64.9872360  13.5711832  80.8783417  43.0563622  40.3453178   7.3369365
  42.8815842  39.4489632   7.0501809  42.2313499  40.6381111   7.7240529
  62.1632118  63.2140656   5.0008597  61.3730698  63.4596519   5.4820991
  62.5368462  64.0469513   4.7128863  71.6654663   5.0704069  69.6665039
  71.7865372   5.0493889  70.6157837  71.9442596   5.9491239  69.4088898
  36.6915054  48.5734863  41.4610825  36.9785423  49.3277130  41.9758492
  35.7890129  48.4215660  41.7415466  22.7735863  53.4195099  86.6972733
  23.4552727  53.9509506  86.2860489  22.6986427  53.7707977  87.5845261
  22.4222126  57.6791992  10.0543909  23.2347012  57.9449234  10.4850683
  22.5759716  56.7716103   9.7919655  20.1532516  68.8314362   3.8858755
  20.8087616  68.1340103   3.8973303  19.3621922  68.4111099   3.5485656
   2.6637366  50.2285500   4.0809383   2.3435197  50.4929581   3.2185111
   3.6119413  50.1554871   3.9723048  28.3607807  68.9784012  86.6934967
  28.5217457  69.8597794  87.0303726  28.4272537  69.0694580  85.7429581
  44.9833755  47.6616135   7.8062263  44.9405441  47.4904480   6.8654289
  44.2046509  47.2344437   8.1630831  60.2744789  33.4472198  26.1590996
  60.7023354  33.2426224  26.9905510  59.7725105  32.6600227  25.9479637
  18.3496933  40.4049683  84.1800613  18.9377880  40.7641029  83.5156860
  17.5593491  40.1654854  83.6960907  12.6148462  55.1740379  16.3233700
  11.7249031  55.1586609  15.9712381  13.1214123  55.6604271  15.6729469
  65.5679245  61.6008682  51.3671150  64.8446350  61.5923576  50.7402039
  65.9443512  62.4772530  51.2866249  78.7458649  27.2024364  31.5192184
  79.5887451  27.4619427  31.1471310  78.1955185  27.0159054  30.7585926
  69.0487442  66.7602768   4.0050941  69.8626175  66.4819489   4.4250655
  68.8901367  67.6393204   4.3491287  47.7938309   4.2837152  18.9383202
  47.9224892   3.7596178  18.1477489  47.6537971   5.1738586  18.6154156
  58.6518440  39.4510498  17.7349815  59.2061958  38.6708374  17.7489204
  58.7726517  39.8461571  18.5984230   2.6647627  26.3883286  32.7304459
   3.4079740  26.9396324  32.4856339   2.0358038  26.5041122  32.0182419
  33.4469948  52.2185211  37.8400230  34.1306686  52.8225365  38.1298294
  32.6391449  52.7295532  37.8896217  40.4544983  68.2541580  44.1871986
  41.3998795  68.2795486  44.3349915  40.3468170  67.6896057  43.4217491
  47.7500763  16.4078236  32.2240639  47.3928757  15.6530714  31.7561035
  47.3288536  17.1641426  31.8156700  36.6709480   3.1612713  28.1360283
  36.3120918   2.7695377  27.3397884  35.9560051   3.1117079  28.7705612
  76.9497375  56.9641647  62.8791885  76.3694687  57.2112045  62.1591301
  77.7923737  57.3583679  62.6537819  34.0174980   5.3269186  64.9793320
  33.3184700   5.3183136  65.6331863  34.0299530   4.4357142  64.6302872
  42.6014442  54.3903313  57.2506371  43.0335960  54.9910431  56.6434975
  41.7030144  54.3273621  56.9264565  27.6966324  62.8799171  56.5904617
  28.4901772  62.3645020  56.4460182  27.0097942  62.2280579  56.7303276
  16.5314102  68.3578339  79.2119293  17.3318844  68.0227737  79.6159134
  15.8250046  68.0128860  79.7580338  45.0958710  27.3107090  38.3647499
  44.9600601  26.5330486  38.9060745  45.7341537  27.0358543  37.7065086
   5.3814659   2.2664332  32.1791687   4.5789571   1.7529719  32.0866013
   5.4619532   2.4173462  33.1209641  19.5406609  58.8239899  16.0431194
  19.8152637  59.3637276  16.7844086  18.8196964  59.3121681  15.6454725
  57.1705246  22.7945347  18.1105423  56.7926521  23.5848122  18.4964275
  56.8364830  22.7826786  17.2135983  46.0114937  30.5100822  61.5975380
  46.3696022  31.2165775  61.0600853  45.1285133  30.3722782  61.2546196
  18.8104610  43.8182907  46.0403481  19.5098858  43.1649590  46.0541458
  18.2790413  43.5842171  45.2794037  17.3695736  36.3421898  52.1795349
  17.1349316  35.5642738  51.6735458  17.0514069  36.1580162  53.0633240
  32.2052765  29.0324211  71.7631226  31.3490620  28.9319248  72.1790924
  32.6937294  28.2534122  72.0291901   3.4056196  47.6909904  75.7673340
   3.2010896  47.7790260  76.6982727   4.2136788  48.1908035  75.6513290
   0.1717960  12.0390902  82.9421234   0.9709806  12.0335560  82.4153366
   0.1819768  11.1994390  83.4015961  67.4415894  30.0848370  28.4340744
  68.1268234  29.7647076  27.8473892  67.9172058  30.4793587  29.1650848
   6.8881583  69.2203674  20.4872780   6.1490831  68.8992157  21.0038643
   7.6246223  69.2229080  21.0987072   3.1841233   1.1473664  51.3854065
   3.6265996   0.6326196  50.7105141   3.3065612   0.6432752  52.1898537
  16.4407406  20.2670097  18.6692352  15.9349241  20.0677929  17.8813953
  15.7829971  20.3652859  19.3576736   8.9116554  56.1352539   8.7640142
   9.2576733  56.8993607   9.2251482   7.9618578  56.2091980   8.8570127
  24.9457474  38.0367012  76.3857880  25.2314301  38.9483871  76.3271103
  24.3781033  38.0126839  77.1561356  61.4770241  16.6256828  50.4727249
  61.6782303  15.7215147  50.7140274  61.1168976  17.0121365  51.2709732
  20.3530407  63.5488434  88.0365753  20.8595963  64.2037201  87.5561905
  21.0114403  63.0203056  88.4875641  14.6665936  36.1345901  54.2730064
  14.7164021  36.9575615  53.7867279  14.1926870  35.5406952  53.6908264
   7.6667581   3.2907867  89.0283432   7.1643286   2.7366467  88.4310837
   7.0622458   3.9926620  89.2695236  25.8930264   3.4655039  52.6623306
  26.3573322   3.9006383  51.9472694  25.2871742   2.8669918  52.2253418
  20.7469463  18.4963493  18.7069893  21.1738205  19.2755375  18.3507938
  19.9575939  18.3917160  18.1757584  60.2102051  52.7463608  20.8618393
  59.4254189  53.2350807  21.1098118  60.9062424  53.4032478  20.8454857
  76.1498184  38.2944946  16.7025185  75.2301941  38.0347862  16.6470509
  76.1359634  39.1245270  17.1790504  20.2239895  46.7922287  21.2374153
  19.4736118  47.1768646  21.6904259  20.6818275  46.2929153  21.9136562
   6.6860452  37.7276573  66.4366302   6.5398183  38.3243561  65.7025986
   5.9256196  37.1463585  66.4279022  84.4412003  23.8958206  33.6756554
  84.3378525  24.2341766  34.5650749  83.5914078  23.5079689  33.4666977
  13.2566319  45.8456650  65.2031097  13.1647491  46.5064545  65.8895111
  13.8542852  45.1964836  65.5740662  17.7714272  43.7544899  55.0884323
  18.3776989  43.6205444  55.8169441  17.6741447  44.7049026  55.0294380
  32.0790825  21.0505753  85.7829208  31.5479870  21.8469200  85.7810364
  32.7959862  21.2422295  86.3875275  30.3672371  25.9679470  64.4044037
  31.3196907  25.9971066  64.4950333  30.1278286  25.0818176  64.6758652
  44.4335213   0.5743209  22.4003277  44.9099808   1.2520785  21.9208870
  45.0798836  -0.1170051  22.5435658   3.6666739  43.6743355   5.4349880
   4.0997138  44.2950401   4.8489552   3.9612257  43.9259071   6.3103065
  58.1574211   1.1052669   5.2729568  58.7617607   0.3643634   5.3184276
  57.2892189   0.7041201   5.2337580   6.9315710  61.2986946  65.4228516
   7.3544912  61.4291763  66.2715836   6.2437549  61.9637222  65.3932266
  25.7254829  54.5435257  84.9385986  24.8849354  55.0007095  84.9121704
  26.2537518  55.0490112  85.5563736  12.0634661   8.0943213  82.2942276
  11.9124241   8.7749615  81.6383743  12.1987162   8.5746164  83.1110840
  29.7563305   3.6595860  73.9175110  30.3234272   3.6288838  73.1469955
  30.0437794   4.4374127  74.3956223   9.7687263  36.9195747  83.6293869
  10.5509243  36.4758148  83.9572220   9.2012482  36.2112617  83.3252640
  32.0009460  17.1232853  82.6109619  32.8319817  17.2648735  82.1575699
  32.0639496  17.6613235  83.4001236  13.5466595  58.3355484  73.3201370
  12.8299112  58.9689865  73.3556061  14.1800270  58.6542778  73.9631653
   6.4397058  17.6621914  81.1953354   6.6436534  16.7840919  80.8734970
   5.5032268  17.7673092  81.0274353  81.8463974  59.2952499  41.6817589
  82.3760452  59.2830353  40.8845406  82.2182693  58.6019745  42.2270203
  58.5642090  55.8957634  88.3155823  58.7104073  55.5987854  89.2137299
  58.3506241  56.8247948  88.4022827  58.8744850  54.9765167  33.9469070
  59.7459412  54.6643944  33.7032318  58.4016724  55.0388680  33.1169739
  26.4633217  41.4289589  62.7881432  27.1000366  40.7585907  63.0359955
  26.5332870  42.0915108  63.4754295  24.3896198   1.9241205  56.1018906
  23.4618187   2.1126406  55.9609032  24.5317116   1.0828269  55.6679916
  80.1044769   1.7021482  64.7376709  79.9364929   0.7824788  64.5321884
  79.3713608   1.9605455  65.2962341  85.2885132  31.4477272  19.6479034
  84.4958954  31.2922554  20.1615353  85.3859406  30.6596870  19.1133614
  61.3046036  30.0177326  16.0102959  60.5513000  29.4877701  16.2708836
  61.9106064  29.3930321  15.6118784  56.3991776  48.1111298  76.3693542
  56.3152046  47.4341850  75.6978455  57.2287331  48.5449562  76.1696930
  54.5281754  29.4363956  18.0267315  54.9634209  30.1943188  18.4170437
  54.3493004  28.8557339  18.7663708  72.8432159  11.9464979  80.8411179
  73.7169800  12.2430592  81.0956955  72.2705536  12.6860218  81.0445862
  46.1877022  70.1422653  22.7937069  46.5607147  69.9828873  21.9267063
  46.6336708  69.5169525  23.3649578  10.4994307  22.8058853  16.7205009
  10.3899765  21.9346676  17.1015949  10.1387253  23.4016056  17.3771915
  14.3441133  13.6648817  11.7674885  14.9604883  13.0598335  11.3548985
  14.0680637  14.2459259  11.0586748   3.9424846  68.8934860  49.6082001
   3.6064351  68.0533676  49.9204521   3.6400084  68.9504929  48.7018394
  53.0343361  55.3732376  36.7583923  52.5332718  56.0833282  36.3572197
  53.3551407  54.8584175  36.0179329  47.5716743  19.4687729   3.6107211
  48.3959618  19.2341251   3.1844339  47.6733246  20.3934975   3.8360703
   2.4924617  25.6280155  76.0865326   1.8055612  26.2902699  76.0102539
   3.2236977  26.0877914  76.4990082  71.7949905  24.5392380  52.2672882
  71.5826340  23.7210808  51.8181152  71.5157700  24.3955040  53.1715088
  15.4865141  40.6864090  24.8193932  16.0166473  41.4705505  24.6768799
  15.3089628  40.6850204  25.7599812  53.2148094  22.1184387  17.9209499
  53.5973015  21.5243607  18.5667057  52.6655540  21.5565300  17.3743172
  21.7083588   0.8637125  60.2069511  21.7600803   1.7599262  59.8747520
  22.4144268   0.4002031  59.7565536  72.5019684  47.1545029  20.4519005
  73.1533051  46.4612732  20.5587769  72.6071548  47.7038078  21.2287083
  51.8942642   8.7342882  41.8635330  51.5046654   9.5041752  41.4491425
  52.7315407   8.6184254  41.4143333  57.1169434  53.7409134  58.5799484
  57.3464355  53.3539200  57.7350807  57.9590454  53.9127159  59.0013504
  54.6794548  45.6187286  17.7764034  53.8800430  45.6679535  17.2522373
  55.3892059  45.6825523  17.1373310  80.6306839  30.8259773  70.1832581
  80.6356201  30.6403751  69.2442398  80.5072861  31.7735233  70.2394714
  70.1208954  36.5825768  52.9920197  70.6776047  36.1307297  53.6261673
  70.7314835  36.9290657  52.3413544   6.1812353  33.9430351  79.5765915
   5.6040792  34.4889259  79.0426254   5.6247706  33.6340179  80.2914963
   7.9330344  31.4721985  78.0000763   7.3419194  32.1226883  78.3791275
   8.4926367  31.2036705  78.7287521  71.9418945  38.5447273  69.4117508
  71.9004593  39.3685570  68.9261322  71.1644669  38.0619278  69.1311340
  21.8141365  34.0887032  84.9959793  22.1033401  34.6492004  84.2759476
  22.6190395  33.8639450  85.4627151  11.7448711   7.2460337  68.1665573
  12.6927910   7.1740961  68.0547333  11.6155367   8.1055593  68.5674515
   2.6175559  15.0505085  24.1034203   2.5184426  15.2587223  23.1744118
   2.0752580  14.2725811  24.2337036  59.6346626   9.9709730  31.8227634
  58.7577744   9.7455463  32.1333771  59.6891251   9.5766678  30.9522533
   2.4126875  43.2559509  60.1418686   3.0978556  43.8288040  60.4862785
   1.6365687  43.4736824  60.6580734  63.7630157  29.2438698  19.9961319
  63.7364006  28.3323174  20.2869797  63.2781715  29.7237720  20.6675873
  75.8500977  27.6188393  87.0542450  75.2286835  27.1387653  86.5068893
  75.3044357  28.2052326  87.5782928  33.7497292   7.9974117  62.6149025
  34.3346214   7.2537751  62.7602882  34.3315620   8.7135582  62.3602791
   0.7405163  49.1865883   8.8515120   0.0841494  48.4935226   8.7802849
   1.3472446  49.0168381   8.1308889  54.4372864   8.8759527  39.7132835
  55.2828903   9.3226652  39.6728516  53.8637505   9.3975925  39.1518745
  60.0137138  62.7275124  68.1584549  60.9294434  62.7762260  68.4328613
  60.0531082  62.4716034  67.2369385  45.1297607   3.1104460   6.4365072
  44.3019791   2.7581701   6.1095395  45.2617531   3.9156284   5.9360156
  15.5469027  65.1628647  33.4350357  15.6677666  66.0229187  33.0326424
  14.8054228  65.2785034  34.0292282  47.7561913   5.7609520  88.5853729
  48.0976982   5.0524421  89.1309128  47.9892883   6.5603652  89.0574265
  60.8463821  33.6466866  41.9352646  61.6699142  33.2935257  42.2718735
  60.2865143  32.8791122  41.8186111  28.1348419  67.5951843  48.3398209
  27.3929176  67.5197220  48.9398918  28.5192184  66.7187119  48.3227882
  74.3266373  28.0392742  12.3106833  75.2505341  28.0032196  12.0629845
  73.8543930  28.0141068  11.4784698  84.9729614  66.5547562  72.8642349
  85.5904541  65.8360367  72.7286987  85.4890289  67.2357483  73.2957077
  54.1734543   8.7694082   2.7132390  53.2980766   8.5834236   3.0528848
  54.7673111   8.3907318   3.3614438  35.4201660  10.8021660   1.2395134
  34.6034012  11.0693130   1.6611243  35.2596092   9.9025230   0.9547419
  11.8133011  48.9496918  25.3323174  11.0483723  49.2539101  24.8438835
  11.6632357  49.2551537  26.2269707  72.7096558  60.7539940  12.0834160
  73.4927902  60.5454330  11.5740709  72.0213013  60.2128067  11.6967497
  58.3120537  65.2437973  82.1223831  58.3797951  65.4571686  83.0530319
  59.1249313  65.5753174  81.7408600  81.8284760  31.6567764  24.9864254
  81.8076096  32.4466438  25.5267086  82.0028687  31.9766064  24.1012535
  21.1942520  69.9194641  39.8806534  22.1320763  70.0958099  39.8056793
  21.1265392  69.2815323  40.5910683  66.3173599  63.9781990   4.4916816
  67.2380600  63.8203583   4.2827911  65.8528137  63.8043938   3.6730123
  43.3408394  48.9772301  62.6456070  43.5201950  48.1078491  62.2874985
  44.2044029  49.3777390  62.7459984  44.6424141   3.6871140  28.1758652
  43.8860016   3.4573400  27.6361637  45.3156090   3.0538902  27.9267368
  34.4470520   8.1224842  56.6988792  34.2119446   9.0499105  56.7277985
  34.0205574   7.7432003  57.4673042  69.1993179  39.6145401  15.2224684
  69.4155426  39.6043663  16.1548710  68.9344559  40.5176430  15.0478640
  69.6333237  15.0727100  41.1182022  70.0057373  14.7726650  40.2890396
  70.3424988  15.5608158  41.5365944  16.2575607  63.2197151  68.2270813
  16.9015770  63.7911339  67.8088074  16.4648438  62.3447189  67.8989868
  54.9276466  50.0724945   5.2904172  54.2931404  50.2139931   4.5878444
  55.5031586  50.8363342   5.2508149  50.0425911   2.5405524  83.6895752
  49.9182281   2.0494237  84.5017090  50.3708382   1.8928808  83.0658722
  40.9039688  54.1321487  87.0593796  41.1714401  53.7444420  86.2260895
  41.5273895  54.8440781  87.2033691  42.6908646  71.2885208  76.9799347
  43.4601974  70.8233109  76.6513901  42.9895096  72.1898804  77.1007538
  29.9757099  60.9548187  63.4991646  30.5310040  61.6787682  63.2097282
  29.7170105  61.1925507  64.3895569  27.5227394  57.4087982  60.6959648
  27.8867817  58.2431679  60.9918213  27.9933128  56.7483788  61.2045326
  73.6090393  33.7823677   3.1548302  74.2842026  34.0559349   2.5339084
  73.7513123  34.3359337   3.9226544  26.8101673   4.1425896  32.0635185
  27.5736580   4.6866798  32.2565956  27.1014252   3.5620162  31.3604317
   6.6967511  64.6481400  42.6282043   7.5004697  64.2638474  42.2780800
   6.6987162  64.4052734  43.5540771   6.1510329  15.8828192  18.9910507
   6.3944783  16.5429649  18.3420696   6.8974261  15.2840328  19.0152130
  54.2069016  29.1185341   3.6537812  55.0126076  28.9737129   3.1576951
  53.8272324  29.9083519   3.2687237  14.9280567  29.2921867   8.4238043
  14.4573498  29.8857059   7.8386545  14.2516184  28.9393997   9.0019093
  49.5628281  14.0740948  28.4576302  48.8745308  14.7367144  28.5160542
  49.7540283  13.8464899  29.3675041  57.5715828   8.1188154  83.1430893
  58.3695030   8.2242184  83.6612091  57.0489082   7.4850974  83.6344604
  29.8655224  12.7757225  39.7612724  30.7265263  12.7330885  40.1773109
  29.4087124  13.4759521  40.2273560  51.6715775  45.4442062  38.1604385
  51.5439034  45.4601822  37.2119255  51.6884460  46.3666687  38.4154091
   1.3881085  63.9997253  46.5365753   2.2042897  64.1553650  46.0613327
   0.9682936  64.8588867  46.5793686  25.1113281  35.9558105  85.6667862
  26.0091686  36.1295166  85.9495316  24.5708771  36.2143059  86.4133301
  20.1009369  13.7325716  73.0650101  19.1694069  13.9515362  73.0418549
  20.2514000  13.2403212  72.2579880   3.7876525  56.9541321  75.9887772
   3.5468905  57.6912804  76.5499191   3.3494656  57.1332970  75.1568375
  84.5789642  47.1159821  43.7578201  84.2776794  47.9224358  44.1762543
  85.1721954  46.7215958  44.3971710  64.1514740   2.5564203  69.4070282
  63.7483940   2.3640444  68.5604172  64.9635239   3.0131257  69.1874237
   6.3406558  30.2709560  34.6397743   5.7199311  30.9672871  34.8543816
   7.0910411  30.7277699  34.2596779  53.1361504  55.1902809  67.7468338
  53.1523247  55.8321037  67.0368805  53.4987564  55.6568871  68.4998474
  68.7332306   8.9408512  70.8165970  68.0132370   9.0420685  70.1940231
  68.3747177   9.2477684  71.6493607  60.4938354  25.7639751  86.5150452
  60.3110695  24.9377556  86.9624710  60.9530334  25.5068989  85.7154999
  40.7059593  31.0654373  70.1317062  39.8981590  30.5678329  70.0048752
  41.3199348  30.6903667  69.5003662  26.8516006  16.3514194  86.2539902
  27.5757542  15.7351313  86.3636246  26.6649551  16.3371105  85.3152695
  49.2929230  70.8432922   3.6564145  48.5164108  70.4997482   3.2145567
  49.1192741  71.7797012   3.7523730   6.9778891  24.3555031  31.3164711
   6.8333135  25.0852203  31.9188328   7.9195986  24.3690376  31.1454964
   6.2590570  25.2801991  87.4529037   5.7527809  26.0903378  87.5128326
   6.9225821  25.3611813  88.1380386  30.2009449  18.1303177  75.0059814
  30.2511463  19.0418453  75.2937775  31.0542355  17.9574013  74.6082001
  77.6789398  36.5057640  18.3908443  77.0396423  36.8559265  17.7704277
  77.6253738  37.0913925  19.1460934  65.7260437  16.3926945  13.7552404
  65.9546967  15.5349398  14.1133022  65.1984024  16.8048763  14.4392948
   1.9680634  51.8802719  33.2537956   1.6932901  52.5433159  33.8871231
   2.0165164  52.3499184  32.4211388  26.6123905  45.1538200  72.0876999
  27.1041374  44.3328323  72.1076965  26.3472748  45.2520027  71.1732025
  25.4782753  23.3027992  54.2045593  25.2137928  23.0001984  53.3358154
  24.6592140  23.3657436  54.6958923  39.8325195  44.9554176  64.8566208
  40.0378609  45.1033096  65.7797623  38.9154892  44.6810379  64.8562088
  67.1047211   4.1493707  80.3368912  67.8605499   3.9206192  80.8778534
  66.6701508   4.8535495  80.8180466  66.4473038  54.9766960  34.7901535
  67.0000992  55.7033958  35.0774765  67.0655289  54.3003731  34.5133553
  47.5757866  17.9864769  36.6410599  46.8519783  18.4333286  37.0799866
  47.5796547  18.3496113  35.7554245  39.5470848  68.6470184  16.6424732
  40.0346375  68.0645599  16.0600090  40.0619736  68.6648941  17.4491959
  51.9203033  69.6564713  43.9070358  51.4520569  69.3783264  43.1198769
  51.5899849  70.5373611  44.0835152  37.0002441  12.8523417  11.5197191
  36.1153107  12.5233088  11.3620501  36.9036522  13.8046131  11.5286722
  74.1650467  62.0483284  14.1224136  74.0256958  61.1079597  14.0105124
  73.4890213  62.4566612  13.5815935  28.1551685  51.3695221  62.5856667
  28.0024071  50.4434433  62.3978424  28.5023060  51.7256927  61.7678223
  49.6843414  64.7439880   9.5757952  49.4097061  64.6261902   8.6664381
  49.1844940  65.5012054   9.8807793   4.6484423  39.2818451  11.2005835
   4.2691064  39.9023132  10.5782061   5.4937139  39.0458031  10.8184414
   3.9564471  65.6547394   3.3181171   4.8776588  65.7551804   3.0782988
   3.7159891  66.4973679   3.7033291  27.3073139  28.7989693  12.5533772
  26.9678192  27.9100132  12.4497824  28.2583351  28.6917076  12.5702009
  33.4458694  68.1750259  24.1225433  33.0606384  67.8660736  23.3025551
  33.3368568  69.1256027  24.0951958  16.4236832  29.6754913  83.8927002
  16.9213486  30.3968487  83.5077286  17.0016747  28.9166241  83.8134460
  21.7520599  56.9635086   3.7136619  21.7919617  57.2003746   4.6402330
  22.6643848  56.8152313   3.4648485  14.7605495  65.5959091  43.5210533
  13.9876652  65.1600647  43.8801155  15.0387506  65.0332336  42.7983971
  59.6608582  35.0593872  71.4296341  58.7091370  34.9611053  71.4579697
  59.9232903  35.1157074  72.3484268  19.0671844   4.6629210  85.2239990
  19.6553898   5.2321262  84.7277603  18.2533512   4.6618495  84.7201080
  62.0289230  21.7043095  19.2517395  62.8875389  21.5592003  18.8543072
  62.2229996  21.9738483  20.1494675   2.9003620   2.9285049  48.1888237
   2.1531725   2.7965143  48.7723656   3.4820962   2.1912794  48.3740692
  11.7891083  69.7744751  73.6706085  11.4592991  70.1475983  74.4880676
  12.6072054  69.3430099  73.9171524  76.0957031  50.6235962   8.5780258
  76.3472748  50.9494553   7.7138734  76.9041748  50.2639503   8.9430685
  71.4370422  22.7133617  26.0246067  72.0201950  22.0057201  26.2992077
  71.9976044  23.4887791  25.9975243   6.5683551  27.8892651  72.0222397
   6.7967930  28.5839214  72.6398926   7.0418868  28.1153297  71.2216797
  58.2715721  53.8161430   3.4679558  57.9904213  53.8922920   2.5561509
  59.2077789  53.6240273   3.4146733  43.7561913  65.6569519  81.6490784
  43.6395073  65.6533432  82.5991287  43.3673897  66.4835739  81.3631439
  46.9737968   6.9395947   2.1274922  47.2563820   6.0446348   2.3157051
  46.0179062   6.9005413   2.1588829  12.0193319  60.1993179  42.9253006
  12.6362038  60.6094894  42.3191147  11.2332840  60.7428780  42.8713913
  64.5105057  51.6864510  30.5747013  65.0121841  52.4488220  30.8633881
  64.4096451  51.8095207  29.6308193  26.1949482  63.5221519   6.0519366
  27.0489712  63.4142799   5.6333227  26.3441620  63.2809906   6.9661617
   7.5722251  45.9046288   0.9286714   7.3182197  45.1844292   1.5057551
   7.1983652  45.6734734   0.0783606  85.3532562   5.1485043  12.8339186
  86.0842438   5.7317910  13.0380287  84.7925797   5.6617050  12.2521152
  14.6938829  32.2735405   9.9319439  15.0023432  31.7209225  10.6500654
  15.4654160  32.7740021   9.6664114   8.1954403  21.2648926  21.0578156
   7.6166716  21.7652626  20.4825878   7.6209931  20.6241875  21.4770298
  34.1787567  49.9476547  86.0426712  34.2491875  49.6115036  85.1492157
  33.4989128  49.4094810  86.4481583  60.0189514  50.5736732   4.3743415
  59.6681595  50.2987518   3.5272322  60.3282547  51.4674339   4.2268338
  66.8753052   8.9706249  64.5402145  66.3771515   8.4448357  63.9144173
  67.7888718   8.8485289  64.2819214   1.1809567  41.9416313  81.6549530
   0.5699180  41.2723961  81.9631577   1.4024738  42.4432640  82.4395065
   6.7286801  30.4274502  86.8891068   6.4413037  29.5717449  86.5706482
   5.9807210  31.0042820  86.7340088  82.8099442  57.0058136  42.6799812
  82.6465530  57.0471802  43.6222267  83.5421295  56.3958092  42.5904121
  32.4500847  63.6326599  40.2611198  33.3573494  63.8373909  40.0348816
  32.2550430  64.2007599  41.0064125  36.7492065  22.0919609  64.6667862
  36.2346001  22.6986427  64.1344833  36.0965576  21.5623360  65.1248016
  78.8798141  15.5936670  23.9406796  78.1319504  15.2362003  23.4619865
  79.3756866  16.0798073  23.2818832  78.1535721  23.9299355  68.0788193
  78.0299911  23.2356033  67.4316254  78.3703918  23.4671345  68.8881683
  28.1632271  42.8361778  72.1801758  29.1193619  42.8315887  72.2250900
  27.9503670  42.1591835  71.5378418  75.0545731   1.3203554  49.5540848
  74.1747208   1.3385485  49.9306030  74.9655762   0.7889953  48.7629051
  47.5663834  57.8697166  46.2581711  46.8174820  58.4448509  46.1013374
  47.6138000  57.7926865  47.2110901  54.7660942  58.9455910  18.8084126
  54.4097672  58.3157082  18.1819077  54.1356964  59.6658936  18.8087044
  51.4761772  41.0410538  30.1226521  50.6402435  41.5066147  30.0962372
  52.1235161  41.6961327  29.8617687  61.1843758  53.5490036  33.6294670
  60.7129898  52.8062134  33.2522583  61.9622269  53.6432266  33.0796509
  62.5551910  54.9175529  82.9504471  63.4966583  54.8565979  82.7887039
  62.4115028  55.8341026  83.1860809  14.2722197  14.5499954  69.1222153
  15.1675863  14.8078651  68.9029999  14.3694048  13.9566259  69.8669968
  39.0588150  32.3598862  88.8537674  39.5444717  31.5973873  88.5391769
  39.2968826  32.4307938  89.7781754  69.1225815  16.5667152  15.5001078
  69.6806793  16.6416187  16.2741528  68.2302704  16.6242714  15.8417244
  59.4978752  11.0277758  65.7728043  59.4315147  11.0631256  64.8185654
  59.2299614  10.1370287  65.9986954  54.5495720  45.3134880  30.6360188
  54.5087280  45.5159950  31.5706596  53.8066292  45.7828369  30.2565670
  86.0766144  58.6487007  53.2401962  86.0443039  58.8894768  52.3143349
  85.9563217  57.6991043  53.2450638  29.2437611  17.9913483  70.7428513
  28.6597443  17.7581310  71.4644928  28.7403278  17.7923565  69.9534302
  33.5492096  49.6653175   0.7485234  33.2817421  48.8888893   1.2403086
  32.7798767  49.8957138   0.2276772  57.0105476  40.8866196  61.8667755
  57.4050369  41.4643250  62.5201225  56.0854187  40.8472328  62.1092911
  36.3102303   0.4485427  82.6639328  36.8106613   0.6988738  81.8873138
  35.5226212   0.0298476  82.3166656  10.6093016  69.4849625   1.0390717
  10.4031410  69.9142380   1.8694050   9.8326006  69.6253510   0.4975391
  23.0598049   5.4291673  22.8988609  22.3566704   5.3841863  22.2509308
  23.5720444   6.1964068  22.6435490  43.2581482  23.3495712   7.6646910
  44.1244278  22.9592400   7.7805710  42.7151070  22.6337452   7.3346448
  -0.0380966   2.1845956  82.2175903  -0.6022122   2.5508654  82.8986588
   0.6955261   2.7966812  82.1594467  84.8858109  56.9409866  56.2877464
  85.7354355  56.8401375  55.8585625  84.5656204  56.0457458  56.3984261
  46.1691856  64.1653824  56.0459824  46.8035660  63.6642914  55.5334396
  46.0971222  63.6869087  56.8718758  56.7315826  70.4644699  46.7668915
  55.8245049  70.1603851  46.7980537  57.0805664  70.0943146  45.9560738
  13.5383110  25.3786373  27.8812561  12.8137608  24.9742069  27.4040833
  13.1245613  25.7940407  28.6378822  63.3752708  28.8192654  39.7210579
  62.8849487  28.7926121  40.5427055  62.7624969  28.4860287  39.0655479
  68.6814423  69.2981415  51.3863411  69.1072159  68.4455490  51.2967186
  67.7805481  69.0910339  51.6347885  35.1683655  31.4827576   1.8929175
  35.0451775  31.9374275   2.7261829  35.0240631  32.1567192   1.2287016
  14.1922894  13.7758341  20.6798344  14.4543228  14.4698324  20.0749073
  14.3374491  12.9652863  20.1918049  33.5061035  45.3862724  77.6931992
  33.8767395  45.0986290  78.5275345  34.2661285  45.6299896  77.1648102
   9.4039660  41.6332321  78.3804703   9.8069687  41.8203850  77.5326538
   9.5829954  40.7050667  78.5310974  41.0129051   1.1082964  17.0267696
  40.1503029   0.9364666  17.4044209  41.5798035   0.4389875  17.4100285
  67.8228836  17.5255432   7.6878343  67.1696014  18.1443844   7.3615074
  67.6587601  16.7217579   7.1946530  55.0159760  49.2145538  82.8333054
  55.0386963  50.1702538  82.7847900  55.3716354  49.0101128  83.6981430
  83.5574341  30.8909225   3.6037452  83.7224731  30.6234188   4.5078659
  83.3979263  30.0707989   3.1366391  70.6201019  59.6471558  64.8764267
  70.6940918  59.2664299  65.7515335  71.4684677  60.0633392  64.7237854
   6.6813660  34.2437515  70.2990723   7.6132779  34.3158836  70.5053940
   6.5011859  33.3041801  70.3302078  36.2843895  63.6431046  19.7556839
  35.9398460  63.0119858  20.3875103  35.6603508  64.3685989  19.7772121
  77.6245499  57.3994942  48.0331650  77.1907883  57.4285126  48.8859482
  76.9282608  57.5872803  47.4037704  40.3579369  31.4757023  81.4250107
  40.5575104  31.2074909  80.5280914  40.1887627  30.6553478  81.8882904
  54.3637199  23.2755852  56.6949120  55.0137215  22.5901241  56.5404129
  53.6511765  23.0708313  56.0894470  74.1869965  21.5171471  86.1897507
  74.6932983  22.2408485  86.5587234  74.1155319  20.8854942  86.9053955
  69.5544434  10.5424452   5.3046927  68.9853439  10.9621515   4.6595550
  69.1757889   9.6719866   5.4277940  22.3289356  24.6863403  12.5316753
  22.1738625  23.7425442  12.5695229  22.0773392  24.9349232  11.6422167
  47.7798462  28.0142365  65.3284912  48.1400108  28.8261929  65.6851959
  47.1625786  28.3013039  64.6555862   6.9961491  60.4145813  35.1747780
   7.3460064  59.5460052  35.3732910   7.0442204  60.8877449  36.0054665
  40.1530228  57.6589546  40.5453720  41.0588646  57.4777336  40.7960625
  39.8682518  56.8678207  40.0879478  72.6555023  42.8065224  71.8441238
  72.8945389  42.3915672  72.6729279  73.4890137  42.9346848  71.3912811
  47.9833298  49.1282730  35.2556000  48.8510399  49.1930580  34.8567047
  48.0848236  48.4714432  35.9444427  68.3839569   4.8901062  18.3701210
  69.2851562   5.0863366  18.6262016  68.2026672   5.4941020  17.6500130
  20.8628540  23.0508690  84.3701096  21.5832119  22.4906979  84.0811005
  20.3062897  23.1433563  83.5968552  52.3634644   0.1152252  28.5529556
  53.0625496   0.5624756  29.0299015  52.1768456   0.6877673  27.8089123
   5.7116294  27.8400574  52.5280800   6.5860038  27.7579479  52.9088135
   5.5956235  28.7808685  52.3952293  54.4565392  25.0205669   6.4898243
  54.2133751  24.2632999   5.9572372  53.6280098  25.3347511   6.8518453
  37.7183456  68.3419800  32.6198959  38.2243042  68.0640335  33.3834305
  37.4602470  69.2421112  32.8183327  40.9488144  66.7851715   5.1082463
  41.2133865  66.3006973   5.8902421  41.6341209  67.4430313   4.9907823
  46.6742325  64.2115860  30.1143532  47.5088882  64.1399460  29.6512699
  46.1999435  63.4144859  29.8778934  17.1336098  36.7928314  77.4102478
  17.9376526  36.8256226  76.8919144  16.4554577  37.1241684  76.8215637
  60.5516396  28.3371220  54.8760567  61.2778320  28.1769867  55.4787445
  60.8635330  29.0405769  54.3067589  61.7551689  39.6342735  72.6783600
  61.0149689  39.1479950  73.0414963  61.3666725  40.4364357  72.3293076
  13.3198004  60.1259651  30.2845516  13.8419094  60.9114914  30.4476089
  13.7671251  59.4352875  30.7735252   2.2665639  53.9316978  39.0236130
   1.4388746  54.2312927  38.6475754   2.7856975  53.6535683  38.2690430
  10.8688297  29.2458782  85.0855026  11.5247335  29.8815937  85.3716583
  11.3796005  28.5137825  84.7399826  50.3098640  53.7194443   2.2859559
  50.9467926  53.7760429   2.9982414  49.4994202  54.0635643   2.6614466
  61.1455841  52.0814629  74.5963974  61.0269547  51.7763176  75.4958649
  60.2789879  51.9973640  74.1986923  67.4608688  21.8367691  75.1981583
  68.1262970  22.4857216  74.9694824  66.6529083  22.1763573  74.8133087
   2.9165723  15.1212234  36.5732155   2.7255714  14.2189999  36.8296165
   3.8478358  15.2325411  36.7644958  84.7544250  23.2353764  58.3364258
  85.1158905  22.3885918  58.5982056  85.1607513  23.4176292  57.4891281
  77.2886887  41.4711380  80.8661957  77.0200577  41.6482697  81.7676849
  76.6030121  40.9001312  80.5197525  20.1358871  60.0116844  60.8784981
  19.4890175  59.6103287  60.2982330  19.7755489  60.8758316  61.0775833
  27.4956207  46.3298988  44.2102203  27.8780270  46.4135971  43.3367233
  26.5789795  46.1056290  44.0498962  13.4372301  62.1312981   9.9355640
  13.7956362  61.9259262  10.7990456  13.6863937  63.0429001   9.7834539
  62.3024139  49.8387489  49.9916267  61.7626266  49.8871460  49.2026291
  61.7865639  49.3128853  50.6028519  79.2969513   7.3155718   4.6846523
  79.0368652   6.4675727   4.3248177  78.6189651   7.5206852   5.3284621
  84.9245987  26.4747009  78.5794067  85.8204346  26.1555138  78.6881485
  85.0266724  27.3634682  78.2389526  85.7817993   6.5752869  61.5206337
  84.8903198   6.8761621  61.3446312  85.8794022   5.7886481  60.9840660
  38.9080238  39.5170212  21.4911213  38.9845352  39.9972496  20.6666451
  38.1000366  39.0119591  21.4000282  46.3783302   2.7386327  86.0797653
  46.1389427   2.6167338  85.1610413  46.9880638   3.4764688  86.0725403
  13.7965994  27.1592255  84.8750000  14.4337645  26.4950981  85.1380386
  12.9732828  26.8704720  85.2687073  19.6824799  46.3163528  81.6107941
  19.4480000  47.0282135  81.0153885  18.9278984  46.2334213  82.1938553
  29.2082691  55.3770142  35.5432663  28.8452568  55.5268707  34.6703415
  29.0435371  54.4499130  35.7152519  47.0562744   6.7433081  36.2635727
  46.7438545   6.1394744  36.9373741  46.9796219   6.2507782  35.4463997
   3.4122264  65.0215225  85.3342590   3.2417490  65.8565292  84.8984451
   4.1871371  64.6744995  84.8923035  86.0460205  33.0494003  27.9129105
  86.0519409  32.3190002  27.2942715  86.2360153  33.8191109  27.3765526
  82.4449463  42.1235466  89.0918121  81.9588928  42.9389305  88.9687881
  82.9552994  42.0253181  88.2879944  75.6330643  10.0077400   6.2328515
  76.0559082   9.9548740   5.3757372  76.2096024   9.5131273   6.8152585
  62.0152206  48.5276337   4.2429338  61.3809395  49.2140541   4.4496827
  62.8430252  48.8516579   4.5978637  80.1234360  71.1433411  77.8880234
  79.7677994  70.7145767  77.1096191  80.4357910  71.9914169  77.5726929
  49.3085365  61.4519348  40.6055717  48.6569176  61.1781693  41.2510796
  48.7942123  61.7098351  39.8405952  79.7165222  69.1558762  18.2109833
  79.3903885  68.9415741  17.3369465  79.3350906  68.4869995  18.7796135
  32.8933983  28.1506691  66.3987579  32.6615524  28.3805447  67.2985611
  32.6637077  27.2246647  66.3213577  53.1194839  63.2592735  20.4146194
  53.2756042  64.1541443  20.1128521  52.3668633  63.3322983  21.0015297
  26.6414165  43.6545639  84.6723862  26.2429771  44.5248909  84.6688385
  26.3550701  43.2634163  85.4977646  14.6606321  53.2741470  15.8425531
  15.5009165  53.4860535  15.4360437  14.0994625  54.0216370  15.6362000
  36.7529373  33.1568527  62.1114082  37.5802841  32.9387894  61.6822510
  36.0798531  32.8470993  61.5054016  29.1153965  47.5135574  18.0100422
  28.1972313  47.6666031  18.2331619  29.0835648  46.9318123  17.2505741
  61.9461250  20.4852295  38.9172249  61.6448898  20.8381615  39.7544403
  61.2008553  19.9837112  38.5866508  37.4831963  48.8392487  83.5087585
  38.0259552  48.3353004  84.1151276  37.4010887  49.6999397  83.9194870
  50.1670532  38.4227753  30.6028137  50.7618332  39.1658440  30.5012264
  49.8329659  38.5037880  31.4961529   9.2833967  30.6825504   8.3304090
   9.0011625  31.5940380   8.4063377   8.5754976  30.2517395   7.8513346
   5.1747527  46.1507645  78.7029114   5.2715106  47.0871391  78.5295105
   6.0698576  45.8374901  78.8328323  46.2445030  49.7356796  41.1619568
  46.9259377  49.6121330  41.8227272  46.6554375  50.2842178  40.4937706
  41.0614510  53.4285965   8.3807659  40.2957687  53.1431503   8.8792505
  41.6547508  52.6777534   8.4022150   1.6321163  23.4127750  58.1004372
   1.9301594  24.1236343  57.5329132   2.0448537  22.6284943  57.7387962
   2.6392710  41.6270599  13.9586973   3.2543595  42.3411522  14.1259432
   3.1811025  40.8379974  13.9642487  41.1055717  68.5771484  84.7514572
  40.3980331  67.9456253  84.6218491  41.7903481  68.2976837  84.1438293
  44.2232971   1.3417919  59.6971054  44.1393127   0.3886992  59.6689491
  43.7368164   1.6478159  58.9316521   1.4209093  69.6086960  39.4656067
   2.2088482  69.4858704  39.9950371   0.7811438  69.9826660  40.0714760
  70.8227005  15.4676342  31.2448273  70.0628967  15.7538586  31.7517776
  70.7244873  14.5175743  31.1817989   6.7249780   0.3999505  29.0340767
   6.5748315  -0.3873067  29.5574455   6.1319537   1.0522155  29.4070454
  65.3374786  53.0494537  69.8354874  66.0435715  52.7209282  70.3920288
  64.8318100  53.6278000  70.4064941  44.4835014  40.7556572  67.8616714
  43.6136360  40.5002098  68.1687775  44.3249207  41.5084877  67.2921753
  27.4616203  12.8241167  52.0482788  28.2694435  13.3243008  52.1643372
  27.5096970  12.1344957  52.7103539   2.2045269  11.8691044  44.9950371
   2.2203588  10.9242773  44.8424530   1.5204777  11.9940596  45.6528320
  65.0196152  27.2596493  48.8723145  65.4472656  27.9179840  48.3246460
  64.0879440  27.4728489  48.8197060  62.2883415  61.7591515  20.7865829
  61.6419411  61.1858711  20.3745766  61.8039017  62.5593491  20.9896488
  68.6911697  38.9000740  27.1329956  69.3005676  39.6233444  26.9855289
  67.8853836  39.3226318  27.4302883   7.3357248  62.0848160  72.4941483
   7.6089439  62.9954414  72.6052475   6.7672200  62.0975647  71.7241669
   5.1336341  37.3689537   1.7311009   5.8407478  37.3486938   1.0862666
   4.4776473  36.7631149   1.3863260  63.7274017  11.5377398  28.8616905
  64.2120056  12.3364000  29.0703430  64.1087341  10.8702927  29.4320698
   0.4448768  20.1226082  39.3292885   0.1027955  20.7180691  38.6624718
   1.3953587  20.2210732  39.2734261  52.5427856  15.2700567  64.3275070
  52.4083862  16.1905575  64.5530014  52.3169212  14.7924843  65.1257172
  81.5665894  52.3025970  54.5276222  81.8422089  51.7790031  55.2800293
  80.6101379  52.2761154  54.5548592  75.4312286  63.2474098  37.7664108
  75.9308548  63.9760818  38.1347008  75.7510834  63.1676712  36.8677635
  13.1858807  69.9743500  66.4979324  13.8961411  70.5812607  66.7063065
  12.3870554  70.4656448  66.6895981  20.7776718  54.2372856  43.4193420
  21.2427368  54.0545807  42.6029091  19.8727703  53.9803810  43.2421837
  54.1499329  27.7629051  85.7780991  53.4629097  27.1245461  85.5864487
  54.4566612  28.0501328  84.9180679  78.1414948  25.3437023  61.1384048
  78.1557999  25.7888279  60.2911224  78.4733505  25.9947777  61.7566338
  56.0657730  49.2848625  31.2942448  55.6565475  48.8286629  30.5589561
  56.6544380  48.6365013  31.6806850  57.5801506   9.9745159  46.8704948
  58.0014000   9.5436573  46.1267586  57.4958000   9.2858496  47.5299301
  69.8032761  49.3379898  33.5182915  70.5200272  49.8169327  33.1022224
  69.8214569  48.4741859  33.1062927  58.4217529   3.3834493  53.9625511
  58.0171852   4.0948896  53.4661560  57.8834000   2.6170905  53.7648125
   4.7088075   4.3122616  24.8738117   5.2379184   5.0680723  24.6188164
   3.8799834   4.4328079  24.4104004  44.8603439  65.2526779  50.0374680
  45.6070175  65.3540878  49.4471893  45.1284294  65.6976776  50.8414230
  57.7741623  11.1182699  59.9063911  58.2797928  11.8753738  59.6108131
  56.9019585  11.4686089  60.0873680  41.0629349   6.5944576  73.3675385
  40.3922234   6.4422522  74.0332794  40.6177330   6.4282284  72.5366364
  64.4267197  37.4043808  51.6637459  64.5786438  36.5163994  51.3402634
  64.6655121  37.9707298  50.9299507  69.2903519  12.2851467  52.5225945
  68.6031265  11.6279469  52.6323357  69.3418961  12.4221392  51.5766525
   7.6688461  68.2966766  33.1906738   7.9809141  68.7579956  33.9691544
   7.6812749  67.3723221  33.4389572  27.6262226  54.3718758  42.8729019
  27.5204582  54.9887466  42.1486664  27.2779522  54.8349991  43.6347809
  48.5353088  55.3131027  75.5196152  49.1811485  54.9330482  76.1151657
  48.1924782  56.0723915  75.9909821  34.2756767  37.2469025  11.7139683
  34.0916405  37.5071106  12.6165504  35.1030426  36.7684402  11.7665987
   1.1074096   0.1065653  22.7030258   1.6687973  -0.2578029  22.0186920
   1.7156318   0.5112170  23.3215351   4.6108875  25.5817871  36.9002228
   4.5065732  25.3322067  35.9820404   4.1335769  24.9097481  37.3868141
  84.2850342  19.9806061  28.0840778  83.3419418  19.9130974  27.9348907
  84.5131607  19.1728573  28.5442219  83.9004669  40.3791733  44.6715584
  83.7433090  40.8818207  43.8722610  84.2234497  39.5327377  44.3625870
  67.1581879  12.5707245  17.5960751  66.3298340  12.2676001  17.9677982
  67.1041489  13.5255003  17.6374855  79.0901566  55.7442131  34.0254669
  79.1776733  56.6207542  34.3999596  78.9244003  55.1773758  34.7787590
  76.3526993  55.2786522  80.6333160  76.5359344  54.4765320  81.1224594
  75.4760132  55.1445999  80.2732010  72.7083359  30.2229595  18.8711071
  73.5901337  30.2013245  19.2428436  72.8478394  30.3198147  17.9290924
  14.9574718  58.0060883  40.9568977  14.8914623  57.0619354  41.0998878
  15.8193521  58.2407494  41.3008842  77.2038727  38.6360397   1.0281512
  77.2580872  38.0849342   0.2473984  77.3426743  38.0321274   1.7577099
  14.4337692   2.1274364  74.6117783  14.7057991   1.3382597  74.1433411
  15.0045185   2.1589456  75.3795547  78.3657913  61.5165176  58.1163445
  77.8571930  61.4009056  58.9189606  78.7322235  62.3977394  58.1898346
   9.3517866  32.5051193  21.0231838  10.2867537  32.3068275  20.9707508
   9.1553307  32.9526176  20.2001553  83.4998016  32.8336296  39.8681793
  83.2409134  33.3963470  39.1384125  84.3995743  33.0946541  40.0644073
  40.4225769  23.4143906  15.6017580  39.9783363  23.4745045  14.7560225
  40.6103668  24.3225765  15.8387470  53.7338486   6.2085238  43.3818474
  54.1415024   6.3698430  42.5309486  54.4467964   6.3109875  44.0122719
  37.6511116  55.9262505   5.3169365  37.7611656  56.8488770   5.5468969
  38.0833588  55.8379288   4.4674706  32.9169731  69.7993317  30.0796108
  32.9880066  69.8559265  31.0324917  32.7757988  68.8688736  29.9048004
  68.9392471  41.8646202  86.2020416  68.2413025  42.2701569  86.7164841
  69.0016251  40.9727898  86.5440598  11.3685818  64.6604462  35.2862854
  12.2598314  65.0023727  35.2156067  11.0759325  64.5653992  34.3798904
  65.0755768  10.7635508  56.5805931  64.8376007  10.9920311  57.4791451
  65.4694748  11.5610704  56.2269783  26.4768982  64.7554474  58.4379158
  26.7613506  64.4016953  57.5951958  27.0351124  65.5204391  58.5772591
  17.5817451  12.0995293  67.7742615  17.5997391  12.6733093  68.5402145
  17.3468552  11.2401295  68.1242447  65.4126587  23.6710129  74.2660217
  64.6713867  23.2680130  73.8139801  65.7661057  24.2978077  73.6348114
  15.2143440   3.6898456  36.4732857  14.9409218   3.3468792  37.3240776
  15.9208784   4.3023920  36.6778069  54.7535820  32.5714073  15.7356997
  54.2679367  33.2827263  16.1533222  55.6399612  32.6467896  16.0890846
   7.0756731  49.5796623  51.0051193   7.3537426  48.6748276  50.8630447
   7.8857069  50.0516396  51.1982880   9.7772808  39.0382767  78.4882355
  10.7127705  38.8849678  78.6208572   9.6257524  38.8147087  77.5699310
   3.4159646  53.6469498  49.2720871   4.0834394  53.0554733  48.9244270
   3.4558678  54.4147453  48.7018852  42.8128433  41.7824631  79.2753525
  42.0902252  41.3033676  78.8697357  43.6000710  41.3295975  78.9729996
  21.6999931  10.6762085  82.7761841  21.4692574   9.7852774  82.5130539
  21.7403965  11.1657152  81.9546051  83.0305939  46.9097061  75.3856430
  83.0662079  46.0447655  75.7941055  82.1119995  47.1696968  75.4549942
  49.3766365   0.3798700  72.9498367  50.1706390   0.7460778  73.3393021
  49.2320900  -0.4382948  73.4251709  49.8946457   5.4015608  39.4793701
  50.1399536   6.2761221  39.1773758  49.3753395   5.0375085  38.7624207
  39.7732162  12.3833656   0.4487499  39.6234245  13.0782270   1.0898134
  38.9930573  12.3967676  -0.1056910  69.4080353  66.9743042  75.5726242
  69.8348846  66.1702194  75.2768555  68.6334457  67.0530548  75.0158081
  54.6652870   1.1847396  47.9302063  55.5139809   1.0550470  47.5069695
  54.8579788   1.1551628  48.8673439  81.0041962  59.7925339  12.0514612
  81.6075211  59.9473381  11.3246412  81.4837265  59.2105026  12.6409750
  77.7450714  54.3043251  35.8148270  77.0704117  54.6940880  36.3708420
  77.2975159  54.1192169  34.9892006  85.7020416  55.6417961  53.1929626
  85.9934540  54.8014145  52.8393135  84.7980270  55.4860764  53.4663467
  10.5633240  59.0714073  76.1742325   9.8841877  58.4062653  76.0620270
  11.0689545  58.7723312  76.9299622  39.5126114  17.8600082   1.7828689
  40.0928421  17.7618332   2.5378022  38.7790337  18.3802509   2.1106575
  54.7296638   6.7015910  52.4143944  54.1263847   6.0086298  52.1458969
  54.1620865   7.4013662  52.7375031  67.1037979  37.5582924   4.3643069
  66.2989120  37.2821655   4.8026385  66.8175812  37.8475456   3.4979122
   9.3076210  57.3484497  82.5238190   8.4199295  56.9909973  82.5022507
   9.6749535  57.1292610  81.6675186  17.2492504  69.9688873  29.8415947
  17.9354916  70.4283600  30.3255253  17.7209473  69.3372726  29.2986469
  18.0017509  11.2650261  11.7352829  17.0567741  11.1216784  11.7872658
  18.2330475  11.6466837  12.5820837  33.6191330  55.4242325  24.4537411
  34.3609352  55.0230331  24.0009651  33.0583992  54.6868668  24.6947784
  43.8174400  48.5255318  54.7434464  43.7144394  47.5740814  54.7243996
  44.5079231  48.6788292  55.3884010  48.0209427  45.4502602  28.7037849
  48.4833031  44.8775101  28.0918922  47.2723541  45.7784233  28.2056332
  40.0133629   8.0765076  82.5645828  40.4943199   8.1744595  81.7428055
  40.5784111   7.5281844  83.1089096  65.0823288  52.6134224  44.7613754
  64.1546021  52.7683182  44.5837364  65.4892960  53.4758339  44.6785583
  84.2450409  29.4262009   5.8872476  83.8528290  28.5993538   6.1678247
  84.6231918  29.7949772   6.6855197  68.6339035  48.5382004  59.1597176
  68.2971649  47.9774094  58.4608994  69.5611725  48.6508026  58.9506035
  70.2056580  69.1066208  57.4389305  70.1659470  68.4314575  56.7615776
  69.6135406  68.7945251  58.1232033   2.7327774  15.3417606   0.9109442
   1.8999050  15.2511568   1.3739200   3.3279934  15.7169294   1.5599415
  30.6782551  69.2591553  73.0422134  29.9902229  69.9109116  72.9078674
  30.4599476  68.5518417  72.4353485  77.1358871  49.3406219  66.6918869
  77.6305923  50.0085602  66.2171631  76.7178497  49.8168755  67.4092789
  73.1110611  68.6460342  29.5112133  73.9201660  68.4159088  29.9679623
  73.3983002  68.9294052  28.6432133  46.0819473   0.7810378  80.1129837
  45.6684799   1.5691055  79.7605286  47.0207939   0.9367710  80.0102921
   6.2432795   7.2528992   5.9134083   5.6275077   6.6363263   5.5173097
   6.6391582   6.7653189   6.6357498  28.9087276  11.6527605  77.6608810
  29.5096569  11.7273855  78.4021912  28.8877220  10.7164946  77.4628906
  24.1661282  61.2528458  85.7132874  25.0141850  61.5245018  86.0643387
  24.1203651  61.6659966  84.8510513  47.3833351   7.2369633  23.2301579
  47.3588600   8.1907425  23.3072166  48.0828171   6.9664855  23.8249664
  79.7711716  46.6725082  40.3566093  78.8340302  46.5744286  40.1881599
  80.1469650  45.8243370  40.1207848  38.8326416   9.5182104  64.6133499
  39.7299194   9.3668585  64.3163376  38.4455032  10.0705833  63.9342041
  85.0185776   9.0419178  42.4512405  84.4687347   8.9414082  43.2282906
  85.3931198   8.1726332  42.3087921  11.8198271   0.7725835  21.1305523
  11.9785786  -0.1329841  21.3969669  11.4085541   0.7002578  20.2692413
  49.0642891  65.4670563   6.5321178  48.1864357  65.8149033   6.6889992
  48.9673347  64.9123993   5.7580481  16.7088108   6.7559953  44.7447128
  17.4145470   6.1095829  44.7268906  16.7079372   7.0849214  45.6436234
  80.9929581  42.6261673  74.9107895  80.5011520  41.8622894  75.2122116
  80.3635330  43.1266518  74.3915787  77.5122757  43.7289467  55.8209076
  78.2099609  44.1063385  55.2851486  77.8716278  43.7164688  56.7080040
  50.0797539  37.3888779   6.0019774  50.7570877  36.8860168   6.4542856
  50.5597343  38.0774918   5.5419092  15.7887421  60.1003571  35.7851295
  16.0863647  59.1939621  35.7070351  15.3752136  60.2900696  34.9429665
  70.9759674  12.0690060  71.0172653  70.3525696  12.7949038  71.0433197
  71.1415176  11.8623304  71.9371033  43.2795143  16.5798359  38.6356277
  43.0405045  16.3302612  37.7429810  43.8133392  15.8515234  38.9531555
  72.4907990  13.3754644  24.7401276  72.6297836  13.0427322  25.6268101
  73.0136566  12.7987022  24.1831779  74.1086578  12.0184526  45.3963356
  74.7145920  11.7376413  46.0820618  74.6665878  12.1818237  44.6359024
   2.5180187  14.0730677  32.3020897   2.7275188  14.7742414  31.6850853
   3.3497262  13.8772659  32.7335472  30.8264694  69.9972839  61.7257271
  31.4678745  70.6965637  61.5998878  30.9837322  69.6855621  62.6169777
  21.0864544  56.5902252  15.0236206  20.4919090  57.2299919  15.4153442
  20.8000965  55.7485619  15.3783464  21.9935913  57.8394432  34.0866623
  21.5480995  57.0036392  33.9481125  21.9803429  58.2630730  33.2284088
   6.1743608  66.4150162  55.1616211   6.0264673  66.9150925  54.3589516
   6.8086767  66.9354401  55.6546059  38.7514114  48.9483757  12.5589733
  38.5779152  48.0076942  12.5943441  39.2426414  49.1316071  13.3598166
  78.1645660  19.5892010  64.4602585  77.3876266  19.2346802  64.0279160
  78.4703064  20.2811089  63.8737259  77.9908524   9.3907413  14.6612473
  78.2712097   8.4992294  14.8682117  77.4834061   9.3010550  13.8545933
  29.1284523  45.6981773  75.7646027  30.0385857  45.9939919  75.7841339
  28.7348766  46.0823517  76.5480118  76.5996170  42.4412918  25.4015980
  77.1631165  41.6678200  25.4225063  76.0707703  42.3739014  26.1965866
  60.6398087  20.7452374  81.7509918  61.4477463  20.5106201  81.2944565
  60.0247345  20.9655476  81.0514374  65.7562485  34.9267159  76.3992386
  66.0966797  35.6906815  75.9337311  65.9922104  34.1833420  75.8442993
  34.9531059  64.9328461  40.3765106  34.9841805  65.7418747  40.8871346
  35.7808800  64.4939728  40.5725021  86.7569885   3.6252406   3.3644226
  86.9312134   3.4739039   4.2933869  85.9005966   3.2253280   3.2130952
  31.9778461  30.4175129  11.1158133  31.5575943  29.8791885  11.7865038
  31.5824566  30.1277485  10.2936592  82.6650543  47.4530144  62.4517746
  82.1990051  47.5536156  63.2817802  82.3154526  48.1486816  61.8949432
  54.7131004  33.8311615  65.8503799  54.9265900  34.2445984  66.6868744
  55.2492599  34.2974319  65.2090149  50.1877518  14.6260014  14.5921831
  50.9878311  15.1194143  14.4114904  50.1124878  14.6328411  15.5463953
  26.0760822   5.7777963  77.1759872  25.5584908   5.2801080  76.5430298
  26.9790592   5.5039625  77.0151062  54.2220383  16.3173809  60.1078224
  53.7777214  17.1399002  60.3134270  54.0776367  15.7680540  60.8782883
  49.0319099   8.8437481  37.1004486  48.7061920   8.1039276  36.5878067
  48.7231674   9.6168976  36.6280594  17.4873161  38.1262245  10.8259668
  17.1311035  38.0311127  11.7093115  16.8519630  37.6843796  10.2626457
  28.2179260  40.6067047  68.3089752  27.4986553  40.2989922  67.7574387
  28.7318726  39.8204460  68.4930725  49.6775246  35.3734894  56.4220924
  49.9199181  35.5250359  57.3356094  48.7214050  35.4187584  56.4173203
  23.2427120  24.5511150   6.2563887  23.2782822  24.2173615   7.1528120
  23.7306194  25.3740387   6.2876658  77.3258209  47.9471283  34.0537491
  77.5281372  48.2671814  33.1746216  78.0303116  47.3302002  34.2520523
  56.5978432  14.0915260  29.1357822  57.2538033  13.5894947  29.6194305
  55.8087654  13.5508204  29.1707115  56.8545265   5.7174377  66.1916046
  57.5739326   5.7188978  65.5601883  56.0883636   5.9818468  65.6823730
  37.5605392  10.4345560  66.7555313  38.1285477   9.9448929  66.1606979
  38.1508522  11.0357838  67.2097168  53.5259857  32.5122147  25.7661819
  53.2224083  33.0890503  26.4671307  52.7373505  32.0555611  25.4733486
  45.0335693  58.9468956  72.0504913  44.5966377  58.2684555  72.5653229
  45.9472313  58.9112816  72.3336639  70.8225708  29.4784031  45.2123604
  69.9385681  29.1389790  45.3522301  70.7918167  29.8752136  44.3418274
  47.0697327   8.2339716  28.1678238  46.4846649   7.5167589  28.4118214
  46.6883850   9.0065765  28.5848198  34.7214813   5.3387995  79.5216446
  34.5108795   4.4277925  79.7264481  34.8163261   5.7605271  80.3756790
   6.0182395  19.8931427  77.0280838   5.4602690  19.1832676  76.7103119
   5.5672941  20.2225437  77.8055038  23.2555866  67.1256638  44.5586586
  22.3156986  67.1684875  44.3825645  23.5203304  68.0388107  44.6695709
  80.9525681  25.4435940  16.7203598  81.9018173  25.4844570  16.8365116
  80.8339920  25.1878223  15.8056183  29.9985580  10.7353201  53.0548859
  29.0960903  10.4464502  53.1903038  30.5056381  10.2498016  53.7055588
  55.7928543   6.7552285  12.9429703  55.2847862   5.9632301  13.1185846
  56.3252296   6.5337648  12.1789293   0.0082163  28.4438190   7.3743334
  -0.2020722  29.3749638   7.3037581   0.5476213  28.2611122   6.6049881
  70.4816818   4.6831923  33.0151558  70.7436829   4.9482002  32.1334763
  69.5416489   4.8604703  33.0491257  74.9006042  70.7085953  37.3746567
  75.5815353  70.3130951  37.9188423  74.3592224  71.2029572  37.9900856
  32.4631500  52.8892860  20.2386227  32.1360207  51.9898987  20.2566605
  33.1901970  52.8672714  19.6164112  68.2892075  33.9754524  70.6637650
  68.7450943  34.4273338  71.3738403  67.7085190  34.6390610  70.2913971
  13.3196011   3.4830964  34.3245087  13.5707331   4.3454399  33.9935570
  14.0140142   3.2517450  34.9413567  38.2393456  53.3872757  52.4750862
  38.3166237  52.5257835  52.8850784  39.1387825  53.6288490  52.2539749
  42.0484161  54.8619423  40.0615692  41.2319412  55.0013847  39.5818214
  41.8543968  54.1404610  40.6599426  22.6227341  52.0400467  14.1548977
  22.7033272  51.7967873  15.0771561  23.2253704  52.7759705  14.0477619
  79.1645050  21.1463623  62.1554832  80.0134048  20.7084904  62.2176971
  79.2188873  21.6609631  61.3502121  30.6654243  62.1346779  33.5173149
  31.1563301  61.9584084  32.7147102  30.0685081  61.3911095  33.6011658
  64.7162857  47.8334503  48.9803391  64.0741730  47.3771858  49.5241699
  65.4258652  47.2012367  48.8661728  75.9992294  24.3642750  21.8033562
  76.7881317  24.3827229  22.3451290  75.9041748  25.2630215  21.4879990
  79.1101608   9.2312632  37.7833328  78.3092804   8.7813292  37.5143013
  79.5954132   9.3639908  36.9689941  26.6529751  14.7036858  63.5027771
  26.1115894  14.1126165  64.0260086  26.9625168  15.3603239  64.1266708
  45.5935974  70.6236038  88.4260635  44.7203484  70.5967102  88.8171463
  45.5649147  69.9665222  87.7306137  49.6596298  52.5631981  52.0009804
  50.5759087  52.5244751  51.7268143  49.4774704  51.6913338  52.3515511
  62.0788307  30.4165611  11.3006983  61.1665955  30.4030495  11.0110922
  62.3293266  31.3395176  11.2602282  45.9535027  26.1395245  88.4995270
  45.1696243  26.2504616  87.9615097  45.7156296  25.4620705  89.1325378
  79.8475189  60.4380074  49.0919647  80.4042511  61.1997032  49.2535400
  79.3952789  60.6412544  48.2731857  49.2045517   7.4126482  41.6768112
  49.6041374   7.6785493  40.8486443  49.9070854   6.9659486  42.1491852
  46.7730408  51.4835281  39.2621460  46.2190742  51.9763870  38.6567955
  46.9781761  50.6741257  38.7941513  41.5758820  43.5878105  20.4575996
  41.6143570  44.5102463  20.7103081  42.3991394  43.4317017  19.9948750
  45.4255104   2.4859099  54.9452744  46.3394241   2.6025090  54.6856613
  45.4283600   1.6937673  55.4826126  11.9004669  14.5851364  21.9149380
  12.6203928  14.2078857  21.4093475  12.3061495  14.8692904  22.7340279
  23.7582664  52.2883415  41.2938385  23.5784473  53.2272568  41.3421288
  24.7122841  52.2295113  41.2426376  69.9105301   5.5925322  13.6335573
  69.2025681   5.6359148  12.9907990  70.6119843   6.1213245  13.2533226
  27.2029686  12.3776274  10.2325048  26.3677654  12.4623203  10.6923904
  26.9919930  12.5610838   9.3170462  71.7092667  30.7390919  30.4494801
  71.0567856  30.4473038  31.0861626  71.5042801  31.6624584  30.3024960
  50.9206085  27.3221607  49.1859016  50.9983864  26.4067707  48.9171219
  51.7464867  27.7225666  48.9141808  75.8697662   8.0869350  85.9566193
  76.7267609   8.0116911  86.3762970  75.3172913   7.4622760  86.4265213
  75.0939102  23.2456646  80.9636002  74.5556183  22.4596481  81.0566101
  75.3439941  23.4720783  81.8593750  54.4318657  49.1112137  87.7479019
  55.3720169  49.2352333  87.6176529  54.1053276  48.8377419  86.8906860
  57.4405251  10.9228868  20.1699486  56.6337013  11.2813139  20.5398102
  57.4254379  11.1958857  19.2526283  56.6923523  47.3574944  57.1726913
  56.6425667  46.9675369  58.0454369  56.4628754  48.2769165  57.3077240
  35.8464661  68.8687744  54.2365570  34.9870071  69.2897797  54.2543411
  35.9569931  68.5126190  55.1181259  82.6417847  50.9378052  33.4706917
  83.1791077  51.7140007  33.3124542  83.0480728  50.2529182  32.9395676
  50.7125435   7.3964062  22.8442230  50.5541840   8.3045406  23.1019936
  50.2539711   6.8766155  23.5043449  55.1007195  69.1242142  67.7040100
  55.0364189  69.4182663  68.6126556  54.2037659  68.8924026  67.4632416
  30.2566833  64.1231232  22.4455032  30.1052437  64.1266022  21.5003662
  30.1793995  65.0415649  22.7038364  29.2349586  11.2390985  26.5242252
  28.9960232  11.6267395  27.3661728  28.5011196  10.6635628  26.3086548
  76.1770096  42.7545242  21.5091476  75.8709335  41.9368095  21.9014339
  76.1673203  43.3843002  22.2299252  59.7059135  31.5555954  79.6885147
  58.7942162  31.3299294  79.8731995  59.9762077  32.0904160  80.4349365
  67.9206009   2.5408688  53.3429909  67.5048141   1.6965991  53.1681786
  68.3722229   2.7588217  52.5276566   6.2595687  69.1492004  28.3768940
   6.4500313  68.2640152  28.6873779   5.6651669  69.5108719  29.0342464
  74.9545670  33.3155289  57.5925789  75.4941177  33.3543205  58.3822708
  75.5807419  33.1822243  56.8809853  58.2178497  55.0087166  11.0899372
  58.9798012  55.2475395  11.6177912  58.3253212  55.5025635  10.2770433
  65.6433640  46.1869240  58.4750290  65.3427582  46.2888298  59.3780708
  65.2581406  46.9290924  58.0091705  50.3522606   5.5203781  71.7305832
  51.0119362   4.8267956  71.7287521  50.7991905   6.2749929  72.1140442
  26.6157856  66.4066010  52.5849686  26.0319633  65.9468460  53.1883011
  27.0008698  67.1071548  53.1114426  79.3025284  19.1323586  36.7362518
  79.3020859  18.2631493  36.3353691  80.1480103  19.1904488  37.1812477
  84.2525787  37.5659904  82.9181290  84.3550949  38.2019157  83.6261673
  83.6965866  36.8812141  83.2898560  12.8327770  52.3691292  74.4479980
  12.1046715  52.8048973  74.8909454  12.7612762  52.6506424  73.5359268
  65.2171478  29.2878723  59.0343285  65.0350647  29.7545490  58.2186737
  64.8695450  29.8586750  59.7195892  61.4999619  10.7451982   5.0056705
  61.6079903  11.1922760   4.1662164  61.1091423  11.4041910   5.5794492
  35.0586319  31.5485687  84.1822357  35.4450684  30.7173290  83.9066620
  35.3902740  32.1876526  83.5515060  31.0243587  15.7874327  69.7872391
  30.3055897  16.3365993  70.1003189  31.0551243  15.0575905  70.4057999
  64.1221924  19.2460804  25.1382370  63.8499527  19.9580402  25.7172298
  63.3083763  18.7941208  24.9153767  66.0991287  48.4007912  74.5382919
  65.6783295  49.2555389  74.6308365  65.4927826  47.7888756  74.9555893
  34.0457001  45.8023415  88.7281036  33.6395378  45.3435669  87.9927216
  34.6908150  45.1832237  89.0697937  59.4166794  46.6578484  56.4833183
  58.5155602  46.3552170  56.5957260  59.9503441  45.8733635  56.6098862
  82.8190994  51.7174759   0.4417301  81.8829346  51.6611519   0.2502530
  83.2408752  51.2687759  -0.2910751  26.3102360  70.7363815  82.9290695
  27.1097469  71.2620544  82.9029694  25.9266262  70.9262085  83.7852478
  49.8776245  46.7626724  42.3731308  50.3663788  47.0184746  43.1553802
  50.4334183  46.1108856  41.9459305  65.9458618   4.3454771  14.3231220
  66.0601807   3.4035242  14.1970749  65.0039597   4.4573479  14.4517231
  55.4907646   6.5800023   0.9491054  55.8199081   7.2079988   1.5921580
  55.3734283   7.0943046   0.1503830  82.4452667  21.4814129  35.4152908
  81.8692780  21.4288101  34.6525955  82.0573654  20.8793602  36.0503502
  24.0282650  33.1521721  63.7408981  24.3937473  33.5987587  62.9772110
  24.7869110  32.7652435  64.1779022  45.4084282  47.9636040  73.0623093
  45.5484314  47.4174919  73.8358688  45.6567764  47.4043999  72.3262100
  75.1824265  71.0495148  66.1460724  74.4903488  70.5347366  66.5611191
  75.9943848  70.6189423  66.4135818  47.5380058  36.1214676   8.8644238
  47.6208687  35.1760826   8.9893827  47.0117226  36.2128563   8.0701294
  85.2443085  35.3794975  53.4839439  86.0824966  35.8124504  53.6458855
  85.0806503  34.8699646  54.2775612  59.2325287  54.2266998  26.8271713
  58.3170586  54.1728630  26.5528564  59.2265663  53.9374466  27.7396030
  81.8728561  47.7093124  14.6991091  81.7787552  48.6610451  14.7388554
  82.7419128  47.5700607  14.3228397  75.2187881  16.6400681  26.4096756
  74.4299622  16.2800274  26.8150806  75.0108185  16.6814556  25.4762592
  86.2466049  60.1928749  68.5739365  86.9731140  59.5699310  68.5926666
  85.5962524  59.8203316  69.1693344  84.4952240  12.4426126  38.0530434
  83.8109741  11.8297968  37.7837906  84.0643997  13.2973795  38.0539055
  44.7807426  70.7617950  82.0114517  44.6303673  71.2382584  82.8279114
  45.4001465  71.3071289  81.5264969  12.6173840  35.2568398  75.1484985
  12.6284475  35.8716049  74.4148941  12.9308624  34.4329948  74.7753525
  60.5415344  10.7839937  39.8581352  61.3980179  11.1668987  39.6682625
  60.3625069  10.2146244  39.1098061   2.6731126  10.3291149  48.4267921
   2.9217067  11.2053461  48.1324234   1.8670290  10.4635906  48.9251671
  60.1103020  67.2347870  30.6718922  59.6579170  67.3556137  31.5067444
  61.0262260  67.4352570  30.8645821  58.6330223  46.4930000  78.3763962
  58.0439377  46.9934616  78.9409714  59.3290482  46.1940536  78.9615555
  65.0178986   1.5709015  51.4893074  65.8396530   1.0825089  51.4400177
  65.2752380   2.4431746  51.7878838  53.6150627  48.1968803  26.2863522
  53.5623741  47.2430992  26.2250805  53.9267654  48.4753494  25.4252319
  64.0981369  14.2982721  41.9125404  64.9545975  13.8933487  42.0494652
  63.9615402  14.2555017  40.9661026  26.3064747  60.9849815  46.1175728
  25.4330711  60.6478004  46.3168373  26.8902149  60.4952049  46.6968803
  68.9256592  56.1582527  71.4466171  68.7260666  56.0056496  70.5229797
  69.0721436  55.2839279  71.8076324   6.0911832   8.6441889  70.2649002
   5.6483669   7.7955794  70.2675247   7.0225129   8.4282236  70.2178345
  76.4818039  24.1020966   4.8248439  76.1554642  23.5339470   5.5226550
  76.3539886  23.5946350   4.0233588   1.9321575  25.0050068  49.4599190
   1.9776226  24.0669575  49.2749062   1.1723652  25.3103485  48.9642258
  18.8676834  51.8670158  26.4238968  18.6633244  50.9321938  26.4479904
  19.3097630  52.0370560  27.2556915   5.3333192  60.2796516  13.5627518
   4.5809011  60.1414299  14.1380730   5.1015911  61.0518188  13.0467138
  62.3947411  71.5959930  63.5274696  62.7445374  70.7092667  63.4403763
  61.7861862  71.6865005  62.7941933  32.1982231  39.4441452  85.5788116
  32.5516319  40.2115822  85.1289520  31.2652245  39.6334381  85.6783905
   5.5403833  53.1084328  59.1616516   4.9843521  53.5288429  59.8176346
   6.3221350  52.8420410  59.6455231  25.8134556  55.3323021  30.2071800
  26.3963604  54.5736580  30.2373753  26.2909985  56.0198898  30.6713028
  75.5986786  42.1005783  27.9471321  74.7845535  41.6329422  28.1335335
  75.5306473  42.9106827  28.4524422  36.4894371  63.6547356  87.3581009
  36.6004143  62.7205963  87.1811905  37.3430252  63.9398041  87.6842270
  26.0704994  13.7047424  25.6921597  25.9135380  12.9802160  26.2976799
  26.9894276  13.9356775  25.8280659  46.2027550  14.1263418  71.4934769
  46.3989334  14.0798492  70.5577469  45.3854980  14.6222467  71.5425034
   6.9230752  50.9364357  12.5993633   7.1762438  51.8512688  12.7227001
   7.6197886  50.4357986  13.0238447  84.7775269  66.0360718  45.2915535
  85.0995178  66.7967758  45.7751694  83.9753189  65.7836380  45.7486801
   7.2158713   2.1828544  75.6382141   7.9867463   1.9356850  76.1489868
   7.5305934   2.2260149  74.7352676  80.9117889  55.9467697  67.0992508
  81.0882111  56.7112732  66.5509415  80.4601135  56.3006210  67.8654099
   6.4837480  56.9434242  24.3769054   6.7975426  56.4834061  25.1554604
   6.8329816  57.8302116  24.4656467  68.1245728  61.3767471  83.4841385
  68.7989807  60.7568512  83.2064056  68.4910965  62.2369995  83.2795410
  49.6203308   3.2824202  59.4135437  49.2725983   3.9790194  58.8567085
  48.8942719   3.0552280  59.9944534  75.5632553  27.2582607  57.2360497
  76.2825241  26.7086601  56.9248886  75.2169800  26.7915936  57.9966736
  68.0294571  38.1905479  34.4319687  68.8471069  38.5710754  34.1112289
  68.2000427  37.2492447  34.4648476   3.8157692  68.8666153  40.8128319
   3.9142518  69.0491867  41.7472839   4.0958705  67.9564743  40.7157898
  73.2678223  50.2851410  45.2002792  73.4408188  50.0493736  46.1117172
  74.0968018  50.1239204  44.7496910   0.8869500  38.3806725  32.6343346
   0.0997076  38.5085869  32.1050720   0.6199974  38.6188927  33.5221519
  15.6246319   3.4313834  46.5683746  14.7503920   3.7464523  46.3388824
  15.6686087   3.5192907  47.5205154   1.4659994  41.2624168   3.0602167
   0.8494405  41.0027809   3.7448161   0.9128552  41.4828911   2.3107810
   2.8453856  41.0247650  85.2174530   3.2230389  40.8129158  84.3638000
   2.6298389  40.1749268  85.6015701  18.3870811  64.7336426  81.3152313
  17.6607533  64.8421097  80.7012939  18.3312969  63.8193703  81.5931244
   2.0890300  19.7182465  78.6580734   1.1474720  19.7894402  78.5011215
   2.2189207  18.8088493  78.9270630  69.1153259  60.9458504   4.4944658
  69.0519867  60.9633598   5.4494071  69.1796341  61.8668480   4.2417669
  41.7630730  20.1574841   1.3090632  42.3889656  20.6160564   1.8695961
  41.8116264  19.2445641   1.5927060  23.3660355  35.8834953  18.9122066
  22.5829086  36.4194183  18.7867908  23.4423828  35.7894745  19.8617134
  85.0485229  24.5953484  60.6662064  84.7871552  23.9799442  61.3511848
  84.8125000  24.1577244  59.8482742   2.9158232  25.2221127   4.9654598
   3.6490562  24.6654778   5.2276764   2.1455927  24.6605644   5.0528674
  47.0419006  58.3879776  16.3420296  47.7232857  59.0580864  16.3958683
  46.7101021  58.4551659  15.4466925   7.7785425   7.9212070  34.7578468
   8.6759748   8.0274925  34.4423294   7.2915516   7.6104574  33.9946289
   9.5707178  16.0944633   1.0054835   8.9059658  15.8173094   0.3749894
  10.1842918  15.3608265   1.0446832  25.3133526  52.9167519  50.7014122
  24.4207554  52.8407936  51.0386543  25.8423233  53.1308937  51.4698944
  84.7555771  11.6775045  60.2329140  84.1347580  11.0945721  59.7958679
  84.2898788  12.5103960  60.3080864   9.3780279  61.2899017  77.4252396
   9.2253437  60.5819969  76.7993088   9.9679918  60.9105682  78.0766144
  64.8172531  54.0447693  50.2496910  65.6439056  53.6164894  50.4720535
  64.9863663  54.4699974  49.4089699  57.1052399  26.3362064  65.5166168
  56.3268166  26.3900604  66.0710449  57.5322609  25.5216064  65.7817841
  69.9919205  43.6719208  77.9569016  69.4778595  44.1533241  78.6051483
  69.3428421  43.1805649  77.4534149  62.4246864   1.1164236  36.6265755
  62.0332413   1.4856825  35.8349648  62.6269073   1.8772432  37.1710854
  53.0613937  13.8894434  61.6327515  52.2982559  13.3136835  61.5842323
  52.8748398  14.4729128  62.3682747  81.1467285  63.3406639  17.6588669
  80.3964996  63.0096359  18.1526375  80.8132401  64.1162949  17.2078533
  53.7999344  39.7822266   5.9959583  52.9002571  39.7246819   5.6742415
  53.8351593  39.1589317   6.7215576  78.5835495  11.2174501  51.6737099
  77.7686386  10.8553963  52.0216675  78.5285797  12.1545115  51.8611298
  17.3813190  67.9425430  15.6871243  18.2134380  67.8782043  15.2184315
  17.1291866  68.8620453  15.6024084  29.5528069   9.2796650  71.2958450
  28.8391857   9.4541245  70.6822205  30.1017609  10.0626736  71.2536697
  52.0685158  51.8741837  51.1712990  52.5719032  52.0251198  50.3712692
  52.7282524  51.8195610  51.8626709   7.9051657  30.3257351  73.2122726
   8.7769909  30.7182789  73.1668549   7.7900062  30.1043930  74.1363831
  11.4937344  48.1559258  40.7623291  10.9056568  47.4369240  40.9934883
  11.6735373  48.0282593  39.8308792   0.5921435  45.0734596  80.8296432
   0.5174454  44.9233932  81.7720490   1.3755785  44.5880165  80.5711670
  13.5712032  50.5725327  81.5996704  13.3675909  49.7728157  81.1146698
  14.2715120  50.3168221  82.2000122  39.1305542  67.4741821  23.4181061
  39.0743446  67.1622772  24.3213158  38.3170815  67.9597549  23.2813320
  68.6654434  64.2493515  78.2943268  68.8691559  63.7088356  77.5310593
  68.4296494  63.6209373  78.9767761  76.0110703  12.9390230  32.0849037
  75.3816986  13.4342031  31.5605736  75.9610214  12.0474443  31.7402096
   4.2360964  57.8468399  21.9513779   4.7217460  58.5424957  21.5081673
   4.8809900  57.1522331  22.0850506  84.5130463  50.4767914  58.5644417
  84.7013626  51.3208275  58.9747696  85.2945862  50.2822800  58.0471420
  28.5868340   6.5549483  40.6787758  29.4558697   6.4016585  41.0495987
  28.3084488   7.3887482  41.0576057   3.7605560  50.8243599  85.1369171
   4.6027942  50.9288445  85.5795822   3.6826515  51.6016541  84.5837631
  25.9525928   2.6791952   7.4260807  25.8623734   1.7262822   7.4190478
  25.5169296   2.9669526   6.6238179  38.1179085   8.5676146  80.6691284
  38.5139580   8.4563265  81.5334167  37.1809654   8.4387016  80.8166122
  50.4038925  28.2502346  62.5937424  50.0178604  27.7538567  63.3154182
  50.5382233  27.6021996  61.9021950  34.7694740  46.8275986   8.4900618
  35.1951828  46.0997620   8.9431133  35.2561798  47.6023445   8.7713327
  49.6712189  26.3875904  58.8056908  49.2718468  27.0058060  59.4176903
  48.9289246  25.9556026  58.3830605  17.3463097  46.9491615  43.5211792
  17.2444801  47.4122467  44.3526917  17.7779980  47.5811768  42.9463501
  61.4749489   2.3045216  53.6256065  60.6527596   2.7798471  53.7451935
  62.0245934   2.9008534  53.1171608  66.8025360  39.3685684  68.2049408
  66.3043060  40.1454086  67.9509354  66.5627899  38.7073860  67.5556335
  45.9269676  42.2456169  69.8791733  46.8360939  42.2919159  69.5832291
  45.4448395  41.9153290  69.1210861  72.3294678  41.4212112  60.5428848
  71.5060043  40.9529877  60.6804047  72.1116638  42.3399925  60.6998367
  39.0028229  65.2428055  75.9768829  39.5145531  65.4510117  76.7585526
  38.8847656  66.0845337  75.5366669  84.5280838  60.8494301   1.7710068
  83.9808350  61.6178551   1.6089189  85.4241257  61.1637917   1.6505011
  55.2174072   8.6722546  71.7539520  55.0305977   9.5615282  72.0548325
  55.4746284   8.2004709  72.5460968  60.8240814  56.6937294  42.7693100
  59.9276466  56.9773369  42.9487724  61.3365059  57.0439224  43.4980202
  74.3704071   4.3750844  23.1217155  75.1012573   3.7626815  23.0377407
  74.7837830   5.2375975  23.1594620  75.4664688   7.4466448  22.9147930
  75.9110870   7.1153841  22.1345272  74.6763763   7.8697944  22.5787525
  73.9994507  16.4247322  39.2239342  74.7719955  16.9503880  39.4315224
  74.3518143  15.5741482  38.9620590  54.5661392   0.8444152  77.9711227
  54.9550323   0.5983834  78.8104477  54.3213730   0.0117920  77.5673141
  16.8966026  10.6469154  75.0330658  16.3350258  10.7495098  75.8013992
  17.6557522  10.1604939  75.3544922   9.3137884  28.1789284  21.2902813
   9.3249483  28.8739681  20.6322327  10.2012653  27.8206120  21.2752666
  46.3314285   7.7190218   7.9173055  45.7532234   7.2325873   8.5049210
  46.3418541   7.2036381   7.1107678  41.6990051  56.5089111  63.3245544
  41.7701530  55.6745186  63.7881927  42.0830383  56.3385124  62.4644852
  77.9473572   5.9835134  33.0201988  77.3181458   5.3192821  33.3014793
  77.5817108   6.3304377  32.2064552  85.9423752  45.5493126  19.6499481
  86.3059769  44.6899261  19.4366856  84.9966049  45.4066391  19.6874180
  37.2523499  15.7320461   5.3349290  37.9433441  16.0192280   5.9318261
  36.4615440  16.1632519   5.6588464   6.8425374  53.1567879  40.0613823
   6.8698478  52.5325203  40.7864876   6.7453599  52.6123314  39.2801285
  51.7183418  23.2691803  10.0400553  52.2067490  23.3702412  10.8570461
  51.1165962  22.5441666  10.2088547  75.9681549  12.6064959  43.3425522
  75.5818024  11.8751240  42.8608284  76.2584839  13.2144470  42.6625977
  36.1009026  24.8378029  87.3111572  36.7710609  25.1397305  87.9243164
  35.4112587  25.4993896  87.3652420   8.7429552  63.9665108  58.7562256
   7.8339334  64.1848526  58.9617424   9.2093601  64.0785980  59.5845566
   4.1077194  26.6855850  30.1143303   3.3447330  27.1899357  30.3966656
   4.8426461  27.2921505  30.2048492  11.5933428   7.6701040  51.8027458
  10.7540483   7.5467224  51.3593559  11.9596472   6.7884641  51.8717613
   7.5415640  65.6474380  47.3794518   8.3894091  65.2044449  47.3455696
   7.2909298  65.6146622  48.3026733  78.8166199  11.6136780   8.1373634
  77.9973145  12.0180454   7.8519487  79.0774155  11.0571651   7.4035316
   9.2707605  70.0518494  63.5230370   8.6497707  69.9824371  64.2481461
   8.7262049  70.2391052  62.7584305  86.0893936  14.5002174  57.7148132
  86.5967026  14.3655806  56.9143486  85.1863861  14.3094969  57.4609985
  42.1333580   2.1996484  58.1483002  42.1368103   1.8564855  57.2547379
  41.2437744   2.5296412  58.2747040  65.5135956  55.4378281  79.4162674
  65.4611206  56.3880501  79.3135452  66.0501785  55.1464958  78.6790848
  82.3590317  16.1296940  78.0099487  83.2666473  16.2234802  77.7206955
  82.4093170  15.5555258  78.7741699  20.8813190  26.6091595  80.0354614
  20.3527603  27.3991013  79.9220963  21.4680672  26.6030045  79.2792053
  50.6023216  60.4932747  22.7398949  51.2754745  60.0482178  22.2250938
  50.6240845  60.0564537  23.5913315  21.3959808  32.7378159  62.8962975
  22.3102684  32.9132042  63.1188927  21.1249561  33.4975471  62.3809433
  34.7164040  60.9146233  70.2376251  35.5627670  60.9435997  69.7914658
  34.2282333  61.6530380  69.8733902  36.8396950  71.1612473   6.2608118
  37.2934341  71.9960632   6.3767018  37.5284119  70.5478745   6.0045390
  15.7847843  60.4802971  73.9610825  16.4985600  59.8459969  73.8945999
  15.2425928  60.1562195  74.6802750  76.4560165   3.2320087  29.0362129
  76.0505600   3.8771033  29.6156025  77.2944031   3.0303457  29.4517536
  -0.1079577  40.1199760  26.4156799   0.8376756  40.2536278  26.3512783
  -0.2015606  39.3027115  26.9051151  26.5417919   5.9860616  28.8019047
  27.3107014   5.4287653  28.9220409  26.7576466   6.7951994  29.2655144
   2.9226685  21.9669876  87.0379410   3.4660072  21.8572750  86.2575760
   3.0635684  21.1658382  87.5424652  81.1870270  67.8168030  21.8701401
  81.3388901  67.0801392  22.4621639  81.9230194  68.4077148  22.0293827
  70.3675079   4.6839337  57.0753746  71.1623077   4.3372898  56.6699677
  69.6572952   4.3742261  56.5133209  33.5687828  57.3951378   9.1171856
  34.5052490  57.2714806   9.2720118  33.5180397  57.7572975   8.2325974
  70.4478073   1.5860964  83.9361115  70.5740585   0.7809970  83.4340134
  70.7689438   1.3745497  84.8126678   3.4792433  31.7904243  77.4861679
   3.6117587  32.7272606  77.6311188   3.4337928  31.6993961  76.5343933
  84.9215546  15.7233734  76.9436417  84.6345215  14.9108839  76.5268631
  85.3508606  16.2135582  76.2424698  73.3917007  23.1910496  18.0913506
  73.0734329  22.2885036  18.1101456  74.1418839  23.1681557  17.4972687
  16.9761982   5.9730921  36.4337730  17.8967915   6.1296215  36.6441040
  16.8903255   6.2423482  35.5192490  52.5538788  40.9248466  16.7513714
  52.7229805  41.8668861  16.7653866  52.2423248  40.7242737  17.6339455
  21.8508091  38.1993103  15.0473719  21.5980949  38.7386513  15.7966919
  22.0989628  38.8298264  14.3712788  40.7776985   0.2153294  12.0896568
  40.9008026   1.0329282  12.5719519  40.4209366  -0.3930951  12.7367830
  74.1535416  14.1380568  61.5370941  74.9684448  13.9706335  61.0636635
  74.2863159  13.7317648  62.3935585  84.0947113  33.6982803  87.7487030
  84.3716278  33.0287743  88.3742523  83.9667892  34.4841766  88.2799606
  56.4668694  10.8624144  85.7019272  55.8763962  11.3039799  86.3123322
  56.7370758  10.0679598  86.1624374   4.5667701  45.6884232   4.0431070
   4.5397263  46.3618889   3.3634424   4.6287885  46.1781425   4.8632059
   0.5662901  19.7404079   5.6278095  -0.0329253  20.1532440   6.2496924
   0.3727446  18.8052788   5.6934466  36.7497520  58.7700768  33.1885490
  36.4291115  59.1681786  32.3792686  37.5578156  58.3252373  32.9328537
  68.8777924  67.7283554  66.9020157  68.7389603  68.5314484  66.4000244
  69.6851807  67.8879623  67.3907623  59.2446022  53.3668747  41.3238106
  60.1889801  53.5188751  41.3595467  59.1415558  52.6444359  40.7043839
  23.5665684  66.4135818  34.1007423  22.6265793  66.5920792  34.0726128
  23.8526421  66.4922714  33.1906853  11.3918266  24.6804199   1.0021104
  11.5484562  25.5137005   0.5578770  11.5391636  24.8714218   1.9284159
  79.3291245  58.3303185  27.3327770  79.3079834  57.4201927  27.0370445
  80.1326447  58.6866837  26.9538441  29.5291061  13.4284267  11.5195274
  30.2053452  12.8569355  11.8832989  28.9055023  12.8299103  11.1082745
  54.5909767  46.0527267  22.7588902  54.5069656  46.3075600  21.8400688
  55.3220978  45.4350166  22.7702370  29.5172577   0.6327125  64.2564926
  29.2913437   0.7123839  65.1832352  28.7947998   0.1332524  63.8759346
  68.1958313  19.2482090   3.5672805  69.1357269  19.3273373   3.7302735
  67.8188705  20.0405540   3.9497993  51.9660988  29.6369839  67.2188339
  51.7198448  30.5464668  67.3874512  51.4764519  29.3982468  66.4317627
  64.7131882  30.0388966  70.8938446  64.8660660  29.3553734  70.2414169
  64.3994446  30.7878685  70.3870468  18.4100533  71.6300430  79.9948120
  18.2052021  71.5975266  79.0603561  18.9187775  70.8354568  80.1562805
  31.1391373  52.3924522   8.1411171  32.0711555  52.2965584   8.3370094
  30.7043095  51.7901611   8.7447748  17.1779804  14.5055923  11.3471727
  16.4417820  15.0602541  11.6052370  17.1693039  13.7867146  11.9791307
  57.0483856  66.9225540  29.4103260  56.8430672  67.3057098  28.5575275
  57.7388649  67.4828415  29.7646542  85.1216888  68.2293549  21.5227470
  84.9997864  67.5003967  20.9144802  84.9916687  69.0122147  20.9875240
  31.7460079  13.2227335  75.9642944  31.1233006  13.9421768  76.0685425
  31.9333725  12.9366894  76.8583298  62.8638382  65.4639740  46.4223480
  62.2284737  65.6877670  47.1023941  63.7035637  65.4310455  46.8806114
   5.6154685  35.8347855  50.4633255   5.7610278  35.8104935  49.5175705
   4.9800406  36.5393829  50.5898399  34.7546501  38.5545311  14.3349247
  35.5362587  39.0294189  14.6174183  34.8215027  37.7037964  14.7685223
  31.9390850  57.2610588  36.5204086  31.8751640  57.0076714  37.4412460
  31.8814354  56.4350700  36.0401497  13.0701838   4.1597376   7.4730592
  12.4814777   3.8063371   6.8061523  12.5002174   4.6666503   8.0513411
  71.3595734  32.0448799  22.8718357  70.8385620  31.8311157  23.6458397
  72.2624969  32.0648880  23.1889515  67.2801285   5.8419404  12.0675077
  66.8508072   5.8023906  11.2129021  66.5596161   5.8434181  12.6976604
  54.2784424  57.3144035  25.2056141  54.2854004  58.2691078  25.2743359
  54.6323891  57.0114937  26.0417957  82.6399689  27.1011410  52.4729004
  83.2667084  27.4799728  51.8565254  82.4945526  27.7906170  53.1207504
  81.2881622  68.8980179  39.0366096  81.4267426  68.9916992  38.0941391
  81.5379486  69.7471695  39.4009972  78.7888641  32.7344360  82.5808563
  78.0928650  33.0686493  82.0150681  78.3862381  32.0033455  83.0494995
  84.7691116   9.3415051  36.9859085  84.3934631   9.2838392  37.8644295
  84.2144699   9.9740610  36.5293121  50.9126091   8.6190147  88.0445175
  50.9858894   8.0715952  88.8263092  49.9708061   8.6888742  87.8884583
  19.4908886  40.5892143  74.5448761  19.6728840  39.8327866  73.9872665
  20.3056488  40.7336159  75.0260696  31.0255432   6.3021994  56.8953018
  30.2733803   6.2951655  56.3033257  31.3525352   5.4027543  56.8777924
  31.4660225  57.2178955  26.1954308  31.6720371  57.6810722  27.0073757
  32.1154022  57.5346870  25.5675907  56.9294662   8.3644047  64.7954254
  56.1966400   8.5078535  65.3942795  57.7052269   8.3910084  65.3555374
  31.7744083  42.8124695  59.7838326  31.3000793  41.9880486  59.8914337
  31.6402664  43.0479164  58.8657913   8.3808022   6.8368754  69.4965973
   8.2585287   6.1803551  70.1823502   9.2971125   7.1011963  69.5787125
  74.4558182   6.2363682  87.4192657  73.5805588   6.0143366  87.7368393
  74.7309113   5.4683466  86.9185715  72.8938675  53.7067261  61.3778229
  72.2409744  53.2291260  60.8660965  73.1326065  53.1049538  62.0828781
  51.1124573  68.2063293   1.1566566  50.2106781  68.4141388   0.9120209
  51.0517197  67.9077606   2.0640700  24.8748436  12.6523333  13.0687847
  23.9963646  12.6438990  13.4488297  25.3866539  12.0754595  13.6357937
  29.2654457  69.8221588   0.9449009  29.4434013  70.7336960   0.7132436
  28.3113270  69.7501678   0.9183314  23.8144054  67.6822281  81.2257080
  23.3410912  68.4947052  81.0465622  24.7353764  67.9419403  81.2500610
  61.7118149  28.4007320  58.9860802  62.2211571  27.5991535  59.1055603
  62.0979538  29.0238495  59.6015930  17.2750397  58.5404739  42.4471474
  18.0841045  58.4301682  41.9476700  17.4857903  59.2078705  43.1001396
   2.9578295  35.6701431  38.6770515   2.4471858  35.5084267  39.4703484
   3.7633474  36.0814552  38.9904099  81.5778961  26.8160515  59.3878136
  81.9879150  26.9790077  60.2372589  82.0326004  27.4048462  58.7854843
  49.6039696  18.4354897  16.6748600  48.8811913  17.8677406  16.9422207
  49.3989334  18.6746788  15.7709904  51.5033340   9.2722378  26.9310513
  51.1186905   8.6320391  27.5297394  50.9133110  10.0247574  26.9737358
  38.1387711   7.0510283  85.4883118  38.9086151   6.8262019  84.9657974
  37.8965530   6.2329259  85.9222183  17.4752235  50.8277664   0.1474924
  17.9301090  50.3317757  -0.5331722  17.0122643  50.1639557   0.6586268
   1.7754333  57.8259125  11.6173248   0.9857413  57.5624313  11.1448889
   1.6217175  58.7419243  11.8486719  15.4380598  55.9748192  46.8981361
  15.4931469  55.2635498  46.2599411  15.4017563  55.5330963  47.7465439
  80.1463776  27.5745506  62.4143715  80.8145370  26.9060383  62.5656471
  80.5699615  28.2103577  61.8376923  39.1991844  63.9610329  21.5474072
  39.5518456  64.2431335  20.7034416  38.4261856  64.5098953  21.6795082
  13.9297609  63.8890915  75.6746750  13.1583157  63.3224678  75.6809006
  13.7163038  64.5773849  75.0446548  71.2088470  42.8203354  83.9872513
  70.6907883  42.2642212  83.4053726  71.1669388  42.3822289  84.8372726
  35.9944153  52.2362366  40.7799721  35.7118187  51.4028931  40.4032631
  35.4196548  52.3651924  41.5344620   9.5261545  65.7207184  75.2189636
   9.4593878  65.5722733  76.1622238   9.1131363  66.5731049  75.0808182
   4.2994018   4.0933585  40.1847725   5.1759739   4.3592405  39.9069939
   4.4391255   3.6376867  41.0148735  25.7806625  41.9706612  80.2127686
  26.7260189  41.9690132  80.0626678  25.4191093  41.4897346  79.4683075
  25.4928284  46.0089874  85.2795334  25.5488243  46.9461327  85.0928497
  25.0099068  45.9575195  86.1043854  30.4213448  58.4264259  71.5874481
  31.3114281  58.7737961  71.5298462  30.5149422  57.4941483  71.3916626
  30.3415909  33.2003288  83.1346130  29.8888474  33.9813156  82.8163223
  29.6510525  32.5438347  83.2262955  38.8877831  66.5807190   0.4172829
  37.9392548  66.5614090   0.5443918  39.2493362  66.3879166   1.2823479
  66.5328217  29.2084141  39.7608109  66.9296494  29.9647655  40.1928864
  65.5945053  29.3976135  39.7607841  83.9193802  38.1025047  41.3872757
  84.0242462  38.9784889  41.0159492  84.6681061  37.6091461  41.0522537
   6.1464543  40.1913147  62.1339645   6.4224248  40.6035461  61.3153458
   5.2180786  39.9979782  62.0036926  16.9797573  38.8831673  82.2919083
  16.9080982  38.6396179  81.3689880  17.9153023  38.8201599  82.4843063
  85.6835709  67.4052811  55.1476974  86.6242905  67.3481750  54.9803429
  85.3742523  66.5014572  55.0872955  64.8652954  58.4539833  45.0885849
  64.3385162  57.6622925  44.9792519  65.6163559  58.1717339  45.6105804
  10.0430059  44.4751396  54.8859062   9.9016113  43.9605637  55.6805458
  10.6308594  45.1797485  55.1582718  38.9521027  65.6372986  27.2246609
  38.8496132  65.6481781  28.1762962  38.8595886  66.5534744  26.9633160
  68.5719757  27.2974739  79.8762207  69.3154221  27.3305130  79.2742004
  67.9456940  27.9265976  79.5181580  15.3711157  25.5254211  18.9918594
  15.6386957  26.1423416  19.6730671  16.1456699  24.9833603  18.8419666
  35.9092636  71.6186981  61.8438721  36.7132111  71.2791290  62.2370644
  35.2681313  71.5985947  62.5543480  54.3949051  39.3654671  15.1646614
  54.0239639  39.4846153  14.2903385  53.7970161  39.8368797  15.7447777
  35.4815903  69.1539612   0.9762629  36.1888084  69.2414093   1.6153429
  35.4122658  68.2116241   0.8231875  14.3819809  22.3152752  72.2411041
  13.6113014  22.8007431  71.9468155  15.0971355  22.9497528  72.1939545
   8.2049570  21.1796303  73.0801544   9.0354919  21.3610802  73.5200653
   7.5364408  21.4495869  73.7097931  74.6806946  63.3234329  18.9382820
  73.7950439  63.0045013  18.7646618  74.6491165  64.2530212  18.7122192
   6.2370176  15.1746769  60.0677032   5.4126816  15.0833426  59.5898323
   6.0017610  15.0207920  60.9826927  46.3420372  15.9440956  82.8801804
  45.7833443  15.3187742  82.4185867  47.0270996  15.4059095  83.2767639
   1.5090369  50.7881279  51.7095642   0.7372610  50.5420113  52.2194862
   1.4416367  50.2697029  50.9077339  39.7166901  14.8986635  65.6345520
  40.3192406  14.6879883  66.3478470  40.2226143  15.4667215  65.0535355
  57.2842484  67.6048431  62.8950500  56.7956810  67.6519470  63.7168274
  57.2876816  66.6741333  62.6714554   2.5441787  14.7860622  59.9804306
   2.7634165  14.9995718  60.8873940   1.7266210  14.2920055  60.0415840
   8.2689457   6.6180205   3.4040556   9.0485897   7.1059165   3.6692796
   8.0479460   6.9700065   2.5417931  53.3654442  12.6455755  40.5690651
  53.9281044  11.9312277  40.8679771  53.0723953  13.0725451  41.3740807
  31.7752056  14.2587481  13.9296112  32.3102722  13.4835739  14.1000328
  32.1054230  14.5996885  13.0983791  25.6147346  -0.0542012  53.6640320
  25.4684105   0.8568820  53.4095764  26.3544388  -0.3371784  53.1264496
  52.8933105  61.8295746  72.3160629  52.8829308  62.3492889  71.5123062
  51.9692192  61.6916962  72.5240784  71.5097122  63.8633118  42.3911591
  70.6425476  64.2099838  42.1812057  72.0728836  64.6361694  42.4331779
  45.3762207  68.6237640  64.0410461  46.2816849  68.7913742  64.3023453
  44.9382286  68.3603439  64.8503723  85.5269928  51.9089279  84.6746368
  85.2843018  52.8070488  84.8998260  85.4352188  51.8675346  83.7227402
  49.0271263  14.1360407  73.5367432  49.4499741  13.4482746  74.0509491
  48.4363632  14.5676317  74.1539612  13.0406847  71.3242111  60.5090561
  13.8829460  71.1977692  60.0722046  12.4483356  70.7152100  60.0680695
   2.7726161  53.6016884  51.9703178   2.2468073  52.8018494  51.9736595
   3.0114729  53.7274628  51.0519714  30.3547611   5.9730277  76.1172180
  30.8794994   5.7277451  76.8792648  30.6437092   6.8600535  75.9029083
  70.7380295  39.6195374  30.5959187  71.3849258  40.3165817  30.7049065
  70.0887909  39.9869461  29.9961452  63.3711090  51.8890343   6.8983626
  63.1044960  51.9910049   7.8120093  63.8033257  52.7150688   6.6813669
  70.1800766  27.3648472  30.6968632  70.6260071  26.7180862  31.2437420
  69.9974213  28.0942421  31.2891922   6.4727721  40.2961349  72.7094574
   5.8665118  40.4118919  71.9778290   7.3261976  40.1680069  72.2953568
  61.2412834  67.1452103   6.6370158  60.8871040  67.7012100   7.3310304
  60.4701157  66.7540741   6.2264762   9.3444881   3.8294141  10.0409298
   9.7334051   3.0790102   9.5916319   8.4446907   3.8630314   9.7161741
  84.6521759  65.1420670  25.9845543  85.0202789  65.6068497  25.2330799
  83.8269424  65.5926208  26.1640701  15.8661346  31.1109295  79.5337524
  15.9229107  32.0128365  79.2181931  14.9469080  30.8725624  79.4135971
   9.4309025  54.8531952  67.0420837   9.6111298  55.7927818  67.0725327
   9.1627235  54.6317368  67.9338608   5.5486226  61.8644905   5.3444557
   5.9631667  62.2032661   6.1379404   5.5698380  60.9134216   5.4504962
  82.2743988  37.7665443   5.7219629  82.6390152  37.7503777   6.6068506
  82.5517578  38.6098480   5.3639998  56.2782593  34.0105400  74.8826752
  55.3537064  33.7710648  74.8187408  56.4993668  34.3461685  74.0139465
  39.9954529   2.9456255  83.1229935  40.5148888   2.1520567  82.9938889
  39.4145432   2.7353437  83.8541260  43.9836235  45.2534676  10.0844593
  43.4647408  45.5604820   9.3409967  44.8920822  45.3517685   9.7993841
   4.0376463  27.8147449  72.3519745   3.8270230  26.8819695  72.3095245
   4.9923854  27.8476830  72.2918167  64.9923782  26.4028931   6.6146235
  64.8329086  26.0565739   5.7366343  65.9429550  26.3618889   6.7192645
  12.5130854  67.3337250   4.4227452  12.6945791  67.6387558   3.5337851
  11.5689144  67.1767349   4.4340100  67.5231781  50.6595917   6.4465203
  66.5901184  50.7794228   6.2696800  67.6461792  49.7103386   6.4507604
  49.9955559  69.6442795  34.5248909  50.9034729  69.3435135  34.5631218
  49.4964218  68.9556351  34.9640503  44.0728035  11.7348824  14.1213751
  43.4603386  11.0028124  14.1934223  43.9881325  12.2007580  14.9532537
  55.4064941  17.0923786  84.4864197  55.5658531  16.3295765  85.0422668
  55.6723328  16.8106251  83.6110992  74.9173737  32.7342873  47.2175484
  74.5078888  31.8986816  46.9932365  74.8370514  32.7924423  48.1695976
   5.6852517   0.3902467  72.9880066   5.9498014  -0.0085136  73.8170013
   4.8735299   0.8540159  73.1935654  51.3223801  49.3873215  76.0405350
  51.7703247  48.6441078  76.4445267  50.9537048  49.0335960  75.2310944
  20.2903404   3.2463183  41.7532921  20.6207294   3.8694677  42.4004059
  20.9026661   2.5117102  41.7937851  70.8667984  40.8838158  57.7452660
  71.2297516  40.0290565  57.5131378  69.9324875  40.7203484  57.8739815
  68.3297806  15.6285963  37.3135948  68.5486755  15.1833048  36.4950409
  68.2353439  16.5488663  37.0677948  50.4463272   0.4452462  81.7998276
  51.3461838   0.1203222  81.7695694  50.0724983   0.1942010  80.9551620
  22.5969181  40.5373459  74.8847961  23.2312317  40.5645294  74.1684647
  22.8499279  39.7711983  75.3998108  64.8369598  63.2305756  34.1705589
  64.1980209  63.3636360  33.4703522  64.5216827  62.4575119  34.6387520
  50.4209023  57.7844887  57.2255783  50.8122406  57.4341545  58.0257988
  50.9722939  57.4448166  56.5207214   6.7433481  43.8706665  36.5849419
   6.2207370  43.2632103  36.0613899   6.2212691  44.0174332  37.3736916
  74.1856232  59.2469215  48.5401955  74.9591293  59.8036728  48.4510307
  73.4531403  59.8142967  48.2998161  71.8766708  47.8145370  53.7595596
  72.3985443  47.0769424  53.4435959  71.7128220  47.6146240  54.6812019
  54.4036446  53.6007271  53.0861435  53.5180893  53.6474800  52.7258148
  54.9163284  53.1642761  52.4057770  58.4141579  57.4917755  63.8564987
  59.0769806  56.8479881  63.6066284  57.6155663  56.9783478  63.9784622
  81.3537674  46.1712227  59.2989769  80.4537735  46.4882393  59.2231445
  81.8941269  46.9269791  59.0685921  45.9581528  36.4302559  59.5491524
  45.7056694  36.5766907  60.4607658  46.6204758  35.7405167  59.5918961
  19.8129845  56.1144676  86.7941666  19.4562340  56.8861885  87.2339478
  20.7217312  56.3464813  86.6028976   6.8936086  50.0296135  71.9401550
   6.1639881  50.6157341  71.7392883   6.6106701  49.1748848  71.6151657
  65.6830673  50.5123062  83.0358429  65.9582520  49.6040840  83.1608963
  65.7703018  50.9104195  83.9019394  80.1409683  36.7694168   0.8666968
  79.7060242  35.9638138   1.1460875  80.6603546  36.5096855   0.1057684
  19.3742180  61.9147148  84.4533081  18.9633408  61.8708801  85.3167267
  18.7672100  61.4522781  83.8754501  76.6537628  30.0672607  81.0441055
  76.5762405  29.1851101  80.6807480  75.8270569  30.4931698  80.8174133
  44.8440895  58.7923889   8.0229168  45.6703186  59.2744370   7.9881797
  44.3440285  59.1200256   7.2753706  77.3494492  45.5789871  42.0073624
  76.9467010  45.8757286  42.8234329  78.0714188  45.0163116  42.2873383
  81.8885880  37.5851784  77.8463745  81.5518417  36.7992287  78.2766266
  81.4072495  37.6308746  77.0202637  47.7700043  68.5575256  42.4241905
  47.5724792  68.8817902  43.3028641  48.1510353  67.6913834  42.5685692
  18.1569061  29.9966354  67.8957138  17.2481747  29.7448845  67.7312164
  18.6686268  29.4494972  67.2998810   5.2841597   2.9295454  29.5441780
   5.5902247   2.8495021  30.4475861   6.0085897   3.3516490  29.0823746
  31.6123562   6.4525070  83.2585983  30.8936386   5.9265413  83.6093597
  31.3228455   6.6979799  82.3798752   7.1994052  59.3031235  63.4998589
   6.4937263  59.2357941  62.8566513   6.9338741  60.0228958  64.0722656
  81.7006912  13.4014521  82.5233841  81.4065628  13.7141151  83.3789291
  81.6898041  12.4474125  82.6003265  72.2165451  62.7847557   4.1077309
  71.8453140  62.7857819   4.9900093  71.4986343  63.0757751   3.5454667
  16.6459103  33.8496704  79.3801804  17.5785179  33.9797935  79.2083054
  16.4544849  34.4314384  80.1157990  41.6498375  62.9172401  48.0499649
  40.9825630  63.0472107  48.7238197  41.2198448  62.3752213  47.3884888
  63.4968796  50.4894600  86.5087891  63.5179863  49.5583801  86.7298660
  64.1356964  50.8901596  87.0983505   5.2437305  50.5160980  10.3531256
   4.4222450  50.2080879  10.7359095   5.8989439  50.3574028  11.0326424
  16.2252598  36.7014771  56.2958145  17.0114059  36.1560287  56.3221741
  15.7366171  36.3808861  55.5377350  15.8163662   2.8809195  11.9471083
  16.3613014   2.7790785  12.7274323  16.3846016   3.3192310  11.3136864
  80.9245300  14.0950184  56.9286461  80.6309128  13.6726875  56.1213913
  80.3705139  14.8715620  57.0078888  62.2442589  19.3490887  88.3870468
  62.3784637  20.2152672  88.7716980  62.3040695  19.4944439  87.4428406
  25.2280445  50.8810005  71.3453293  24.9027843  50.2096596  71.9451141
  26.1537857  50.9746704  71.5699615  26.9077740  65.9260025  81.5222931
  26.6175632  66.8259583  81.3736877  27.7953472  66.0148087  81.8695145
  40.9038048  47.7922363  22.3866501  40.3180428  47.0496368  22.2394772
  40.9153900  48.2575874  21.5502625  78.1509552  13.6408367  16.2318668
  78.4808655  13.7982197  17.1165257  78.5335846  14.3425684  15.7051830
  34.5971069  49.5052986  13.3665857  35.1077538  48.7898788  13.7455950
  34.9298172  49.5898705  12.4730635  40.8451538  46.6408501  69.4555130
  40.5101357  45.8873825  69.9415970  41.5470848  46.9881020  70.0059128
  80.5790253   2.5342097  12.8517675  79.9702759   3.0085399  13.4180403
  81.2662201   3.1701820  12.6529427  85.7226715  64.4640732  55.8990440
  85.5987167  63.5564690  55.6213303  85.5497971  64.4522247  56.8404312
  18.6673222  29.3809261  56.4067078  19.1289787  29.0343475  57.1702461
  18.5531921  30.3118458  56.5980072  31.7859669  59.7590218   0.5608969
  31.0956688  60.4144363   0.6616687  31.7223415  59.2208939   1.3499479
  77.2784729  24.7099590  35.5555992  77.8769379  23.9645519  35.6049881
  77.4982300  25.2445126  36.3186150  52.3908539  38.3639069  10.7902012
  52.9741707  37.7974167  10.2851648  51.5197144  38.1889839  10.4341869
  26.8994598  52.6902084  38.1374550  26.6791210  51.7596397  38.1789932
  27.4850807  52.8311195  38.8813820  25.5335884  10.2549648  88.3937988
  26.1170769  10.0614920  87.6600876  24.9912605  10.9802055  88.0837402
   8.6535110  11.8703995  58.8411713   7.7725754  12.0012817  59.1919594
   8.8417759  10.9463367  59.0051765  74.6886444  49.7923660  65.3591537
  75.1192169  50.2359085  66.0899811  75.1800079  48.9781799  65.2500992
  44.9111595  43.9003067   7.6605945  45.1986313  43.0715294   8.0436344
  44.2821922  43.6465797   6.9851274  45.7092133  52.6041679   7.7450294
  46.0627251  51.7728348   8.0614920  46.4168587  53.2336426   7.8836975
  -0.1604180  57.7077904   2.9492717  -0.3335850  58.3670959   3.6212554
   0.7795279  57.5394287   3.0155084  78.0288696  46.6971779  71.7943192
  77.2372513  46.1595421  71.7715225  77.7079315  47.5979614  71.7516022
  46.8032875  34.3517151  69.9364014  45.8706360  34.1394043  69.9727707
  46.8685379  35.2148819  70.3449631  27.7706108  57.1085320  41.7493668
  27.8815918  57.8947563  41.2148018  27.3372440  57.4187164  42.5444832
  41.0129318  36.4868927  15.2572889  41.6282120  36.3467369  14.5375557
  41.5661430  36.5552788  16.0354347  51.9799843  51.2077789  28.4602089
  52.6330299  51.6705322  27.9352093  51.2342072  51.0959702  27.8706760
  76.6131363  67.4070206  42.2110481  76.0361176  66.7431335  41.8335075
  76.4839096  68.1784439  41.6592827   7.2551432  40.2514610  49.6862564
   7.3807073  40.5655441  50.5816994   6.7154818  39.4666138  49.7811928
   0.7150393  70.5845795  49.7995682   1.6556038  70.4801865  49.6557884
   0.4569519  71.2833252  49.1984215  77.3294678  16.8580723  54.6489220
  76.9916840  17.6120052  55.1323662  76.7415619  16.7717838  53.8984871
  74.2232437  56.5503159  58.1646614  73.9364014  57.4202156  58.4425545
  73.4206085  56.0292549  58.1422577  81.8880844  19.1804562  25.0721531
  81.2695999  19.8974438  24.9320202  82.0020447  19.1446209  26.0218697
   4.3569474  23.6246338  11.6690950   5.2513795  23.9328117  11.5233221
   4.3044491  22.8025131  11.1816597  66.5117950  42.4938087  49.4594231
  65.5607834  42.3851700  49.4597549  66.7781448  42.2752419  50.3524590
  48.6943703  69.4936066  89.0614014  48.9570885  69.1341248  88.2140656
  47.7384834  69.4436417  89.0567856  23.3101730  32.8328819  18.4170551
  22.8439369  32.5976944  17.6148453  23.0354042  33.7315521  18.5990639
  16.6059742  34.5844765  16.4513664  15.7521486  34.1550140  16.5040665
  16.4672165  35.4431992  16.8508263  79.2720947  51.2895699  47.5937729
  79.5154114  52.0578232  47.0772324  78.3195114  51.3441658  47.6701012
   1.4015867   8.2929993  79.1594772   2.2500060   8.3672714  78.7225571
   1.6183845   8.1375732  80.0787506   2.3100884  69.3181000  57.0273590
   1.7813270  69.9628296  57.4974251   1.8690487  68.4838486  57.1877747
  15.6570091  54.3014870  44.7469444  15.1255445  53.6369286  45.1852798
  16.2105942  53.8057785  44.1435776  77.1376724  50.9294434  11.9321194
  78.0572433  50.6666031  11.9713516  76.9465942  51.2639847  12.8083630
  13.9018450  42.7458038  32.0348053  13.6325941  42.1758766  32.7551651
  14.8583279  42.7105446  32.0461578  54.3386841  31.7322273   1.8376977
  55.0500641  32.0289421   1.2701305  53.5599823  31.7634163   1.2819263
  48.6563225  59.8167152  59.5882568  49.0973129  59.9929314  58.7571678
  49.3518219  59.5041122  60.1668701  11.6638956  41.0998421  88.2311630
  11.5792580  41.6041985  89.0402908  11.1981096  41.6189156  87.5755386
  12.8097076  22.5075264  85.5399170  12.1005459  22.8689537  86.0716019
  12.4531221  21.6921864  85.1873550  10.1585217  12.6387901  13.0978727
  10.0189075  12.0819731  12.3319120  10.4688063  12.0392408  13.7764711
  73.4789886  11.7438231  39.5417976  72.6136322  12.1460571  39.4669495
  73.3842773  10.8911161  39.1173553  64.8171463  48.4923592  36.6392975
  64.1775131  48.4495277  37.3501167  65.4773483  47.8393288  36.8715096
  30.3614979   9.5855274   4.2976193  30.9937744   9.8863239   4.9502892
  30.5785160  10.0808687   3.5078270  49.2182350  13.2767591  80.1491623
  48.9790726  13.4821014  79.2453537  50.1553726  13.4655666  80.1977386
  85.8999557  36.7832909  40.0448914  85.9132614  36.3892708  39.1726532
  86.5411072  36.2787170  40.5454521  69.2996750  43.4483719  16.8868771
  70.2516708  43.4022636  16.7984905  68.9699936  43.3179703  15.9977560
  56.7551651  50.4853172  57.7009201  57.3783875  50.9358101  57.1309319
  57.1833000  50.4670715  58.5568390  58.9658737  20.4998474   3.0622919
  58.1920586  20.8504620   2.6212559  58.7816429  19.5659485   3.1629157
  64.1844254  22.0768585  14.9332933  63.4315491  21.8462639  14.3890181
  64.9415283  21.7565804  14.4429369  74.4789963  38.3492241  45.7578735
  74.2272034  39.0463409  46.3635597  74.0149536  38.5573082  44.9469490
  34.5136070   6.6218657  82.1650772  34.6119728   7.5663824  82.0448914
  33.7048035   6.5273924  82.6682129  86.1525192  63.3828316  72.7496567
  85.2616806  63.0599251  72.6141205  86.1159973  63.8411903  73.5891876
  43.4417953   2.9743059  52.6638603  43.8135643   2.6942642  53.5002823
  42.5605278   3.2770486  52.8828278  10.8622036  32.4829865  85.1680222
  11.6434278  32.7374382  85.6591187  10.2575951  32.1542473  85.8333130
  68.8287048  16.5560131  82.8928680  68.0147858  17.0597706  82.8916092
  68.7526321  15.9761114  82.1351395  85.9135361  62.9136925  86.0079575
  85.6867905  61.9898376  86.1143188  86.6658401  62.9090691  85.4161377
  32.1065521  65.6311111  87.5976181  32.8814201  65.1717834  87.9213943
  32.2535095  65.7139893  86.6554031  43.0070381  52.2990303  20.6384315
  42.9484558  51.5661583  20.0254917  43.9033699  52.2610779  20.9721756
  66.6830292   8.8719578  57.9798508  67.6164246   8.8491392  57.7689438
  66.2503967   9.0100784  57.1372452  13.1424809   3.3021023  11.9971943
  14.0943613   3.2931585  11.8968163  12.9697838   4.0435481  12.5774231
  70.5523148  36.6688576   5.5767341  69.8006058  36.3495178   6.0759249
  70.7412796  35.9674911   4.9533496  85.8863754  67.7804337  78.8214264
  86.1148300  67.0013657  78.3143768  85.5141678  68.3840179  78.1784821
  29.7900829  35.9794426  71.4010849  30.2643280  35.1908073  71.1376801
  28.9239979  35.6633720  71.6584320   1.6618589  33.5242882  33.7364082
   1.9316581  34.4286995  33.5767860   2.3003652  32.9958153  33.2575989
  71.1307755   0.5529846  17.6635799  71.4444351   1.3447394  18.1005859
  70.3540802   0.2966596  18.1608391  35.3128929  11.1159191  32.2464790
  35.9767494  11.0166388  32.9288788  34.9261246  11.9757385  32.4118690
  71.4368515  71.3268585  22.7971554  72.3087997  70.9380798  22.7279110
  71.4301605  72.0192413  22.1362495  86.7474136  10.4753361   5.9621272
  86.2396088   9.6655798   5.9105544  86.1862106  11.0794306   6.4482894
  23.6267452   1.4781243  87.3304672  23.0592728   1.2603294  88.0699081
  24.0702744   0.6567013  87.1188583  61.8698845  22.2874966  65.3861465
  61.8261948  23.1656837  65.0078506  61.3843880  21.7374458  64.7713547
  37.6442757  16.5203133  78.7981339  37.6692543  17.2620811  78.1936569
  37.6905136  16.9181480  79.6675110  13.8617382  63.0029373  54.4475288
  14.0217152  63.0368996  53.5044022  14.7343731  63.0332642  54.8397293
  73.7303772  19.4403839   3.9984415  74.6836548  19.3556919   4.0162997
  73.5534058  20.2547455   4.4693227  35.8697815  65.0664215  59.0491371
  35.9732323  64.1690140  59.3656654  36.7389793  65.4557800  59.1446571
  57.8806763  45.5426826  83.9092255  57.1116791  45.2360840  83.4287415
  58.3683739  44.7451019  84.1147766  49.2051926  64.2054977  14.3721991
  48.4099426  63.7755203  14.0576620  49.3405266  63.8467865  15.2492657
  61.5465889  62.9763832  37.5497169  61.2183380  62.9113197  36.6529160
  60.7889442  62.7712555  38.0975571  41.6992607  46.1386604  53.5032272
  41.9813576  46.3145332  52.6056061  41.0849800  46.8447800  53.7039337
  69.9856644  62.8277283  14.9997568  70.0050430  62.8483353  14.0429754
  70.0542297  61.8989143  15.2207565  15.8737211  66.3507843  58.7800255
  16.5477695  66.8634415  59.2262039  15.0742807  66.5212097  59.2781029
  69.9630814  62.4618454  66.0143661  70.6187134  62.2430801  66.6765747
  69.2564621  62.8803978  66.5060425  80.6589508  45.2143936  75.6130142
  80.3087692  45.4466896  74.7529831  80.9638901  44.3127213  75.5118713
  35.6739998   6.5207758  71.5586700  35.6951828   7.2726197  72.1507111
  35.2793999   6.8596992  70.7551422  47.5693359  20.6249027  87.5414429
  48.0460701  21.2127266  88.1274643  48.1527710  20.5094109  86.7914429
  34.7956543  59.8381958  55.3143120  34.3326416  59.7386284  54.4824829
  35.6696434  59.4862061  55.1455765  75.4864349  36.9065247  72.0360184
  75.9122849  36.6696510  71.2121353  74.8239899  37.5508804  71.7866135
  71.9319000   9.7143049  41.5259666  72.0161591  10.4746304  42.1013260
  71.1395340   9.8857088  41.0170326  65.6681213  30.9740467  75.9673920
  65.1601028  30.4295235  75.3660278  65.7602158  30.4387302  76.7555466
  75.2110138  41.9494629  76.1655426  75.1290817  42.4517365  76.9762497
  76.1543427  41.8390961  76.0464630  46.5875816  12.5177784  73.8285828
  46.9088287  12.8446913  72.9882507  45.9805069  11.8152103  73.5960083
  19.4448814  33.4299927  74.5031738  19.0564232  33.0269737  73.7266998
  18.6955719  33.7320671  75.0165100  71.4114304  28.5051537  41.1275787
  71.8617401  28.7065926  41.9478722  72.0983810  28.5417480  40.4620018
  62.1857872  64.7314148   1.5176769  62.5797577  64.6819077   2.3886356
  62.7373695  64.1698532   0.9730267   2.4200132  48.7286911  65.3147659
   1.9381386  48.3569489  64.5759583   3.2391493  49.0434456  64.9324417
  62.8513680  68.2936859  49.6169777  62.4363747  68.5069046  48.7811890
  63.3830261  69.0624237  49.8234177   1.0192153  33.6347580  78.5284042
   0.3774773  33.1384087  78.0204315   0.9829384  33.2481537  79.4033127
  25.0335865  14.1976233  51.9406738  24.7435799  14.0455408  52.8401184
  25.9354458  13.8773928  51.9224205  13.8679495   7.8141451  28.7385712
  13.0038481   8.2252827  28.7614841  14.4029207   8.4101038  28.2142887
   2.7115505  11.1820135  36.2832184   3.3157833  10.5976515  36.7411003
   3.2763956  11.7371883  35.7456665  74.5736237  62.5351295  31.3114414
  74.9179306  63.4224739  31.2098980  74.0876999  62.3727837  30.5028954
   3.7184057  21.5154991  61.0718575   2.8982084  21.9427891  60.8250122
   3.5248880  21.0900593  61.9071922  77.1206665  62.3006210  45.0125122
  76.6002274  62.4956703  45.7918282  76.6279984  61.6154327  44.5608139
  61.7056808  29.8240891  65.8185272  60.9941750  29.1841850  65.8411560
  61.6900139  30.2304230  66.6850662  49.2165413  68.2368393  13.7281942
  49.7614555  67.4529572  13.7977543  49.7178612  68.9176331  14.1770029
  42.7941170  62.3905296  59.9550629  42.8005524  61.5446587  59.5070763
  43.2700882  62.9767342  59.3668060  58.5383415   3.7699049  44.6515503
  57.5903969   3.8573101  44.7515106  58.8903122   3.9730825  45.5181885
  63.5997162  39.4471092  64.1469727  63.2734756  39.8974457  64.9260712
  63.6296120  38.5240974  64.3987503  25.5354919  68.4900131  70.1975479
  26.2415676  68.8370667  70.7427521  24.7697067  68.4852600  70.7718201
  37.0372353  68.0031433  56.4443436  37.4415359  67.3951569  55.8253784
  37.6861115  68.6979065  56.5561333   5.8615556  48.1067505  58.0932274
   6.2362995  48.2502403  58.9622574   6.5630989  47.6857567  57.5964088
  19.0699024  68.4816589  25.1773777  18.9934902  68.3790131  26.1259861
  18.4190865  69.1475143  24.9553261  18.2190990  24.2596722  14.4607363
  18.0252151  25.1951351  14.5203247  18.0001183  24.0266800  13.5585203
  44.6674347  52.8801117  64.3511734  45.4155960  53.3072586  64.7683334
  44.3361359  53.5294838  63.7308540   6.1195650   9.3310862  76.4968109
   6.5273976   9.8528471  75.8056717   6.5949068   9.5729952  77.2916489
  18.2632694  27.0870972  23.0907230  18.6723709  27.5404072  23.8278656
  18.5020714  26.1681690  23.2122803   8.1221991  69.7900467  26.5772686
   8.0502996  70.7199707  26.7924461   7.4891343  69.3613129  27.1531525
  33.4689789  42.4645538  12.8019457  33.2615662  43.2384491  12.2782106
  33.9002953  42.8121834  13.5825539  12.9521132   9.0073071  57.8738670
  12.4576254   9.0489502  58.6923866  13.6741781   9.6231651  57.9986572
  82.0441208  38.2489433   2.7922063  82.6384888  37.9749527   3.4906945
  82.1209946  37.5626678   2.1293707   7.9999952  13.9108286  16.3699665
   7.9893389  12.9595881  16.2638474   8.6927767  14.0726385  17.0103588
  32.0499916  61.2177658  39.0851364  31.7850742  61.5883141  38.2432671
  32.1498337  61.9765587  39.6600266  45.4267921  59.3401947  45.8641548
  45.0026855  58.9327927  46.6193924  44.8496284  60.0664673  45.6282654
   4.1986718  70.2538910  85.8809662   3.5728967  70.9024963  86.2033768
   3.7756829  69.4109650  86.0446320  50.2014771  30.1512623  17.5600758
  49.7375336  29.3945389  17.9183445  50.6979179  30.5003204  18.3003044
  55.3436394  23.1693878  77.3902054  54.5737343  22.7955875  77.8188629
  56.0282364  22.5114212  77.5112000  42.3319130   9.2526836  35.1176338
  42.6881027   9.6761541  34.3365860  41.9898682   8.4163551  34.8017349
  66.5886230  41.8999748  36.5805779  66.5832214  42.8471603  36.7185745
  67.3272476  41.7480392  35.9910126  86.4884338  18.4069843  78.7658157
  85.9722977  18.7593155  79.4908676  86.9681625  17.6722069  79.1481781
  51.6781197  11.0560427  67.6903076  51.3651237  11.9314384  67.9182281
  50.8971214  10.5041599  67.7315826  47.9127960  27.9480934  80.6119995
  47.1481400  27.5338497  81.0119171  47.7490005  27.8948708  79.6704178
  26.4439144  70.7927628  78.5621796  27.2761631  71.1103134  78.2118073
  25.9227581  71.5844040  78.6960831  30.6416779  63.1029816  49.4010315
  30.1394768  62.2884598  49.3769417  31.4597073  62.8934135  48.9503212
  82.5085449  55.8884850  20.1067619  81.9057693  56.4487801  20.5956039
  82.4954605  55.0548935  20.5770683  35.4358902  59.2312698  59.9029999
  35.9605064  59.2479820  59.1025429  35.5815010  58.3578720  60.2666054
  53.5320396  62.8720245  81.7364960  52.8605385  62.7152443  81.0726166
  53.0432777  63.1546745  82.5094452  31.1605492  57.5181465  88.3619843
  31.3176918  58.4360504  88.5833282  31.4137344  57.0353165  89.1487503
  77.0603027  26.2787094  29.5486145  76.2686386  26.5749073  29.0994244
  77.1550293  25.3625717  29.2879372  73.6084900  33.5675163  33.4858437
  73.8670349  33.4521179  32.5714760  73.2474060  34.4532318  33.5226936
  32.2069435  24.2505436   0.3900558  31.9138641  24.2624512  -0.5210946
  32.8371506  24.9686470   0.4483460   4.8362556  70.1784973  60.6863022
   4.1510391  70.7251587  61.0708427   4.5758843  70.0767212  59.7708359
  17.2637138  18.9997807  80.6714935  16.4503994  19.1935539  81.1375504
  16.9803276  18.7230453  79.8000946  35.5153275   6.7791290  34.8124695
  36.4239502   6.5168433  34.9602776  35.4334488   7.6215262  35.2595634
   5.9832768  62.7009315  85.0941315   6.3311043  63.3597145  84.4930878
   6.6512208  62.6215897  85.7751541  12.1119070  39.2117958  13.5641813
  12.8858700  39.4160004  13.0392866  11.4616070  39.8602905  13.2943668
  82.1438065   9.1838360  10.2672100  82.5020447   9.3595409   9.3971386
  82.5875092   9.8095760  10.8397570  21.6575470  55.5477867  48.4113388
  21.2245598  55.4998817  47.5590134  21.3960228  56.3977699  48.7654037
  66.9623795  14.0894938  39.4151039  66.0660019  14.4245472  39.3930473
  67.4244385  14.5974913  38.7482681  45.8381844  51.4828262  69.8573914
  45.4341927  51.1713867  70.6673508  45.2728996  52.1989136  69.5677338
  14.5381355  17.9783936  76.5071945  14.1018934  18.8302784  76.5219040
  14.0115738  17.4295864  77.0883789  66.8327637  22.0975323  51.8535767
  66.1408234  21.7695427  51.2792282  67.3915558  21.3370724  52.0138130
   7.7637396  68.9111404  72.5673370   7.8860126  68.7870331  73.5085526
   8.6468172  68.8573532  72.2019424  70.6104584  64.4774475  61.0206566
  69.7707520  64.1822739  61.3727837  70.5367355  64.3376541  60.0765953
  70.9939957  29.4663830  15.8245506  70.1474609  29.7714062  15.4981012
  71.4550323  30.2659206  16.0783501  20.0999889  61.3923187  16.7607479
  20.7622490  62.0550728  16.9567013  19.5483665  61.7957649  16.0905437
  68.0371780   5.4816680  58.4539375  68.8172073   5.0817499  58.0694275
  67.4016418   5.5032167  57.7384987   6.7456574   8.4189730  17.1595726
   7.4573407   8.4825096  17.7965202   6.0060191   8.8551588  17.5825500
  15.1396513   8.0683842  51.3522835  15.3656178   8.2163086  52.2705879
  15.7924271   8.5676966  50.8615685  28.9796734  39.6610641   4.4529996
  28.2394047  39.8960190   5.0124893  29.3586197  40.5004539   4.1921253
  78.5584641  59.8390160  13.2440443  78.6766052  59.6582642  14.1765690
  79.4123077  59.6522179  12.8538094  34.4083710  67.8750153  33.9635735
  35.2024498  68.0121918  34.4801521  34.6671562  67.2476120  33.2885704
  60.7640381  44.0457306  56.6779633  61.0007668  44.0710716  55.7508469
  60.6744461  43.1137276  56.8768959  36.9810066   8.8661079  83.7128754
  36.1708565   8.3647852  83.6203232  37.4717598   8.4047909  84.3930054
  63.8647690  28.0197334   8.6141434  64.0113144  28.7801056   8.0514803
  64.0527802  27.2670746   8.0534420  41.9758263  66.8134918  16.8891029
  42.1637077  65.9256897  17.1936398  42.0326538  67.3540268  17.6770267
  35.0328369  35.7263908  15.0099945  34.5188446  34.9237137  15.0980682
  35.9231262  35.4225159  14.8331518  77.1278305   1.0938544  77.7182693
  77.3171692   1.8025742  77.1033707  76.2521896   1.2922282  78.0501328
  55.9056435  32.0247803  69.6349792  55.6486320  32.0019302  68.7132111
  55.5397758  31.2216625  70.0056229  17.9226665  50.7470627  15.2086315
  17.3337650  50.0591087  15.5187111  18.7127094  50.2808342  14.9353256
  45.8348351  43.5017204  16.2977352  46.0405426  43.3186684  15.3809986
  46.3722076  42.8827209  16.7920017  48.6724701  38.5572929  61.0447884
  48.7663612  38.1871262  61.9225121  47.7429810  38.7749786  60.9748230
  64.8184967   7.5345168   0.3631935  65.3578644   6.8450856   0.7504840
  63.9242096   7.1974187   0.4166048   2.2598445  38.9222183  73.1250992
   2.4628015  39.0076866  72.1935806   1.6973728  38.1495056  73.1777649
  73.8783951  24.0844402  50.1491623  73.2115326  24.0707836  49.4626198
  73.4034958  24.3422394  50.9392509  39.9596062  41.6568375  83.4917755
  39.3614998  41.3635979  84.1791687  40.8323860  41.4735947  83.8395004
  81.1359024  58.3286362  65.5316772  80.7877655  59.1880379  65.7692947
  80.3862305  57.8594398  65.1654968  21.8279171  32.1007233  16.2178173
  22.1845913  32.7679100  15.6314087  21.7095642  31.3310909  15.6611385
   8.1692982  34.7462349  82.3362961   8.9252443  34.9673004  81.7923203
   7.7021027  34.0768166  81.8364563  53.9155540  36.7467651  57.3995361
  54.3892937  37.5058594  57.7395058  53.3289032  36.4919357  58.1116676
  22.9484787  67.0635834  60.5364189  22.1278477  66.5759888  60.6074944
  22.9968224  67.5705490  61.3468971  61.5621414  17.1373672  84.2126923
  61.5573921  16.9835281  85.1574326  60.7139816  17.5424709  84.0317230
  28.9507408  43.5161362  29.5941830  29.5283833  44.0970154  29.0990639
  28.7997723  43.9756470  30.4201908  72.6525421   7.6540313  69.4556198
  73.5619354   7.9525476  69.4443207  72.1413193   8.4491186  69.6063309
  71.4139481  63.4610939  31.2504559  70.9021225  62.6692810  31.4156609
  72.1268616  63.4228363  31.8880539  66.6939468  44.8543968  36.4424095
  66.0826187  44.9004631  35.7072983  66.6214218  45.7086449  36.8681297
  84.0976410  15.1181479  81.6420364  83.9358063  15.8544912  82.2318192
  83.5580902  14.4086933  81.9910278  26.8330345  56.9640923  63.7775993
  27.3657608  57.7408867  63.9479790  27.3286438  56.2436676  64.1669388
  69.2388840  51.4256325  13.9825916  68.3836212  51.7743797  14.2338543
  69.0673065  50.5120735  13.7541246  66.4817276  39.5825386  12.8551388
  66.4204788  40.1733398  12.1045160  67.4217682  39.4590225  12.9866476
  79.0104446  15.2785339  74.6620712  79.5103912  14.4669428  74.5748672
  79.4901199  15.7861633  75.3166428  17.0527744  60.9495735  33.1310959
  17.8511868  60.5247765  32.8175392  17.2873001  61.2939873  33.9928436
  67.2086945  39.6029968   6.6963277  67.4770813  38.8590622   6.1571031
  67.9748306  40.1766129   6.7114391  32.4279594  35.7856712  70.0046844
  33.2174950  35.2801552  69.8115005  32.6053734  36.1921120  70.8529510
  81.7622223  17.8314304  34.5536041  82.2454453  17.3839970  33.8589592
  80.8427734  17.7374287  34.3045883  46.5761833  70.1116562  40.0421944
  46.6309509  69.6117706  40.8566589  45.6454468  70.3141632  39.9475822
   6.1046209  64.9274139  57.8429985   5.8845687  65.3354721  57.0055656
   6.0185590  65.6335449  58.4834633  76.2702560   7.2106504  11.4862242
  75.9908295   6.8171005  12.3128262  75.4564590   7.4898777  11.0667114
  16.4423466  11.7970657  53.8252220  16.5899258  12.7040644  53.5572548
  15.6310711  11.8261395  54.3323898  15.6956997  26.9738903   6.2471313
  15.6308727  26.0308743   6.3979607  16.6183567  27.1202087   6.0385041
  36.7690773  59.7890205  16.0534134  35.8175812  59.8745270  16.1131840
  37.0963364  60.1848450  16.8611641  85.5978851   4.4539027  54.4442253
  84.8556366   4.9579053  54.7778053  86.2626953   4.5247216  55.1292343
   0.3888334  14.1996269  71.7128448  -0.0438420  13.7890530  72.4614792
  -0.2365171  14.8556643  71.4049759  84.1614838  39.1420670   7.7887855
  83.9347992  40.0677071   7.8784394  85.1185913  39.1286736   7.7898207
   1.7867146  15.5697765  26.8472748   2.4551098  15.0706911  26.3778152
   0.9562774  15.2078953  26.5380058  66.8513718   0.4309186  18.2848263
  66.9854813  -0.4426064  17.9171314  66.7357559   0.9968953  17.5215855
  47.4287224  41.8523750   1.7848786  47.0350876  42.6398239   2.1606517
  48.1302719  41.6213837   2.3937325  51.9266243  56.9828453  42.1875191
  51.1419983  56.6438637  42.6184349  52.5952148  56.3172150  42.3492584
  72.7790985  60.7020073  83.2044525  73.1332397  60.1841469  82.4815140
  73.4258041  60.6101990  83.9041443  31.4469318  13.7708473  84.2014923
  32.2793655  13.8253603  84.6708679  31.6723557  13.9619818  83.2910690
  43.0558548  35.0658569   0.4020779  43.2221107  35.4639053  -0.4524089
  43.7443008  34.4077339   0.4977533  36.1388054  11.5342932  84.8236847
  36.4992752  10.8064089  84.3172455  36.9066162  11.9843826  85.1759872
  73.5547028  11.4759741  55.4168053  72.6137466  11.5910130  55.2841301
  73.9394913  11.6367750  54.5552330  57.8853798  41.4269753  38.4729996
  57.9167747  42.2121086  37.9263611  57.9759903  41.7543983  39.3678818
  28.6677856   0.0715696  76.9775391  29.4841938  -0.1403235  76.5249786
  28.7489586   0.9999974  77.1958618  32.3451004  63.4088097  73.7559204
  33.0860481  62.8514595  73.5180359  31.6122913  62.8017654  73.8594360
  50.9393311  40.1675758   5.5531888  51.1285553  41.0540314   5.2455835
  50.6020279  40.2889328   6.4407310  58.0868492   6.9651847  22.6289692
  57.7108994   6.1080723  22.4283390  57.4225655   7.5913978  22.3411865
  85.3828964  25.8304806  51.3623085  84.5230865  25.4828873  51.1253586
  85.6019821  26.4327736  50.6513405  32.4790573   2.8944337   7.0948329
  33.3094368   2.5522861   7.4259510  32.1510239   2.2071652   6.5149293
  79.6361618  28.6122169  27.2108307  78.7982559  28.9563198  27.5202351
  79.9215546  28.0173569  27.9043159  18.2845936  55.5278053  53.6376534
  18.4692822  54.8073845  53.0350647  18.6114197  56.3065948  53.1872025
  80.3441391  25.9307041   4.5040994  80.0245895  25.0766582   4.2130241
  81.2098541  25.7503586   4.8704934  28.1150589  42.2054710   0.8659436
  27.7877941  41.7727585   1.6545441  29.0668201  42.1220245   0.9244123
  17.9018116   2.5669782  14.1044216  18.2785435   1.9673588  14.7484407
  17.9208317   3.4223175  14.5336828  72.6965790  17.1737976  85.4774551
  72.2176132  17.4139938  84.6842804  72.9414444  18.0107784  85.8720932
  56.9797134  52.2915573  23.6611938  57.6209450  53.0022125  23.6564903
  56.2216606  52.6498947  23.1994781  37.8018837  48.1038399  88.0002747
  37.0565872  48.6857300  88.1491547  37.6462555  47.3612099  88.5838089
  54.2668114   8.3314466  50.1077309  54.5620689   8.1148586  50.9921188
  53.9227943   7.5079584  49.7616768   2.1615121  51.1095657   6.4639091
   1.3723738  51.5315285   6.1241460   2.4607742  50.5493164   5.7478127
  30.4468956  26.6773834  79.6695709  29.5138302  26.8124790  79.8350067
  30.6569557  27.2921124  78.9665604   6.4841967  16.1448116   1.6086026
   7.0668235  15.3876085   1.6670866   5.7179871  15.8980322   2.1265359
  73.2609711  69.0811920  36.0471230  73.9650345  69.5806580  36.4607162
  72.5005722  69.2283020  36.6096001   1.3113585  30.3053875  28.6877785
   0.5408908  30.4850311  28.1489468   1.9367573  29.9032688  28.0849457
  19.3378410  54.2660561  39.5474014  19.7409706  53.7489967  40.2448006
  19.5897007  55.1687202  39.7423286  57.3903580  14.2061882  47.4336739
  57.2437630  13.9279814  46.5296059  58.0880013  13.6325607  47.7506599
  29.8821926   7.7647343  23.8966312  30.2100430   7.6256237  23.0081520
  29.6382618   6.8907847  24.2014923  48.9587593   2.7211125  34.9348755
  49.1940956   1.9621495  34.4011879  49.5250015   3.4235454  34.6152115
  53.7959175  55.1998482  30.0153198  53.2812576  54.5454254  29.5429974
  54.2878876  54.6955795  30.6633263  83.7850037  63.5348396   6.3826318
  83.9821625  62.6212959   6.5895195  83.3909149  63.8819771   7.1828947
  39.1398163  46.3689194  67.2700195  39.5537300  46.8820152  66.5760117
  39.7806740  46.3668175  67.9810257  73.2159348   8.9514370   1.0073316
  72.5411072   8.4877224   0.5115498  73.7281647   9.4114285   0.3423007
  77.1190262  28.8700981  43.7987556  77.2950821  29.4863720  44.5097008
  77.9843521  28.5634212  43.5278397  75.7763977  43.8388977  30.3581638
  75.6796722  42.9297180  30.6414814  75.6227722  44.3541756  31.1500702
  62.1925926  58.6512184   6.8183069  62.6512184  58.4747314   5.9968777
  62.6606331  59.3943138   7.1990700  38.2046318  63.7690010  66.3989258
  37.9482079  64.6882553  66.3250656  38.3146362  63.4775658  65.4938354
  86.0771103  25.2725868  88.4333115  86.7588806  25.5181904  89.0586929
  86.4375000  25.5124760  87.5796127  77.5946503  37.8072968  84.3556137
  76.7431641  37.9546700  83.9439240  77.6860580  38.5263138  84.9808197
  19.9787331   8.8362942  81.2219467  19.3975143   9.5766554  81.0479279
  19.4379482   8.0636311  81.0583115  10.3079672  69.0322189  71.5585403
  10.9117918  69.3746948  72.2175827  10.7674875  68.2832870  71.1788406
  85.0987625  46.9952621  61.1710892  84.4270401  47.2035065  61.8204384
  85.8829880  46.8114433  61.6882210  59.1752625   3.4720993  33.8900452
  58.7980957   4.3503022  33.8377380  58.7344742   2.9804583  33.1970634
  84.9013596   4.4084220  32.1867332  84.3187103   4.7342963  32.8727074
  85.6734543   4.9716148  32.2407722  27.2031994  60.5350838  11.8167343
  26.9516678  61.1506691  12.5052261  27.5501709  61.0877037  11.1164083
  17.8543835  53.0268402  30.4217167  17.5609055  52.1521492  30.1667385
  18.6311398  53.1847496  29.8851128   1.9651843  57.9010887  67.6609192
   2.0373843  57.0712929  68.1325684   2.1419382  58.5691948  68.3232040
  11.7030697  64.4964676  58.0165901  10.8228226  64.1352158  58.1209564
  11.7782240  64.6772842  57.0796318  32.2935715  39.2593422  60.9307709
  32.3849144  39.8952637  61.6403427  31.5737782  39.5969887  60.3977318
  20.2005939  29.8175144  73.2123795  19.2847214  30.0746613  73.3186111
  20.5282459  30.3821468  72.5123291  38.3632622  53.7581215  57.0295219
  37.5137367  54.1989555  57.0438690  38.6147308  53.6926842  57.9507790
  73.9586182  41.3208313  34.8285561  74.2952118  40.9574776  35.6476479
  73.2958374  40.6923637  34.5422249  64.5094223   9.6552248   2.1537943
  64.7123642   9.1120348   1.3922228  65.3467789  10.0508299   2.3958001
  71.9178543  15.5869732  73.0681076  71.1584015  16.0211563  72.6795959
  72.6580963  15.8764982  72.5347672  40.6321144  26.3129196  15.6253510
  40.3524246  27.2277832  15.6574125  41.0904541  26.2317581  14.7889481
  35.1478996   7.9620733   3.1189840  34.6298485   7.3676195   3.6616409
  34.5892639   8.7310266   3.0055468  21.2125683   1.6118851  62.8249741
  21.6427383   1.7615595  61.9830818  20.8437767   2.4632866  63.0602188
  67.7720566  37.1041451  10.8780880  67.0714951  37.3825378  10.2882214
  68.3424454  37.8694191  10.9505062  68.2467270  40.0386734  41.0238075
  67.4825668  40.2227631  40.4775429  68.7910614  39.4620285  40.4877014
  23.6217213  51.1989975  74.8387527  24.3364887  50.7535324  74.3838882
  23.0184135  50.4969101  75.0823212  23.2101841  71.3405762  69.3219833
  23.1749611  70.9971924  68.4291916  24.1126022  71.6418762  69.4272919
  31.5737000  16.5991802   2.9146729  31.8855667  17.4942856   2.7814250
  31.9095879  16.3543835   3.7769296  11.9759836  12.7966623   9.8388739
  12.9056673  12.5706339   9.8100595  11.5653658  12.0635862  10.2973776
  40.0379982  44.9055290  77.3357544  40.6880188  44.2450409  77.0960464
  39.9436302  44.8156128  78.2840424  12.7472668  67.4090195  38.4095383
  12.5729132  67.8229141  39.2548332  13.4659195  66.8013229  38.5841103
  86.1922684  32.8660011  68.6289215  85.7794266  32.4804268  67.8561783
  87.0731125  32.4915924  68.6418304  84.6499863  13.2399321  24.2566395
  85.2953415  13.9464178  24.2316780  85.0179825  12.6008224  24.8668423
  57.7278519  45.4567223   5.1685209  58.0065765  46.3697166   5.2391768
  57.9181442  45.2177238   4.2613821   7.9830542  27.5804443  53.9886742
   8.8547430  27.4980412  53.6018944   7.9561782  26.9036484  54.6650314
  15.4756069  52.9669342  77.9834900  14.7000990  52.9918938  78.5440216
  15.2261772  52.3987160  77.2546921  83.6485367  10.1992435  66.0110016
  83.8000870  10.3730612  66.9400024  82.7404861  10.4633484  65.8629379
   1.4301085  35.6654587  62.4686203   0.8598378  35.1092262  61.9379349
   0.8992954  35.8937683  63.2317352  19.6922665  47.0624046  18.6797619
  20.3021641  46.4328232  18.2952061  19.7878819  46.9420929  19.6245441
  74.6073685  33.0508232  11.3632154  74.1820526  33.1958847  10.5180559
  74.7002792  32.1001167  11.4245453  42.6559792  47.4868889  24.4606895
  42.3111992  46.7235184  24.9239635  41.9213829  47.7979736  23.9317055
  31.5661144  40.4588699   6.1866560  31.0333004  39.9186821   6.7702136
  32.3987617  40.5601845   6.6478152  80.1608505   5.9285865  11.6083956
  80.7112274   5.9850335  10.8272858  79.3592987   5.5014248  11.3062572
  12.0690250  56.8109474  31.0674458  11.2780581  57.2795143  31.3339939
  12.5016804  56.5838013  31.8905163   5.1702981  13.5022640  73.3518600
   5.2956281  13.7203789  72.4283066   4.3202338  13.0632076  73.3810425
  71.1398544  11.7161827  13.0559835  71.3610458  12.0345488  13.9311686
  70.7057037  12.4576073  12.6340456  79.8348007  53.0441933  15.4657488
  79.1661072  52.9480057  16.1438560  80.4255219  52.3040352  15.6051884
  83.9695587   7.7810054  23.3528652  84.6679840   8.3893728  23.5943661
  83.1742020   8.1750059  23.7112007  18.9367447  11.0589514  57.3656044
  18.9052315  11.6765089  58.0962601  19.8676987  10.8654766  57.2555084
  74.3591690  71.4535065  15.7103224  73.5924606  71.3957901  16.2804623
  74.3520508  70.6340485  15.2156782  61.8570061  39.6081467  81.8394547
  62.3775520  38.8209724  81.6793747  62.3783989  40.3197327  81.4679337
  63.8059502  69.0010681  13.7128601  63.9558601  68.1214752  13.3663492
  62.9125328  68.9745026  14.0553942  73.7606506  70.8534241  81.7355652
  74.5970688  71.2057037  81.4313736  73.9764328  70.3882217  82.5438156
  68.3794556  68.5160980  36.1030540  67.7278214  67.9590607  36.5288773
  69.1492462  67.9550629  36.0087624  40.5918159  70.8598862  54.1488724
  40.0465660  70.5966873  53.4074821  40.1217003  70.5381088  54.9180794
  36.5772667  60.2507629  25.2337990  36.7320404  60.8658562  25.9506931
  35.9798279  60.7133026  24.6461296  28.4208279  59.7013779   7.0826240
  28.3230343  59.3777313   6.1871238  29.2071667  59.2650070   7.4104753
  41.0673103  57.9678764  37.0411148  41.3785172  57.5323334  36.2475891
  40.1315193  57.7689819  37.0722008   4.2451110  24.0332661  30.7071476
   5.1703792  24.0334816  30.9523239   4.0194516  24.9596596  30.6228638
  11.7719278  47.5747147  37.9819984  11.1397581  46.8725395  37.8285675
  11.2707033  48.3802338  37.8549271  11.2509737   3.3887088  21.4678307
  11.6133146   2.5164027  21.3128395  10.9409761   3.3619237  22.3730469
  70.9560242  50.7823868  56.3183517  71.6459045  50.6084023  55.6780167
  70.1723404  50.9354172  55.7904778  14.2219639  64.6808548  85.2311707
  14.2212343  64.5663300  86.1814957  14.8695469  64.0510864  84.9145355
  73.3133240  70.1306305  33.1002617  74.0488052  70.3076477  33.6867485
  72.6017075  69.8639297  33.6822433  71.4631271  25.3763847  12.1200447
  70.9246140  24.7782745  12.6382103  70.8563766  26.0601883  11.8363218
  72.2767944   5.9721394  66.7439575  72.9308701   5.9099307  66.0478592
  72.7886810   6.0963292  67.5431976  82.4811249   1.8866359  59.5679207
  81.7206955   1.7363188  60.1295128  82.4393387   2.8183413  59.3524895
  41.7333221   8.8970995  18.5109940  41.9611282   9.1435413  17.6145554
  42.2118034   9.5189257  19.0592804  67.6591644   1.3737464  60.6199799
  67.1337662   2.1733251  60.5906754  68.4908447   1.6186459  60.2143135
   0.5486522  54.7877426  67.7312546   1.4529662  54.8920212  67.4353256
   0.5002850  55.2997208  68.5385742  82.4749908  43.2267265  83.8939819
  83.3874359  43.5148888  83.9193115  81.9776535  43.9773788  84.2186432
  45.6373291  60.0646935   0.2421004  45.7109070  59.2646828   0.7624888
  46.5107002  60.1902084  -0.1289832  67.4918365  34.0075645  27.8864708
  66.7850571  33.8416595  27.2626305  67.9882431  34.7288475  27.4997444
  69.4850235  31.9903946   4.3479214  70.0870972  31.5561295   3.7436452
  69.7325211  31.6598511   5.2114687  77.2928543  53.8098564  20.3830757
  76.7303619  53.2931595  19.8061333  76.6845016  54.3330498  20.9050026
  55.8587875  44.3330612   6.7937012  56.4712982  44.6701813   6.1399360
  55.0388184  44.2135620   6.3145304  72.1212006  12.1638002  59.6885567
  71.5062332  11.7362566  59.0925293  72.9286423  12.2460413  59.1811104
  61.4977913  60.1680374  78.4911346  61.8700790  60.1337624  77.6099625
  61.5130348  61.0969505  78.7216187  25.1150246  54.3399506  33.2564812
  24.5867653  54.2617607  34.0508766  25.4621582  53.4596786  33.1120834
  67.7323761   3.7131689  36.5775299  67.8772812   4.6519690  36.6953773
  66.9439392   3.5266769  37.0872650   0.5186327  68.3388748  51.1535606
   0.3385785  69.0565491  50.5463104   0.6649222  67.5791931  50.5898972
  27.7605495  61.3818016  32.1019974  27.3241615  60.8937683  31.4036980
  28.6501884  61.5207481  31.7772388  80.7888565  39.9550629  67.5372543
  81.0757065  40.3226242  66.7012863  80.5078049  39.0652885  67.3238449
  81.1909256  61.8866577  67.1152115  81.1870651  62.5771637  67.7780991
  82.0164337  61.4232941  67.2568359  84.1946564  32.9276237  12.2851887
  84.2560043  33.8103752  12.6501780  85.0787354  32.5709114  12.3711929
  77.3722000  48.9615173  24.9012794  78.0347137  48.3681068  25.2550888
  77.1071167  49.4975433  25.6487007  72.6406403  70.6907883  79.3116226
  73.0985489  70.5147781  80.1335602  72.4908142  69.8254471  78.9308701
  56.7695656  10.0022793  36.7650452  57.6820793  10.1901703  36.9846878
  56.3124390  10.8303204  36.9120674  65.0199051  29.1063080  27.5554237
  65.8758469  29.4829655  27.7596893  65.1290588  28.7211113  26.6859741
  24.7814541  62.9695473  48.2871170  23.9789600  62.7307701  47.8232002
  24.6321754  62.6816444  49.1877060  82.7061157  39.2195587  33.3844795
  83.1386719  39.4136162  34.2160263  82.1396103  38.4726028  33.5777779
  42.1595383  62.8319969  82.9337845  41.3981018  62.4721756  83.3887253
  41.9006310  63.7238693  82.7019119  60.7545624  19.3359814  18.7669697
  59.9320908  19.3242035  19.2564926  61.1462288  20.1837292  18.9770908
   1.5424001   7.8613901  22.5812340   1.8034654   8.5813370  22.0069923
   1.5929413   7.0825830  22.0270348   8.5186605  66.6245270  60.6710205
   8.4630404  66.8681412  61.5950279   9.3208532  66.1061401  60.6078644
  53.3041267  48.7361221  46.6952629  52.5278397  49.0156250  47.1805344
  53.1246414  47.8258057  46.4600143  18.6115627   0.4652148  33.9231300
  18.0460949   1.0146159  34.4659309  18.9006882   1.0431558  33.2169952
  55.2483902   0.1217133  51.4357719  56.0660019  -0.2145660  51.0688095
  55.5033493   0.9215935  51.8955803  50.9014893   6.8640709  30.0224152
  51.7912788   7.1361194  30.2471294  50.7952843   6.0147614  30.4509315
   2.4220512  26.1284447  64.4668655   1.6201850  26.3321362  63.9854622
   2.2313125  25.3024101  64.9112930   0.5100803   7.6966133   9.7847433
   0.5551289   7.4195108   8.8696384  -0.0199123   8.4935169   9.7678728
  34.9273643  43.1809120  10.1737661  35.4070358  42.7792397  10.8982019
  34.5991478  44.0056725  10.5319185  70.5402069  59.6257935  44.5892334
  70.6358643  59.9334602  45.4905777  69.6780624  59.9415245  44.3186035
   3.9202824  69.6570816   9.6097851   3.6016278  70.4911575   9.2648048
   3.1678503  69.0687561   9.5469370  59.4439583  17.2931499   3.4759421
  59.4200897  17.2739429   2.5192325  58.6382904  16.8515778   3.7445424
  13.3163872  71.1136017  56.4810066  12.9977121  70.7787018  55.6428413
  13.5389404  70.3296661  56.9831467  64.2047424  43.5824356  39.2085075
  63.6032982  43.3854637  39.9266243  64.3827515  44.5189323  39.2952156
  22.5930042   1.3247169  34.3775597  22.9689121   0.4769956  34.1402969
  22.3075314   1.2147210  35.2845535   6.9520221  29.3020821   7.1710587
   7.1996951  29.0401039   6.2843471   6.0315742  29.5544014   7.0979667
  51.0853119  20.5720482  35.6145782  50.6940498  20.7360744  34.7565346
  51.8391914  20.0115623  35.4308586  21.5723286  66.8950043  12.8404741
  21.8729153  66.3805618  12.0913229  22.2661171  67.5389481  12.9826756
  74.3603287   8.6898947  32.4317055  75.2559204   8.9355927  32.6636009
  74.3526306   7.7342281  32.4853249  84.6538467  67.8567657  69.9888763
  85.3002319  68.0218658  69.3024597  84.7863693  66.9391708  70.2269592
  13.8996754   6.5455613  22.0509377  14.4899225   5.7924476  22.0766239
  14.2317095   7.1333513  22.7295303  63.0901642  47.3493958  12.3321886
  62.4709435  47.4275970  13.0579185  63.0074463  46.4404793  12.0436478
  79.1362762   9.1797810  48.5691223  79.1578217   9.0846090  47.6169090
  79.0443802  10.1215286  48.7136841  66.6783066   5.6534219   1.3150853
  67.0441360   6.3967767   1.7944860  67.4371490   5.2312942   0.9123430
  24.0904713   1.0014246  66.3057709  23.1679249   0.9827231  66.5603180
  24.3526096   1.9146305  66.4222641  52.0414314  12.5457640  50.1309242
  52.1791534  11.8593225  50.7836609  51.3108406  12.2284184  49.6001091
  84.5027695  45.4897194   2.1294539  83.5769882  45.2529755   2.0736818
  84.6649857  46.0092659   1.3420587   7.8740435  49.5693741  41.2935753
   7.3568153  49.6341515  40.4907608   7.6692085  48.7013168  41.6410751
  81.3887329  41.6293373  85.8762970  80.5015793  41.4796829  85.5495148
  81.8415604  42.0600395  85.1512604  77.6755905  41.5255051  14.9333172
  77.5344391  41.5810509  13.9882116  76.8858414  41.9074249  15.3162870
  64.1270981  10.6290464  47.8715744  63.8835106  10.8621550  48.7674294
  63.4204102  10.9827538  47.3314705  28.2307854  45.2202492   0.8978596
  27.9211330  44.6160088   1.5725763  28.1336842  46.0878143   1.2904539
   1.9596726  35.1233559  71.4232941   1.0991917  34.7244415  71.2941895
   2.1238720  35.6060638  70.6131973  60.7009621  10.6003094  80.4625015
  61.0429115  10.4034252  79.5904083  60.3202286   9.7748976  80.7624435
  59.6494637   8.6536455  13.0255976  58.8303986   8.7772923  12.5459394
  60.1213875   7.9873986  12.5259619  46.4639244  23.0502167  72.8198166
  46.7888451  23.8931103  72.5032883  45.6844444  23.2702618  73.3299408
  77.4299164  29.3171673  24.3220825  77.2669907  28.6211376  23.6855049
  77.1744690  28.9374466  25.1627922   9.7194567   3.6906221  51.4010391
   8.9479342   3.2966661  50.9938736   9.6244812   3.4951143  52.3332329
   6.5560517  43.1354179   9.5446959   6.9695339  43.9238167   9.8963976
   5.9507780  43.4595833   8.8777676  54.7827530  45.6863365  33.3069267
  55.5712280  45.1493645  33.2281952  54.0839386  45.0596695  33.4944801
  48.0610046  66.3727722  10.9676704  48.5511627  66.6227264  11.7509327
  47.2109108  66.0835724  11.2992411  23.9261818   0.2138472  15.9442949
  23.1788120   0.5993497  16.4015217  24.5755978   0.0634289  16.6312199
   3.4474192  37.1776695  18.6071186   2.6847248  36.7394142  18.2296772
   3.3279698  37.0939217  19.5531368  71.1456070  46.4268799  12.6298628
  71.6315460  46.3169746  11.8125401  70.7386017  47.2897682  12.5523472
  41.8187714  67.9967422   1.7855299  41.1455917  67.7885590   1.1376737
  41.5404663  67.5355606   2.5767882  24.1315517  67.1094437  55.6192665
  23.6378784  66.9014740  54.8260002  23.4612236  67.2988052  56.2757950
  56.8641129  51.0809631  79.1268692  57.3903694  51.1229324  78.3284225
  56.0216522  50.7283783  78.8402023  59.6619301  44.5783424   7.2347269
  59.7112236  43.6278839   7.1325984  59.4469719  44.9023895   6.3600740
  24.7274380  62.9394493  10.1684465  25.0526657  62.3037567   9.5309896
  23.8125629  62.6939507  10.3061514  76.4170914  23.1985302  10.0034447
  75.5272675  22.8728008  10.1388636  76.9632492  22.6405888  10.5571976
  19.6737595   8.3177204  53.8126678  20.6100483   8.1850348  53.6643791
  19.5096226   9.2142324  53.5201683  67.3366241  48.0657616  68.8812103
  66.4308014  47.9542885  69.1698227  67.5482407  47.2460976  68.4344482
  73.3272171  54.5522423  73.3450699  74.0790482  54.3677368  73.9080429
  73.6122437  54.2875824  72.4704590  71.4358444  37.0737762  29.1159801
  70.8896408  36.9027824  28.3487415  71.0693207  37.8712502  29.4979877
  11.3697414   9.2864170  84.6810837  11.5160246   8.8833408  85.5368652
  11.8806009  10.0954819  84.7069321  52.2294579  42.7980881  54.3433304
  52.2213669  43.3357430  55.1352234  52.5433807  41.9430389  54.6375618
  77.7266388  62.0276070  39.3451462  78.2861786  61.6276398  40.0108643
  77.1941147  62.6596184  39.8280640   8.1883402   7.3553276   8.4094305
   7.8456507   6.9526138   9.2073135   8.2060642   8.2926273   8.6027880
  40.8355255   9.0481482  62.3131676  40.0143814   8.5632401  62.3957405
  41.4282646   8.4416122  61.8693123  74.7654648   4.3147287  85.2987671
  74.6382141   4.1924677  84.3579788  74.3657608   3.5415018  85.6970062
  81.2588577  39.6057243  25.7566223  82.1044769  39.8763199  26.1143074
  81.2837296  38.6491470  25.7805271  27.4483967  61.8062210  14.3979836
  28.3647346  61.6953773  14.1444683  27.2373981  61.0110703  14.8873138
  10.9851770  61.8841171  17.7696648  11.2270336  61.8293800  16.8451424
  10.0279808  61.8853531  17.7671642  63.9357262  27.6319351  14.7900400
  63.2565727  28.0435810  14.2556896  63.9896431  26.7351589  14.4597139
  54.3719559  41.7386169   4.3897705  54.2879524  42.4966049   4.9682417
  54.3564796  40.9845963   4.9792166  75.8151398  55.3644676  70.1373215
  76.5556488  55.5815926  70.7036514  76.1982117  55.2793121  69.2642593
  52.6183853   0.4381298  41.0547066  53.0331230   0.4136584  41.9170456
  51.8813400   1.0396489  41.1603966  73.5208817  22.7507000  54.1175652
  74.0515747  22.9174519  53.3386002  73.4586182  23.6015606  54.5516052
  82.5690536  68.5566177  17.0367050  81.6544800  68.8302307  17.1068554
  82.9021912  69.0280380  16.2731495  34.6913528  48.6288109  80.4306793
  34.9307251  48.8336678  79.5268173  34.5098343  49.4799805  80.8291626
  18.3145962   4.5040231  58.5397720  17.9862843   4.2049146  59.3876991
  18.3609581   5.4564428  58.6233139  20.2566643  52.0274506  61.3521652
  20.4247417  51.3755836  60.6716843  19.6439857  51.5979729  61.9491615
  75.0910645  47.4791451  41.0870819  74.8340454  46.5649872  40.9667206
  75.3589478  47.5338402  42.0044022  22.7969055  29.5044212   6.2378860
  22.8042297  28.9291668   7.0029082  23.0385609  28.9347973   5.5075684
  79.6723022   7.9996753  51.4378738  79.6232681   8.3768263  50.5594749
  78.8085785   7.6127005  51.5809364  82.2719879  49.8862076  84.8386917
  81.5572891  49.3266983  85.1426315  81.9276276  50.3082771  84.0516052
  53.3466263  17.9481449   6.7871475  52.9900894  17.4002457   6.0879202
  52.5794487  18.3645325   7.1799397  80.8818665  60.5089874  45.4599457
  81.5942535  60.5061493  44.8206291  80.1740494  60.0272560  45.0319748
  77.2998199  15.4393520  27.3234844  77.8638000  16.2108631  27.3775978
  76.4891663  15.7623749  26.9301262  64.7671814  66.0879974  42.9983635
  64.3011780  65.3911362  43.4603767  64.1106110  66.4698334  42.4158287
  60.5273819   5.5590711  16.9979401  61.3914070   5.4380054  16.6041927
  60.3425522   4.7256188  17.4308681  75.0688019   4.0215602  26.6066589
  74.6426697   3.3594651  26.0623474  75.7316437   3.5368514  27.0985222
   8.1447802  46.0471954  24.3341408   8.0721455  45.1051445  24.1808491
   8.6053600  46.1190071  25.1701679  52.2946930  28.4654636  16.2878170
  51.5744629  28.9733067  15.9141989  52.7148361  29.0641537  16.9052982
   2.7028093  20.1078854  18.0702343   2.4248486  19.2647781  18.4282017
   2.1790559  20.2153854  17.2762833  73.3863525  47.2258759   9.3183069
  72.8172913  47.8109932   9.8183422  73.8660889  46.7322197   9.9834309
  59.4161797  52.9901314  51.0936775  60.0580215  53.6994629  51.1271210
  59.6220436  52.5187073  50.2864532  80.9074860   5.1318321  26.0084915
  81.3931427   4.4397826  26.4573059  80.0346527   5.1048069  26.4004955
  74.7454071  47.2288818  63.3762779  74.8681870  47.9454079  62.7535820
  74.9819336  46.4418640  62.8854752  52.4717560  70.7976685  79.9148407
  53.3875313  71.0388412  79.7754593  52.2863274  70.1552963  79.2298584
  70.9564896  54.3494339  74.5601120  70.4611435  54.1642380  73.7622604
  71.7561722  54.7758255  74.2520065  46.6020164  13.4870062  85.8368683
  45.7826347  13.6766129  86.2939148  47.0314140  14.3382597  85.7519226
  11.3060732  59.8918686  79.0721970  11.8490076  59.1366196  78.8462372
  10.7834625  59.5966454  79.8178253  55.5788383  36.5146713  78.1259155
  56.2392197  35.8718338  77.8672791  56.0157700  37.3604279  78.0258484
  78.1877975  36.6723328  12.9425230  77.9090042  35.8564644  13.3582935
  77.9849319  36.5500374  12.0150957   5.4341440   3.8995230  46.6810074
   5.8044157   4.6130824  46.1614265   4.4938359   3.9390125  46.5063820
   9.0799809  43.1270485  52.5694122   9.4647274  43.6173401  53.2959213
   9.8319530  42.8180122  52.0641747  35.7178040  44.8254395  31.6678352
  36.2521782  45.1089020  32.4096756  34.8515854  45.1935959  31.8420887
  78.4544830  46.7268677  77.2128754  78.6162872  47.0693207  76.3338013
  78.5231171  45.7770309  77.1162872  80.4885635   3.2807009  81.5098038
  79.8801422   2.5575614  81.3577423  80.6998215   3.6041484  80.6340332
  44.3049545  43.0453949  28.6374283  44.3721542  43.6739388  29.3562088
  44.5435295  42.2057991  29.0303593  44.9580994   5.7267880  81.2574997
  45.7872849   5.2505617  81.3010025  44.9861984   6.3253140  82.0039673
  83.9985428  71.6988297  30.1658077  83.9282455  70.8392487  29.7505836
  84.9376450  71.8218002  30.3043900  79.6466064  64.5845184  25.6071243
  79.7692566  63.7038612  25.9615688  78.9022827  64.5012817  25.0110664
  67.9870834  13.3825893  65.6627884  68.9241638  13.5734272  65.6215363
  67.5898132  14.1980505  65.9684525  53.4042625  45.5098190  26.3022995
  52.6969719  44.8727074  26.4025974  54.1569824  44.9897385  26.0209446
  76.2890701  10.9058695  73.8162766  75.4842453  10.7792435  74.3187256
  76.2167664  11.7945814  73.4681473   4.3192954   0.7062917  48.7433701
   4.6805482  -0.1631296  48.9160995   4.9955802   1.3114580  49.0477486
  85.9915390  52.6789780  36.5332756  85.8161240  53.4034538  35.9327774
  85.4415894  51.9639587  36.2130661  12.5881977  43.5074234  21.3320770
  12.9142647  44.3535461  21.6386528  12.4576359  42.9971809  22.1313515
   4.6253819  24.4979649   1.0541096   4.4571033  24.4987392   0.1118180
   3.7886393  24.2489338   1.4466355  56.3878517  45.5286636  14.8603868
  56.6440964  45.5556946  13.9385195  56.8950272  44.8053093  15.2288446
  14.9894066  39.8922997  64.4942780  14.7526236  40.8137093  64.3886108
  15.9322567  39.8670616  64.3310928   0.1382568  63.8808136  51.2041016
   0.0123641  62.9746246  50.9226761   0.0224219  64.3975372  50.4067192
  41.1679878   6.4968686  85.0245819  40.9905281   6.8082399  85.9121552
  41.6430359   5.6753073  85.1494751   1.9770385   5.4616733  21.4576111
   2.8187766   5.0403676  21.2838001   1.3526949   4.7378416  21.5075569
  62.6188087  48.9610405  41.7929115  62.1278267  48.3403931  42.3313942
  62.1898575  49.8028793  41.9463348  76.7860413   6.0103779  17.3586121
  77.5196075   6.3748584  17.8538532  76.6720352   5.1287107  17.7134323
  23.4926929  13.0187340  78.6997681  22.5528717  12.8419981  78.7413635
  23.8367767  12.3475027  78.1104584  22.5864906  52.8795204  48.0185814
  22.0510082  53.6283188  48.2808647  22.1256390  52.1194115  48.3736649
  24.1878185  51.8345833  27.0946522  24.0608788  52.7821236  27.1424770
  24.2843418  51.6527443  26.1598530  58.6938362  66.6470413  79.4580917
  58.4014397  66.1233368  80.2040634  59.6308670  66.7737045  79.6069717
   0.8966232  40.1163902  44.7602463   0.2703686  40.0774651  45.4831047
   1.7201779  40.3799362  45.1707764  24.5839062  51.5415573  31.4035683
  25.2218628  51.2222366  30.7653866  25.0652637  51.5685501  32.2304916
  26.5652122  41.8312416   3.2149699  26.1945629  42.7123070   3.2656729
  25.8731441  41.2606583   3.5491941  57.5261993   9.5034151  43.9029045
  57.9840164   8.8512716  43.3724899  57.9163132  10.3385973  43.6450043
  24.0570526  20.1306057  14.3682060  23.8936825  19.4001293  14.9648180
  23.8253326  20.9094620  14.8740940  63.9756279  65.1863785  53.5988770
  64.5846634  65.8909836  53.3778648  63.6079979  64.9149551  52.7578011
  19.0104065  47.6044922  74.5630951  19.5689507  46.8801613  74.2809448
  18.3795662  47.7118454  73.8512268  38.9983101  34.5977859  60.3145752
  39.5912437  33.8545799  60.4254990  39.3577461  35.0820808  59.5712738
  12.8221350  27.1581287  58.7612457  12.4540215  27.0719185  59.6406136
  12.2790127  26.5877514  58.2172585  49.5117950  44.7165375  87.5324326
  49.6145897  45.6292763  87.2630310  48.5647545  44.5868187  87.5825882
  17.2470512  30.6074791   4.0776272  16.7504292  29.7938976   4.1652689
  18.1149635  30.3965607   4.4218283  60.3266411  55.3145752  64.2278976
  61.2787170  55.2999954  64.1300659  60.1676979  54.9165726  65.0837936
  82.0612488  70.7821579  25.8645134  82.9314728  71.1687469  25.7671318
  81.8318634  70.9363174  26.7809467  52.4716759  27.9816341  75.2006607
  51.7801781  27.8040199  74.5630722  52.7023582  27.1207752  75.5498581
   2.4946654   2.4126585  89.0205994   2.8249576   2.8139467  88.2167969
   1.6838057   2.8853083  89.2085953  34.1203918  36.2185364  76.1656799
  34.3895836  37.0227242  76.6095734  34.9341507  35.7304573  76.0399475
  72.9882050   3.9921429  61.6199989  72.2093124   3.5757604  61.9890213
  73.4562454   3.2803590  61.1834984  74.0523453  32.3533211  23.3955345
  74.1688690  31.4076557  23.4870205  74.8005981  32.7325554  23.8565407
  25.0974236   1.4170724  49.5170403  25.6090679   2.1882770  49.7613678
  25.7102814   0.8682128  49.0277672  62.5689964  61.2916183  64.7488403
  62.0737534  60.8752670  65.4542618  63.4014244  60.8194695  64.7295761
  34.9749832  40.8828888  79.8708954  34.8482361  41.2191315  78.9837036
  34.1239166  40.9965591  80.2939758  77.3458786  22.8805332  63.2027092
  76.9159546  23.2115822  62.4141579  78.0238342  22.2892666  62.8755951
  81.7765579  11.7402697  62.4476776  80.8269196  11.7691298  62.3311195
  82.1279678  12.1337242  61.6489677  42.7557983  25.9919128  82.5332718
  42.0179176  26.5883617  82.4067459  42.4109840  25.3009377  83.0988541
  83.3060455  17.3597889  36.8451157  84.1407242  17.7656994  36.6110573
  82.7453690  17.5089130  36.0837822  13.5620394  63.1492157  70.0228653
  14.1872721  63.1031837  70.7461853  13.5555840  64.0724564  69.7702408
  26.3633022  40.0659294  60.4952583  26.2685471  40.5341911  61.3247032
  27.1331291  40.4595490  60.0845795  82.2365112  18.3812733  46.7437630
  82.8602066  18.4064503  47.4694328  82.7141342  18.7571449  46.0042839
  64.2241821  47.2285156  81.0285339  63.4835510  47.4574776  81.5900269
  64.6789551  48.0579147  80.8818817  73.9351349  58.4367867  35.6684799
  73.0440674  58.3315353  35.3350754  74.3663635  59.0000229  35.0257988
  23.8764973  50.1491814  50.3206711  22.9403763  49.9520874  50.2880173
  23.9641018  50.9751282  49.8448906  79.2095871  38.0024033  74.6743469
  78.8767471  37.1066055  74.7291107  79.8518219  37.9763451  73.9650650
  73.6980972   5.7745290  31.8938503  72.9182510   6.2558188  32.1703072
  73.5298996   4.8713288  32.1624947  77.9054565   1.6684955  83.9822845
  77.2706451   1.1876751  84.5133820  77.3706894   2.1967702  83.3896790
  48.6928215  51.4884796  61.1080971  47.7384148  51.4158707  61.0998192
  48.8748627  52.3059502  60.6445961  80.2362366  37.6323280  53.1242905
  80.4152756  38.3642273  53.7146339  80.8309250  36.9402962  53.4135513
  79.8107071  64.8863907  36.8597260  79.0303192  65.4286804  36.9743843
  80.3738861  65.1179199  37.5982742  78.3207245  23.8008423  30.7000942
  78.2433701  22.8623619  30.8718567  77.5273514  24.1797829  31.0784988
  48.5890808  22.2508259  15.6278028  48.6947975  23.0795593  16.0949802
  49.3111420  22.2362137  14.9995937   8.4236889  29.0450077   4.9138408
   8.0452108  28.3521767   4.3725724   8.8110018  28.5833302   5.6575308
  21.1756096  20.0602837   7.9560881  21.4345894  20.6540546   7.2513924
  20.5787010  19.4391994   7.5387325  38.8859406  58.0316010  31.6681118
  39.8302116  57.9700089  31.5239105  38.5662613  57.1375961  31.5464973
  37.3410416  35.6328354  70.5326920  37.7056389  34.8098373  70.8582230
  38.1039772  36.1931305  70.3904495   6.2540007  21.6052608  74.8139343
   6.0116901  20.8328876  75.3247757   6.4271889  22.2811565  75.4692230
  49.9802551  43.6470985  81.3838806  49.6336212  43.8162613  80.5078354
  49.4282570  44.1703529  81.9650345  52.9489555  36.6346741  42.7056923
  52.5003662  36.4931908  41.8720322  53.6463737  35.9791451  42.7166672
  42.7522507  48.9275665  69.0219650  42.8205109  48.3711319  68.2461090
  43.5272446  48.7115479  69.5405731  70.5503235  28.8496380  85.2000351
  70.5740051  28.6895180  84.2566223  69.8543320  29.4965076  85.3157883
  69.3625717   7.7755251  57.8747330  69.6143188   7.9240513  58.7862129
  68.5472107   7.2771235  57.9296227  82.1521988  40.7520714  59.7839165
  82.4083023  41.6717949  59.7149773  81.3879166  40.7588120  60.3601646
  11.4066668  65.0121307   6.5298033  11.0331793  64.1341934   6.4525857
  11.3210211  65.3868027   5.6531529  13.2396231  -0.3085584  79.8053589
  12.8891191   0.5812060  79.8465652  14.1582165  -0.2160670  80.0580673
  27.9965782  54.9857826  76.3071289  28.3944855  55.0691986  75.4405594
  27.3788071  55.7151489  76.3582382  45.3467178   5.1377282  23.8329525
  45.9095306   5.4272923  23.1148815  45.5176544   5.7621593  24.5380058
  65.4622574   9.2401562  73.8812714  65.5485153   9.8341742  74.6268845
  66.3217545   9.2577696  73.4603348  70.7496490  47.1342049   6.0923858
  71.5844879  46.8980751   6.4967570  70.1922836  46.3680534   6.2287388
  60.2670326  43.3892097  19.5231018  60.7170029  42.8312836  18.8886929
  60.8749657  43.4528389  20.2597141  55.2416916  15.2414284  13.3190756
  56.1868172  15.3724461  13.2428684  54.8895683  16.1188202  13.4688148
   6.3562841  38.2160110   7.2324052   6.5400114  38.6288452   8.0762339
   6.8618307  38.7272606   6.6005197  82.8512192  66.1170197  47.0567322
  82.6085815  66.7848740  47.6980858  83.1094131  65.3610840  47.5841103
  58.8941269  36.0800629  55.1684036  57.9873238  35.9095268  55.4230804
  59.0978775  35.3931313  54.5337067  25.3882046  16.6204262  78.5829010
  24.9084339  17.4418278  78.4763718  25.7579937  16.4450779  77.7176056
  50.8553925  14.1405649  31.9787216  51.0611229  13.4730358  32.6331749
  50.2765465  14.7520075  32.4340324   4.4897552  56.7022057   3.0458441
   4.8545389  56.6353264   3.9282792   3.8012230  56.0377502   3.0203061
  70.1584244  70.6249313   7.5228701  69.9863358  69.7318954   7.8213592
  70.2305679  71.1369858   8.3283730  83.7530212  14.3564224  59.8820038
  83.7042084  15.2768879  59.6239433  82.8406601  14.0921326  60.0002708
  84.2797470  47.6749763  47.2196465  84.8338699  46.9861794  46.8525734
  83.4267578  47.2575912  47.3397598  11.1384706  69.2750015  85.5195160
  11.6725941  69.0918732  84.7465897  11.6940527  69.8277283  86.0691071
  53.4725914  46.8543892  60.0252991  54.0783539  47.4040604  60.5224342
  53.9264717  46.6834755  59.2000618  15.4909325  26.6954269  21.4551315
  16.3857441  26.7067871  21.7948570  15.0175695  27.3186626  22.0062561
  24.6458149  17.7417126  60.2556648  25.1656723  18.2855682  60.8474426
  25.0215721  16.8657150  60.3432236  16.9807816  50.4578323  38.9354630
  16.7518940  49.8056870  38.2732315  17.3303699  49.9459915  39.6648750
  63.9936485   8.4517126  37.2047615  64.8243027   7.9778838  37.1631508
  64.2219162   9.3550053  36.9852409  22.2013531  64.0757599  35.5407448
  22.3743896  63.2588043  35.0728989  22.6365757  64.7484818  35.0170441
  50.7029953  31.8279285  56.6842842  50.7279587  32.3082199  55.8566818
  51.0509491  32.4437637  57.3291931  72.8981857  67.6688080  51.6357155
  72.7226639  66.9679565  52.2635994  73.2436676  67.2187424  50.8647957
  37.3455429  40.3692245  16.0656757  37.7709236  41.0181046  16.6262436
  37.7608376  39.5397415  16.3017139   3.1688325  68.7252808  79.7654877
   2.9240139  68.1684952  80.5046005   3.6269629  68.1377869  79.1644897
  81.7248077  37.0396690  64.2063446  80.8148193  37.2784348  64.0298615
  81.8582611  36.2272301  63.7181129  84.7969360  37.2932396  17.5908623
  85.7197037  37.5258217  17.6939659  84.5320053  36.9759178  18.4541988
  71.0052948  62.4453049  21.0470943  70.4296494  62.5516167  21.8044319
  71.6075134  61.7457008  21.3003216  60.0948792  60.2850113  50.7817726
  60.2730408  60.9152603  51.4798203  59.9607162  59.4541512  51.2377396
  80.3074493   4.5782313  88.4091492  79.3645935   4.4679532  88.2863159
  80.5678635   5.1938620  87.7240067  12.4088726  70.1340942  87.9576721
  11.6387758  69.9922333  88.5081787  13.1487732  70.0812531  88.5626373
  12.0525227  37.5965462   8.4696560  12.9130869  37.3496437   8.1309814
  11.5054665  37.6883926   7.6895752  60.6410828  34.0734978  74.1245499
  60.6260529  34.8559380  74.6757202  61.5690842  33.9279480  73.9405212
  37.6334763  42.3449097  52.9059982  37.4212914  41.6382599  53.5158005
  37.5443306  41.9482841  52.0394096  24.1054153   9.1318121  43.3150520
  24.4662418   9.5782051  44.0810623  23.1705379   9.3361464  43.3370590
   5.2002134   5.8908386  17.0011787   5.8297338   6.6057096  17.0954952
   4.4686074   6.2778358  16.5203266  59.2248840  38.1146927  84.1153717
  58.6870003  37.3265343  84.0397644  60.1165161  37.8138962  83.9400101
  53.0772972  65.4281158  35.7402878  53.8571205  65.5614548  35.2014618
  53.3216209  64.7286072  36.3462715  41.0444374   7.3639569  66.0057755
  40.2123070   7.0899930  65.6201172  41.6931610   7.1906328  65.3236084
  36.1186752  66.5794601   1.3221118  36.4045944  66.7147141   2.2255421
  35.4760056  65.8722610   1.3776189  36.1832504   6.2963114  75.2525101
  35.6139297   6.9706407  74.8818436  35.9413109   5.4959455  74.7865524
  57.1855659  24.0154552   4.8469076  57.6468201  23.7020741   5.6248999
  56.5393829  23.3342133   4.6609221  63.6974335  51.6357040  21.5076599
  63.9629593  52.2140121  20.7926121  63.0409050  51.0585327  21.1176929
  80.8117828   1.9562958   0.7573903  79.8882675   1.7183827   0.6752458
  80.9497757   2.6182256   0.0798652  42.5141945  41.4115219  54.1157341
  42.0338898  42.0154953  53.5493813  43.0939407  40.9354591  53.5211868
  82.9798813  22.4889011  55.0301323  82.1809921  22.9876881  54.8591843
  82.7769699  21.9713173  55.8093414  50.9493713  22.4246387  28.9576225
  51.5852966  22.6710911  29.6292534  50.6250153  21.5686569  29.2374821
  46.1345749   6.3493056   5.7170935  46.3844833   7.1693721   5.2913375
  45.5413017   5.9277506   5.0953617  85.5947876  53.7647438  78.4556198
  84.7436829  53.3289909  78.4112396  85.7139587  53.9635048  79.3843384
  40.6480103  30.5307941  79.1044235  40.4432793  29.6113358  78.9343872
  40.1770287  31.0109596  78.4233627  69.1479568  42.5600395  69.3694382
  69.7507095  42.7725906  68.6568832  68.2863083  42.5307693  68.9535828
  15.9699411  32.8502388  64.8972397  16.1325722  32.8039932  65.8393860
  16.1915836  33.7506561  64.6598434  77.6009521  67.4621735  70.7055283
  78.3237839  67.3752060  71.3269577  76.8571701  67.7392731  71.2405396
  14.6760569  59.2629242  33.0214424  15.3682241  59.8822289  32.7899323
  13.9534636  59.8132515  33.3234863  60.9469719  36.4595222   6.8768392
  60.2015190  36.4262047   7.4763589  61.3958397  37.2755356   7.0979104
   2.5228133  54.1277084  22.4720211   2.7512889  54.3514709  21.5698242
   3.2370727  53.5628128  22.7669125  79.2974625  10.0406179  45.8871841
  78.7117004   9.6940584  45.2141266  79.4345322  10.9545717  45.6379242
  27.1245060  61.5878906  77.0515594  26.2228088  61.8070984  76.8167725
  27.1483440  61.6619186  78.0055923  40.4838753   6.2304406  12.9003944
  40.5654335   7.1668148  12.7193327  40.2925110   6.1833940  13.8370905
  39.6104889  59.8737831  15.3923197  39.0812988  59.1432266  15.7124405
  40.1281471  60.1448364  16.1504688  30.0413361  30.3846970  66.7712173
  30.0175266  29.8366394  65.9868088  30.8186245  30.0900116  67.2457886
  57.2615891  15.8223305  38.8717575  56.9624977  16.6463776  38.4874115
  56.5132980  15.2318363  38.7845268  68.0701370  19.4549427  56.9641647
  67.8931580  20.1739101  56.3575401  67.9950104  18.6653976  56.4282494
  25.0986576  71.2834015  64.1721954  24.7973347  71.6091766  65.0203171
  24.3044720  71.2288742  63.6406670  16.5132351  48.1229858  37.2070808
  15.7158499  47.6134911  37.0627785  17.0213585  48.0050354  36.4045029
  61.3958511  40.2606468  26.1080666  61.7599640  39.7946396  26.8607235
  60.6416893  39.7344017  25.8424816  61.6662254  47.1456718   6.7575340
  61.7096939  46.5182953   7.4791579  62.0026855  47.9613152   7.1286817
   6.0394955  51.4375992  42.6664658   6.7896619  51.0167999  42.2464523
   6.2874579  51.5040588  43.5885963  36.2586327  11.4147301  63.7576447
  35.3836403  11.2654037  64.1158600  36.5076752  10.5733280  63.3752136
  46.1932297  48.0802269  51.4660263  46.9791222  48.1903152  52.0012665
  45.9660225  47.1553001  51.5615349  11.2174988  22.6718140   9.5352373
  10.2903948  22.6086388   9.7648439  11.2722921  23.4423504   8.9699926
  29.9427643  24.9129963   3.1435266  30.4233360  24.2849464   2.6042333
  29.9239063  24.5159092   4.0142727  78.6109695  39.9782639  24.6693420
  79.0397720  40.1404305  23.8290691  79.3277130  39.9542999  25.3033257
  81.5383987  68.8044205  44.1573753  80.9717255  69.2396545  43.5204430
  81.2592087  69.1530838  45.0039673  74.0831299  15.6762648  21.8801403
  73.8952713  16.1655064  21.0791512  73.8810959  14.7672539  21.6585255
  53.0084648  39.1384315  74.0099792  53.5495949  39.2716446  73.2317352
  52.1820412  39.5756340  73.8047714  64.9479370  51.6632042  54.3330917
  64.6166916  52.1760864  53.5958977  65.0752716  52.3039894  55.0326729
  67.3187943  30.1777859   4.7593737  66.6188354  30.7802200   5.0110922
  68.0840530  30.7388763   4.6337199  27.7604618  43.2111816  26.9441471
  28.0904846  42.3210030  27.0662079  28.0567455  43.6851196  27.7212124
  40.3211174  70.0418243  32.8066978  40.0877647  69.5545120  33.5968285
  39.4885712  70.3853836  32.4825554  74.6901779   7.7459159  16.8579140
  75.3353500   7.0639033  17.0445766  74.4762955   7.6264791  15.9325933
   4.1700649  63.6145363  82.3280411   3.8687351  62.8672562  81.8113174
   4.8221693  63.2462006  82.9241257  84.2005997  21.1396599  24.0865765
  83.6535797  20.3549938  24.1225739  84.3451080  21.3731632  25.0035439
  72.3065567  26.1097260  71.0231094  72.4921875  26.0476418  70.0861359
  72.2526093  27.0498524  71.1948090  44.7779770   9.5868893  80.4346619
  45.5913506   9.1045980  80.5831528  44.0862122   8.9656010  80.6620255
  73.2097244  20.7993584  12.3236523  72.2863541  21.0320511  12.4209661
  73.6371002  21.1916027  13.0850506  25.6355648  65.5102234   9.1718779
  25.1357670  65.4684601   8.3565922  25.5007610  64.6547318   9.5795488
  70.9292831  53.8382874   2.9557431  70.2586441  53.3025055   3.3793139
  70.7281723  53.7795410   2.0217547  50.9310646   4.5763779  34.2074127
  51.6467781   4.3272843  33.6226578  51.3659668   4.8523712  35.0142097
  28.5402775   5.1831498  26.7014542  27.6280403   5.3636174  26.9283581
  28.8921165   4.7287922  27.4669609  70.5579147  11.8843269  84.7870789
  70.4722824  11.3187428  85.5545502  69.7159271  11.8080730  84.3382111
  23.9825459  11.9632130  58.3319588  24.3350029  11.4314280  59.0455513
  24.3510952  11.5742579  57.5387917  29.3014259  64.7255859  60.3884468
  30.2561493  64.6568909  60.3844986  29.1014519  65.3250885  59.6695366
  23.9394283  49.0953903  45.2026062  23.7479458  50.0308418  45.1355515
  23.4038525  48.7932625  45.9361649  72.6186066  24.4837837  62.6255074
  72.6374969  24.2162399  63.5443649  72.7730865  25.4281731  62.6478043
  18.3417397  63.5774422  49.6940231  18.1163921  64.4555435  49.3867912
  19.1086769  63.3320961  49.1764832  33.9435654   6.3680997   5.0585003
  33.0985336   6.4068208   5.5064497  33.7603989   5.9046988   4.2412238
  75.1204681  47.7856369  68.0395355  75.1710358  47.3356857  67.1961975
  75.8135986  48.4446793  68.0013199  48.2917252  52.9983482  41.1954002
  47.9631958  52.4284096  40.5000801  49.1951103  53.1884613  40.9424515
  80.1289749  59.8181725  82.7936020  80.4259567  59.0440941  83.2719803
  79.1836929  59.8434105  82.9420319  72.3177109  64.4942093  67.4972839
  71.4518433  64.8322144  67.7258835  72.8937454  64.8256760  68.1861572
  29.5477180  50.4830475  65.0221710  28.8863754  50.7737274  65.6501541
  29.2345638  50.8066521  64.1775208  86.6549988  69.2649918  19.2698021
  86.2132416  69.9091797  19.8230705  85.9457855  68.8264618  18.7997608
  60.7472076  33.0566711  33.0977898  60.4325676  33.3571243  33.9504051
  59.9764824  33.0938568  32.5313721  67.5230408  42.2717247   8.3254604
  67.0572739  41.4951897   8.0151606  67.6365814  42.8114738   7.5431457
  54.9815559   7.3010492  69.3881607  54.0269012   7.2354808  69.4119644
  55.2151794   7.7002430  70.2261963  57.8361664   2.4896345  64.5262451
  57.4175377   1.9418042  63.8622665  57.1464157   2.6567087  65.1685562
  86.1339569  62.5319443  19.1259918  85.9707489  63.2346115  19.7551632
  85.2658920  62.1792412  18.9303303  30.1485386  62.5802155  24.7501049
  30.0928841  61.6575165  24.5015945  30.3388157  63.0377731  23.9311619
  16.5368614  48.4824753  19.7181950  16.4480038  47.7489128  20.3266563
  17.3879795  48.8665390  19.9287300  48.3818359   0.2875262  39.3436317
  47.8692856  -0.5104930  39.4728127  47.9700089   0.9324186  39.9187355
  47.4259338  22.6559772  69.2661514  47.3893890  21.7370644  69.0006409
  48.2316971  22.7254810  69.7781601  52.3919945  67.8209000  57.2611008
  52.9908295  68.0360336  56.5460129  51.6714439  67.3540955  56.8378601
  12.2540083  10.6123705   6.5897012  12.7307663   9.7824001   6.5988140
  11.7405920  10.5848131   5.7823124  57.7537956  26.7884979  79.8770828
  57.1186028  26.3537197  80.4460526  58.1837387  27.4291115  80.4436417
  67.9904785   5.9142089  15.7084045  67.2064285   5.4778261  15.3751411
  68.7180405   5.4373941  15.3089886  63.2905083  12.1474447  80.4458694
  63.3491859  11.2249308  80.6943817  62.9087181  12.1352453  79.5681915
  60.9504929  33.9678230  39.2205963  61.4092216  33.1277199  39.2151794
  60.8285027  34.1681252  40.1486206  58.2286720  39.2732544  66.3812714
  58.4482269  38.7354507  65.6204910  57.3460083  39.5960236  66.1997223
   4.4495535  17.8741016  75.8933487   3.9196177  18.0592098  75.1180267
   4.4330153  16.9203339  75.9726410  86.0998001  28.8716602  55.3307800
  87.0405197  29.0333195  55.2591248  85.9662094  28.6380424  56.2493706
  50.2938805  51.7484131  46.0741081  51.0369034  52.3474159  46.0010147
  50.1041679  51.4909134  45.1719246  84.9511108   8.8810434  32.7793503
  85.3065338   8.9615698  33.6644592  84.7037430   7.9594731  32.7035027
  25.7635136  51.8370056  84.6192017  25.7975883  52.7751236  84.8062973
  26.4833126  51.4648552  85.1287384  70.0744553  56.4479904  25.1071320
  69.1793213  56.6248627  25.3964157  70.1109467  55.4965019  25.0092983
  17.9338379   6.6820736  27.0429859  17.2563915   6.5591598  27.7079601
  18.3639641   5.8293700  26.9787998  29.5632229  66.8675079  71.1685104
  29.0534401  66.6997986  70.3759079  29.8546886  66.0014648  71.4535446
  19.7109909   7.3087001  64.5468216  20.4613247   7.4665837  65.1197968
  20.0882759   6.9106884  63.7623024  84.8365479  46.0365448  34.7896767
  85.3803864  46.5753746  34.2151031  85.2954178  46.0436668  35.6296883
  65.0714951   9.9259653  18.8585739  65.2619705  10.7816010  18.4740753
  64.1341095   9.9529152  19.0504398  49.5888100  11.3871660  53.9197693
  49.8897972  11.9581270  53.2129173  50.1335030  11.6267157  54.6695404
  12.0272760  69.4330902  27.4914780  12.5721903  69.8862305  26.8480759
  11.3807917  70.0858994  27.7600441   9.8093176  17.2692261  66.7010574
  10.0667133  16.7675838  65.9275436   9.4756813  16.6125069  67.3123245
  50.8140144   8.9540062  75.5614777  51.1148796   8.2204113  76.0977097
  50.4357338   9.5700130  76.1889114  58.5107422  52.2321815  34.7693748
  58.9812241  51.5903015  34.2375221  58.7699966  53.0794487  34.4072266
  71.7208328  66.0900116  33.1012726  71.8531189  65.1459579  33.1878777
  72.4180679  66.4789963  33.6292763  48.9126816  66.0012970  42.4676323
  49.3661079  65.1584625  42.4838524  48.7929611  66.1909943  41.5370865
  66.5200348  59.5310059  65.6257629  66.0005417  60.2972069  65.3822632
  67.2309418  59.5101929  64.9851303  24.3354473  53.0522919  16.5699368
  23.6783314  53.0059090  17.2644005  24.4476681  53.9890938  16.4085674
  58.5477943  63.4131966  10.8452759  57.9125824  63.4925117  10.1336260
  59.2971992  62.9687042  10.4489803  48.7229309  54.6091805  50.3571548
  49.1291313  55.2065887  50.9851189  48.9461441  53.7356720  50.6786919
  81.4785614  67.3879395  34.0837173  81.9065475  66.5535889  33.8915863
  81.8914566  68.0119781  33.4867897  43.4272079  42.7222366  76.6913223
  43.9496117  41.9736404  76.9793091  43.6970177  43.4380951  77.2666321
   7.4469309  67.6820755  84.5866470   7.8760529  67.6940231  85.4421844
   7.8571916  68.3989334  84.1028824  77.1661072  61.7690773  60.4598656
  76.2973709  61.4941750  60.7530479  77.0680542  62.7000999  60.2603302
  59.3746490   0.8427463  75.2357330  59.6778679   1.7334471  75.0598297
  58.9416008   0.5728354  74.4258881  27.7286663  58.3621559  79.9226151
  27.8958378  58.1319466  80.8365555  28.5992374  58.4729691  79.5404434
   7.7941861  59.4406624   4.1312261   6.9432287  59.7872238   3.8629000
   8.0890732  58.9230919   3.3819656   4.8955421  27.8771305  88.6368332
   5.5160265  27.8685226  89.3656387   4.3499794  28.6473980  88.7958374
  83.9404373  39.9110260  57.9888344  83.4484177  40.0315781  58.8010025
  83.5826111  39.1086388  57.6088791  36.4406662  62.5362473  11.2464294
  36.2109680  62.0647087  12.0471315  36.8918266  61.8868027  10.7070694
  68.5294189  31.2747288  76.6355820  67.6121826  31.4725533  76.4464493
  69.0183258  31.7227211  75.9452896  62.5247383   5.0794358  81.7278748
  61.8998184   5.3834643  81.0696411  62.0721664   5.2018666  82.5623932
  22.8770351  67.4055023  68.6080322  23.2240105  66.5530853  68.3449478
  23.6209450  67.8527222  69.0115585  12.7143984  53.1870270  33.2153931
  13.1257458  53.9488373  33.6236496  12.8515425  53.3150520  32.2767563
  54.3741493  46.8468628  81.6845779  54.1263008  47.0135307  80.7751694
  54.4984207  47.7175255  82.0623779  18.2446957  44.5438156  12.4079781
  18.5218430  43.6457291  12.2266941  17.5575294  44.4537582  13.0682220
  52.5717812  46.1163864  68.7918777  52.5108452  46.9822502  68.3883820
  53.4606857  46.0786934  69.1449356  17.3703690  59.8064766  14.9874830
  17.3725452  59.0793228  14.3650064  17.5902615  60.5741844  14.4597502
   5.6972661  31.2103920  56.3522453   5.0526199  30.5205822  56.5098076
   6.3599114  30.7970715  55.7988014  86.3507385  66.6395798  86.4677353
  85.5812302  66.0747757  86.5390396  87.0788193  66.0901947  86.7580872
  71.2494812  67.6721420   8.4146996  71.7508545  67.8130646   9.2178183
  71.8141403  68.0068283   7.7180057  61.7315483  70.7079239  66.5508575
  61.7034988  70.8900757  65.6115723  60.8316460  70.4719238  66.7760468
  45.9449921  15.2933578  17.2870789  46.3472023  16.1381416  17.4890690
  45.4929733  15.0444202  18.0932713  41.2166023  60.2320290  23.3577003
  40.9627686  61.1235466  23.5964279  40.5756531  59.9692650  22.6971169
  12.6417227  55.1267967  19.0710144  13.5590534  55.3769302  19.1813354
  12.5884647  54.8019829  18.1721878  64.8465195  26.0390377  82.1593475
  65.6319427  25.5914421  81.8446960  64.5634842  26.5752621  81.4186783
  46.9641914  63.2327805  47.8357964  47.6797943  63.0673676  48.4496193
  46.7558289  64.1594009  47.9549179  86.1829758  53.0284004  39.3603821
  86.3358536  52.8019791  38.4429970  85.2300797  53.0688782  39.4415092
  45.0874405  21.2844086  86.3573380  44.3288002  21.1542587  86.9263382
  45.7946892  21.5303040  86.9536362  35.9982986  56.4998627  87.4240265
  35.8803329  57.0534897  86.6521378  36.7425575  56.8869781  87.8849487
  45.0363998  36.3993874  19.0044823  45.6502457  36.5900917  19.7137470
  44.2303162  36.8490601  19.2579803  60.3357887  38.0566368  70.1231918
  60.6934052  37.6013107  70.8854446  61.0455208  38.6286621  69.8311386
  56.0511856  48.3003693  11.9887342  55.1637764  48.1771355  12.3257132
  56.3489914  49.1162796  12.3910217  76.7359924  59.3975105  66.1726456
  76.1959000  59.4348106  66.9620361  77.5250473  59.8899269  66.3988037
  21.6000080  40.7860451  77.9583054  21.4723072  41.3482819  78.7223816
  21.1358051  41.2339325  77.2510986  59.9460716  40.9983749  62.4930305
  59.9627419  41.1704216  63.4344940  60.8397331  40.7270699  62.2832718
  45.0249405  20.3471870  78.5669479  45.2227440  20.0926342  79.4682312
  45.7398338  19.9750195  78.0505676  20.6400070   7.3728089  30.3578472
  21.0058346   7.6928396  29.5332355  21.0695019   7.9004345  31.0311794
  13.4308453  68.3995590  29.7588005  13.4387999  67.5161438  29.3903694
  12.9477005  68.9217911  29.1184292  59.7842522   3.6863704  38.6943169
  58.9502563   3.7093024  38.2251053  59.5443916   3.4883831  39.5995789
  67.8601303   2.9313433   8.7137108  67.6007156   2.4429092   9.4949703
  68.6805191   3.3586855   8.9598398  72.5087967  12.7277784  27.4118462
  71.8421936  12.4421129  28.0365639  73.3255539  12.3582983  27.7474289
  12.3008146  49.7095680  73.4736557  13.0237885  49.1381187  73.7324753
  12.5869074  50.5872841  73.7266312   0.9828910  69.2376404  29.5890408
   1.5355545  70.0156708  29.5151234   0.4711224  69.3821182  30.3849373
  56.6202011  31.1224499  76.7870865  57.5058250  30.7604504  76.8163376
  56.4738731  31.3230667  75.8626480  76.6597214  54.7973404  16.7155952
  76.7243042  54.6985817  17.6654930  76.4242096  55.7159882  16.5857677
  28.9763165  12.2761126  65.4127045  28.1477337  12.6685829  65.6877441
  29.4688816  12.1622620  66.2255020  55.3992691  45.2713776  74.2962341
  54.9543953  44.8478279  73.5621185  55.2977409  44.6579361  75.0239792
  83.2004242  18.4581909  64.8609314  82.3192520  18.7117462  64.5861893
  83.7720642  18.7908020  64.1689529   2.8549976  35.9105835   0.7431625
   2.5413771  36.7604523   1.0523523   2.0942872  35.5148659   0.3177699
  65.3388519  32.7231865  20.8703804  65.5931015  32.2814674  21.6806107
  64.8414764  33.4878693  21.1603870  75.1975937  43.6729507  14.4990454
  75.2352371  44.6174736  14.6496868  75.4153976  43.2862816  15.3471470
  75.5033722  23.8099709  83.8188324  74.6004868  23.9665375  83.5422287
  75.4642792  23.8098736  84.7752380  31.9942093   5.0472898  23.7304764
  32.0635490   5.8272305  23.1799145  31.0602779   4.9755073  23.9275799
  82.6679459  55.9406013   1.6825314  81.7261810  55.9045258   1.5151974
  82.7937927  56.7554970   2.1686802  11.3981638  62.3710289  50.9772949
  11.3332558  61.6825409  51.6391144  12.1924019  62.8522339  51.2093735
  83.6135330  13.9343185   9.9408875  84.2368164  14.1154385  10.6444120
  82.8386307  14.4476929  10.1693678  57.8410225  42.1323090  83.9754333
  58.6109543  41.5636482  83.9675827  57.5696869  42.1554298  84.8930740
   2.6013725  69.5876770   6.9109006   3.1424701  69.5533829   6.1220603
   2.6069312  70.5104523   7.1652255   8.1839800  21.7010422   8.8617754
   7.7194338  21.0632877   9.4037151   8.7221928  21.1698208   8.2749500
  47.2455330  49.4638519  26.6571236  46.6809883  48.7046776  26.8026390
  46.6901665  50.0897255  26.1922779  37.3140678   6.9679828  27.6708813
  36.5467911   6.6445966  28.1430492  37.9662590   6.2744188  27.7701263
   6.6879539  24.8371143  81.4784775   6.0253277  25.4318256  81.8298721
   6.7632823  25.0806866  80.5558548   7.8730388  57.2428703  51.4275017
   7.7070618  56.7806358  52.2490997   7.0274677  57.2451248  50.9789085
  53.3291550  44.5110893  61.8213577  52.9814987  45.3263283  61.4597702
  53.5308456  43.9755516  61.0540581   7.3475919  21.0086498  62.3940125
   7.5088644  20.5603600  63.2242279   7.5466480  20.3533039  61.7253342
  60.7440376  20.7791996  67.1868973  60.7306366  19.8788128  66.8623047
  61.1314392  21.2854652  66.4728622  68.9299088  47.2090721  64.1192322
  68.1776810  47.7643356  64.3243408  68.6088562  46.6103134  63.4449577
  70.5899811  11.5186834  54.9139748  70.2236633  11.7537260  54.0614510
  70.3080826  10.6148443  55.0548325  14.5724506  64.2731400  16.9108429
  14.5492363  65.0996323  16.4285488  15.4920187  64.1626129  17.1525269
  71.6522598  66.4205017  87.7794647  71.2786713  66.3415604  86.9017181
  71.0358047  66.9792328  88.2527847  65.3430634  54.4345245   0.5123174
  64.6760483  55.0773926   0.7532406  65.8128204  54.8386993  -0.2172012
   8.5453882  55.1502113  33.0626373   8.9845171  54.3167458  32.8931313
   7.6136899  54.9546623  32.9629898   0.7426973   6.6340337  44.1713219
   0.7101036   5.8072796  44.6526184  -0.0639430   6.6431842  43.6560745
   5.3108091   9.2216911  44.9593124   4.3947434   9.3850412  45.1837463
   5.8086677   9.7247257  45.6037674  19.0850487  62.6672668  14.4778309
  18.3949242  63.2077942  14.0933914  19.8965321  63.0184708  14.1112461
  33.9354782  50.9180450  75.6675568  34.3768845  51.3976707  74.9665909
  34.4673347  50.1319389  75.7916565  12.5494795  52.6292381  12.7209606
  12.1181250  52.4411926  13.5545101  12.3397961  51.8768196  12.1676683
  54.1798134  49.9247742  72.5041656  54.1147385  49.0660286  72.9219513
  54.3302841  50.5325737  73.2281570  50.6488342  19.5893230  26.3008099
  49.7842140  19.9623528  26.1290112  50.4935036  18.9230022  26.9702263
  38.0697250   4.0665388  43.0792809  38.1287766   4.1928763  44.0262680
  38.3824043   3.1731262  42.9368782  61.7219086  29.4894753  68.7300644
  60.8960228  29.8598862  69.0414200  61.6324844  28.5478249  68.8767929
  40.8915977  53.6403046  25.4263878  41.1711082  54.0375786  24.6015968
  41.6635399  53.1681786  25.7385426  35.5532722  62.2997742  27.1444092
  35.5486870  62.5191231  28.0761242  36.0105324  63.0306549  26.7285252
   1.2404474  51.9808540  64.4673386   1.7790488  52.6568871  64.8785782
   0.3422632  52.2152061  64.7009506  28.9027081  46.0219116  46.5020409
  29.6407490  45.5039330  46.1807480  28.3706913  46.1890450  45.7240562
  52.1417732  68.5818024  84.4437866  51.7002563  68.3105392  83.6389771
  52.9731178  68.9524689  84.1476364  31.1921577  59.1638756  15.9904709
  30.9177399  58.8813744  16.8628922  32.1290779  59.3387260  16.0790100
  64.1599579  -0.1634260  47.0889053  64.2638931   0.5333433  47.7369347
  65.0198669  -0.2354671  46.6746635  76.1321869  62.7418098  78.0772095
  76.8722229  62.1380310  78.1406708  76.3433075  63.3017731  77.3301468
  86.0888214  34.3523445  47.1781387  86.9687881  34.5977135  47.4639473
  86.1713638  34.2224274  46.2333946  58.5048561  34.3733711   0.8122538
  58.6832733  34.5107536   1.7425900  58.7800369  35.1885185   0.3926796
  78.6879883  36.6305428  40.9462929  77.8143768  36.2400894  40.9223709
  78.6808777  37.2768707  40.2402916  23.1865997  57.5155029  52.0428352
  22.7615166  57.8928757  51.2726860  22.4903851  57.0326042  52.4881744
  85.3943939  66.5574951   4.2922745  84.4884796  66.8197937   4.4558105
  85.3504562  65.6094894   4.1674690  78.1767197  17.9610119  14.9932575
  77.3039856  17.5896606  14.8641424  78.2885818  17.9850636  15.9435949
  51.7724876  61.6352882  86.7862854  50.9818230  61.3765526  87.2597198
  52.1391602  60.8117905  86.4643631  18.8801308  16.7116776  26.0205555
  19.8075962  16.4765167  26.0477619  18.7795124  17.1948700  25.2004128
  81.5702362  31.8022461  53.4064407  82.4277115  31.9915733  53.0254936
  81.2654495  31.0260639  52.9364624  58.9006805  59.3585167  79.0173569
  58.7920532  60.2746468  79.2725830  59.8336906  59.2735634  78.8211212
  71.1352921  33.3680344  30.5986538  71.0638046  34.1511765  31.1443748
  70.2348328  33.1750183  30.3375816  24.6224976  59.0131721  32.1482277
  24.5514107  58.2703743  32.7477531  24.1419907  58.7377014  31.3675480
  58.9641876  67.8645935  67.3788147  58.4957390  67.1360931  66.9713058
  59.3817787  68.3197937  66.6476212   5.5218110  16.1420860   5.5997834
   5.1014662  15.7096844   6.3431344   6.2427931  16.6380939   5.9875889
  37.5237694  61.7150650  35.6468391  37.6871986  60.7777367  35.7514381
  38.3959656  62.1057205  35.5930214  45.8684387  62.5046043  58.5212326
  46.6767616  62.4472008  59.0306931  45.2642899  61.9075203  58.9625053
   9.3997774   5.2622261  74.7243652  10.1141243   4.7032909  74.4185410
   8.8431540   5.3820205  73.9549179  57.0829697   6.8636837  55.8257751
  57.2886734   7.1516862  56.7151413  56.7482147   7.6481996  55.3913727
  57.0471611  70.1526489   1.9418209  57.2080917  70.9783478   1.4851373
  57.8683090  69.6681137   1.8571343   1.2602129  67.5470200   4.8110280
   1.7129357  66.9152222   5.3696923   0.3642399  67.2154312   4.7517309
   5.0795407  64.0838013  88.6854324   5.0863008  63.2026024  88.3116989
   4.3558249  64.0727615  89.3118057  51.2993927  44.4731712  41.3059044
  51.1270332  43.6108704  40.9277992  52.1870651  44.4072495  41.6579361
  24.4536381  55.5231590   1.3563416  25.1377525  54.8853874   1.5599800
  24.3709583  56.0481377   2.1524510  46.0043869  67.8079529  77.1462021
  45.6861153  67.8020477  76.2434845  45.3745689  67.2698212  77.6257477
  35.2400475  49.1938934  52.3799133  34.9496078  48.3427544  52.7076874
  34.4568672  49.5791626  51.9869347  63.5684052  32.0523300  69.2869873
  63.0863724  32.7720566  69.6942520  62.8886681  31.4535370  68.9777298
  55.0310516  10.6695032  48.9954987  54.8131027   9.8570395  49.4522591
  55.8360062  10.4675903  48.5185165  86.1916885  17.9917545  36.2719269
  87.0839005  17.7850246  35.9936066  85.9591446  18.7729015  35.7699661
   2.7028778  49.5403328  16.6727810   1.8024018  49.3225784  16.4320393
   3.0387578  50.0324516  15.9236250  27.1171551   5.4050608  72.0023193
  27.5829849   5.9117560  72.6675186  26.2397728   5.7871337  71.9810562
  24.3174858  26.4726791  12.7653179  23.5526409  25.9153175  12.6218128
  23.9580593  27.3559856  12.8478527  13.3312283  68.2800827  49.0176926
  13.6852674  68.4871368  48.1528130  12.4606476  67.9235535  48.8410416
  27.1245728   8.2191792  30.0753517  26.5915775   8.6178579  30.7632504
  27.9474964   8.7076216  30.0966091  13.6849766  64.9416733  62.0220985
  13.1571474  64.3105698  62.5113182  13.6115618  65.7543030  62.5225754
  80.5961227  57.6107826  20.9707470  79.8737793  58.1618729  20.6695099
  80.3512268  57.3607674  21.8616734  78.1690674  17.0611343  62.4333191
  77.3562775  17.5022430  62.1862679  77.8863297  16.2157555  62.7820702
  57.7300415  34.6153526  77.1616898  57.3479843  34.1720810  76.4042130
  58.6709404  34.6219597  76.9859161   3.9170165   0.6555435  57.7498741
   3.1919892   0.3766527  58.3091469   4.2291703  -0.1521188  57.3418617
  54.4441223   7.3835549  57.4126663  54.9428673   8.0786419  57.8420181
  53.8496170   7.8454442  56.8215218  65.8880615   1.8605454  86.8399963
  65.6241608   2.1421125  85.9640350  66.8395538   1.7710304  86.7862930
  55.3644257  51.0385132  26.1751900  56.3138275  51.1008263  26.2800121
  55.2024536  50.1102448  26.0069180   3.9290841  37.7736893  82.1786652
   3.8464332  38.6830902  82.4657059   4.6665001  37.4295311  82.6826477
  26.9184322  48.8957787  25.4659119  26.9409466  49.7462349  25.9046059
  26.1465263  48.4601898  25.8273735  78.4469147  65.6036530  43.2930984
  78.1664124  64.7303619  43.0193939  77.9256592  66.2015305  42.7573090
  31.2446308  26.0010128  74.3894577  30.3982868  26.1654797  73.9736633
  31.5340214  25.1660805  74.0215302  13.9744997  54.9833336  74.4161148
  13.6052866  54.1003990  74.3975754  13.2120199  55.5619659  74.4098358
  30.3135395  13.0299845  79.7852097  30.2955151  13.9469528  80.0592117
  31.1306267  12.9427118  79.2943115  37.0363274  13.4456978  66.0908737
  36.9547691  12.6244774  65.6059265  37.9447365  13.4566059  66.3923798
  81.4328842  65.3069992  23.2781010  82.2402725  64.8098526  23.1469479
  80.9928436  64.8623734  24.0026073  20.1676159  40.5950966  62.9786644
  20.6119690  40.0970001  63.6647263  20.8261948  40.6963615  62.2914619
  73.4954224  53.8282738  70.5452347  74.2733307  54.3195724  70.2811890
  72.8797989  53.9477463  69.8220749  83.2018051  65.8917694  49.9032860
  82.9286041  65.0827179  49.4708176  83.8818054  65.6167831  50.5182762
  51.2802734  56.7229538  18.4407387  51.2174568  57.4223557  17.7902546
  50.9785576  57.1254654  19.2551003  84.3162613  29.7793617  28.6569996
  83.9610519  29.9710503  27.7890644  85.0425644  29.1783504  28.4911575
  71.3823853  28.5446701  87.8155899  70.5403900  28.9013481  88.0985336
  71.3225555  28.5182228  86.8606262   7.4672823   9.6198215  56.8944969
   8.2183580   9.6330862  57.4877434   6.8779492  10.2907333  57.2391663
  14.4826727  19.9558258  21.4553566  14.0310831  20.5833740  22.0196972
  15.4116364  20.0903873  21.6428413  64.3186798  36.9844627  26.7469177
  63.5021324  36.6506577  26.3753471  64.9739609  36.8242798  26.0678139
  68.7293625  10.7316275  34.0025330  68.3276291  10.9898834  33.1729889
  69.1905594   9.9171848  33.8019981  29.0664310  39.3582916  88.7942123
  29.5397606  40.1766129  88.6440735  29.7509899  38.7174072  88.9862518
   4.4279456  32.9492798  73.0860901   4.1715064  33.8661423  73.1852570
   5.3354101  32.9202538  73.3892365   2.9196565   3.5836451  45.6512833
   2.8021269   3.3108783  46.5612373   2.0552521   3.8929341  45.3804016
  14.8501101  11.4168243  19.4126167  14.5893145  10.7155619  18.8155823
  15.7992935  11.4808035  19.3068447   9.9331970  23.6107502  32.6476860
   9.4960623  24.0883522  33.3526955  10.1626596  24.2849026  32.0080795
  55.2811813  67.2223663  47.6771164  55.5860329  67.2583084  48.5837631
  54.9039268  68.0873642  47.5168114  43.6187363  40.2560806  26.1715565
  43.8556404  40.5542679  27.0497322  42.9915085  40.9078102  25.8584003
  46.6748848  62.6975098  21.5426140  46.7271004  62.2725258  22.3987045
  46.4467010  61.9912720  20.9381371  16.3078003   7.0761881   9.3545237
  17.0272312   6.8738093   9.9525986  16.4722729   6.5274549   8.5876646
  83.0345917  46.0620041  71.6790161  83.5777283  45.3307076  71.9730225
  82.5674515  45.7217865  70.9159546  59.8497238  64.8461914  19.6101761
  60.5955238  64.4882431  19.1286259  60.2402000  65.2783432  20.3697872
   1.7828372  47.4320869  41.9770203   1.0388132  47.5457382  41.3856277
   2.4089766  48.1034355  41.7059593  45.9631805   0.5700783  75.9695892
  45.5271378  -0.0568906  75.3925171  46.6152954   0.9950161  75.4124451
  54.3393517  40.6122322  35.4967155  54.3237953  40.4995728  36.4471359
  55.0442924  41.2408943  35.3415527  40.3662910   5.9345660  30.6609936
  41.0453758   5.3979859  30.2521496  39.8771667   5.3232174  31.2116680
  16.2801914  61.8294411  41.6335564  15.9818230  61.6576881  42.5267029
  15.5250654  61.6192017  41.0841789  54.9605217  17.9150391  22.5970364
  55.7371292  17.9252491  22.0375633  54.2245636  17.9465008  21.9858017
  73.8365021  38.8705025  59.7591667  73.5176468  37.9720345  59.8447304
  73.3858643  39.2120438  58.9868279  78.2819443  48.6701622  80.9185867
  78.3581009  48.2369156  81.7687225  79.1580276  48.6068687  80.5381775
  50.1573830  66.1246796  63.7711258  50.2185516  65.2051392  64.0298538
  50.2771263  66.1147766  62.8214951   2.4512088  11.6539326  15.6437883
   2.6510262  10.7305107  15.7974014   2.3370705  11.7197905  14.6957026
  81.1974030  47.1019859   4.6961808  81.6424789  47.8155518   5.1533084
  81.2345505  46.3661041   5.3071842  44.5973053  12.6725235   9.0783014
  44.0301018  11.9157448   8.9306517  44.0488815  13.4278612   8.8663340
  40.7326126  59.3537636  46.2791901  40.9136505  58.5239105  45.8378220
  41.5853691  59.7844658  46.3386040  30.3271618  50.4574471  19.0745106
  30.7136631  49.6121979  19.3034344  30.3752384  50.4919128  18.1191406
  15.5308409  37.8269882  87.8252258  15.5823536  37.9953346  86.8843613
  15.2376566  36.9181175  87.8902283  68.4093323  32.3191643  65.3944321
  69.0670853  31.9850426  66.0043106  67.8956299  31.5491428  65.1506958
  23.8809071  62.0052032  79.7981873  24.3870087  61.3894844  79.2681046
  24.5038490  62.6964798  80.0224915  17.8634911  29.1604328  12.3046331
  18.7443905  29.5284443  12.2352238  17.4506435  29.3675632  11.4662504
   9.3285446  23.0222645  24.0175285   9.6398344  23.9017105  23.8032761
   9.4792194  22.5140686  23.2204933   7.7812819  47.8257713  80.0171661
   7.4820743  46.9956245  80.3880615   7.9647579  47.6257057  79.0992661
  83.9371796   1.6583128  51.9080391  83.6543579   1.3615826  52.7730217
  83.8945694   2.6133263  51.9566765  20.1648369  22.7208500  15.7866402
  19.7438068  23.3860130  15.2420998  19.4555130  22.3657875  16.3223839
  72.6697006   4.0693936  39.7486725  71.8730164   4.5949459  39.6757088
  72.3663788   3.1640193  39.6814232   5.8678308  24.3783588  54.4045601
   5.5932851  23.6362953  54.9432602   6.0749364  25.0682869  55.0349083
   3.5436537  10.6273127  86.8214493   4.0082006   9.8876009  87.2129211
   2.7095006  10.2591829  86.5300674  66.0351410  68.2652969  10.3649721
  66.2341156  67.8740616  11.2156048  66.8887253  68.5134201  10.0099134
  51.9230537  51.3163605  83.6081085  52.6617928  51.0934105  84.1744843
  51.7343521  50.5081100  83.1312943  50.2541466  56.5133820  51.4186020
  51.1372757  56.7081566  51.1049423  49.7533417  57.3076515  51.2326965
  43.7872086  65.8982544  65.7064896  43.8651924  65.3935089  64.8969269
  44.3571930  65.4446106  66.3274231  11.5562286  59.7162628  27.6885128
  11.2520542  60.0815163  28.5193558  10.7537107  59.5181961  27.2058468
  27.8383465  37.4197769  18.0946312  27.7676144  38.3513641  18.3028870
  27.0032902  37.2029648  17.6800194  22.4305172  47.4254417   1.8544582
  22.8034687  48.1698952   2.3266115  22.1882362  47.7811241   0.9994598
  66.8226471  27.4928970  51.1484146  66.2902451  27.6972065  51.9172058
  66.2019272  27.1292858  50.5169716  29.4710484  48.5925407  32.0347252
  28.7491646  49.1467743  32.3312759  30.2597904  49.0868874  32.2577477
  46.5230789  71.1628876   3.1414080  45.7202644  71.4010696   2.6777363
  46.5302696  71.7282104   3.9138005   3.6536510   3.8401427  62.8254280
   3.7759211   4.7878113  62.7688026   3.2298503   3.6036043  62.0003967
  80.5204544   3.2591124  51.5193558  80.9756622   3.8375344  52.1312790
  79.5929565   3.3737078  51.7263374  48.8941536  55.3888397  31.4009876
  48.0061951  55.3777657  31.7582531  49.4623375  55.3464699  32.1701431
   5.6136298  10.9022741   4.5176148   5.5969782  10.1655254   3.9067500
   4.7046523  10.9983759   4.8017917  78.0576553  42.4362144   4.5299268
  77.2282791  42.6694450   4.1128230  77.8088684  41.8576012   5.2507215
  70.6366425   0.6220284  26.3591213  70.0187531   1.1523454  26.8623180
  70.2250748  -0.2406140  26.3072681  83.5255356  58.3229485   2.7288711
  83.6220322  59.1725235   2.2985873  84.2106171  58.3138237   3.3973103
  77.2380600  20.7565117  15.4838915  77.6599197  20.5716610  16.3229980
  77.3273163  19.9434566  14.9866905  32.9607773  68.4764328  36.5928307
  32.2428703  68.0622101  36.1140213  33.5507126  67.7549744  36.8112602
  22.6985035  50.4129524  16.6937046  21.8692303  49.9348984  16.6919003
  22.8677769  50.5953979  17.6179829  79.2367172  51.2143059  27.1843243
  78.3149185  51.1229706  26.9431038  79.2557068  51.0450401  28.1262474
  82.3968887  16.7052746  11.5953321  82.2678375  17.2745209  10.8366919
  83.3306351  16.7777290  11.7930546  48.9022369  44.5600281  39.8391151
  48.9501266  43.6196213  40.0110741  49.8152504  44.8468857  39.8203735
  40.1208076  23.0224648  82.1196518  40.4406433  22.4848118  82.8441238
  40.0162163  23.8957176  82.4974365  67.2394867   9.0806532   9.4453392
  66.4233704   9.4763823   9.1394348  67.8778458   9.7931957   9.4134912
  77.8346634  58.9458389  84.5852814  77.3607178  58.1334496  84.4074326
  78.2975388  58.7782898  85.4061966  61.5804024  55.6709290   4.8838673
  61.2276917  56.2836113   4.2385397  62.4760895  55.9724083   5.0358124
  33.7069321  13.4516230  85.5475311  33.7305603  12.4964800  85.4894333
  34.5256500  13.6852970  85.9849396  55.5046730  37.4881859  21.5475502
  56.0569649  37.1462021  20.8445168  55.0093651  36.7285995  21.8540344
  33.3573799   9.6625538  72.1508636  32.6957779  10.2193871  72.5612946
  33.6553001  10.1641474  71.3919983  54.4349556  58.4373131  46.4003906
  54.5767555  58.4259491  47.3469620  53.7603340  57.7748260  46.2512970
  81.6802063  49.0696182   6.4764867  82.2293701  49.7636337   6.8411684
  80.9972534  48.9344940   7.1334128  36.3372078  49.5199814  22.7905827
  36.9584770  49.6355782  23.5095329  36.8503532  49.1102180  22.0941563
  36.6673622   3.4845002  40.5617599  37.3513985   3.9138358  41.0755692
  36.8691864   2.5510840  40.6268349  14.3541431  46.8752480  11.3181095
  13.8477888  46.5259361  12.0514698  13.7556162  46.8333778  10.5722914
  36.5895767  67.9099655  17.7773972  37.2195282  67.1895599  17.7975025
  36.3051910  68.0048981  18.6864338  83.4282684  59.4719734  53.8447762
  84.2868652  59.2075272  53.5144615  83.5328140  59.4901047  54.7960777
  14.5702257  11.5019579  57.8921738  15.3048992  10.9439917  57.6369095
  14.0298576  11.5617609  57.1043549  42.0831490  64.8604279  33.9210472
  41.8600006  65.6660309  34.3873444  41.3406372  64.7085953  33.3363609
  61.1932297  23.9153786  70.4590302  60.4734077  24.5442810  70.5097351
  61.9804420  24.4401302  70.6044998  73.1688156   5.4367504  20.8071194
  73.8452530   5.0952792  20.2222538  73.5056229   5.2681308  21.6870956
  42.5373459  61.4009018   3.6004002  41.6199341  61.5040169   3.8533001
  43.0301933  61.6297073   4.3884225  58.7079239  65.1451569  87.8185959
  59.5446053  65.6006775  87.7253265  58.0659218  65.8452454  87.9366684
  13.3539114  39.6558685  57.5262222  12.9095793  38.8126221  57.4382477
  14.0066681  39.5122986  58.2114449  84.1105881   0.8303856  87.5069809
  83.4422150   0.9282877  86.8288040  84.8395004   1.3723001  87.2049026
  64.5314713  60.2719536  85.6517639  63.8969231  60.6187401  85.0246201
  64.4485016  59.3213959  85.5756531  11.1768188  10.4609079  14.8848667
  11.3778334  10.5611248  15.8153400  11.6754713   9.6901407  14.6137657
  34.9440117  51.8734360  65.9207687  35.0951767  51.7470894  64.9840622
  34.6841354  52.7912903  65.9997711  55.3600464  42.2891235  15.9376345
  54.7689095  42.5851631  15.2454262  56.0859413  41.8743248  15.4715347
  79.2143402  39.6601639  45.4579773  79.2628937  38.9539375  44.8136787
  78.5957260  39.3422737  46.1156273  43.2932167  30.3727493  80.0917969
  42.3815727  30.3133297  79.8061295  43.7658234  29.7775116  79.5099258
   2.5548024  16.7934475  78.2341461   1.8044329  16.2060108  78.1441727
   2.8786795  16.6342201  79.1207047  21.6318645   0.4064713  73.8034286
  21.9461594   1.3028294  73.6851349  22.3499050  -0.0421405  74.2499619
  61.5761681  44.9398537  53.8197174  61.6601028  43.9948311  53.6927490
  60.8878250  45.2033653  53.2089996  76.5195389  41.9806366  83.6197815
  75.8134842  42.5021667  83.2380447  76.0795059  41.3992271  84.2399139
  49.9649010  44.4651642  32.5692024  50.0406036  45.3466225  32.2037811
  50.8073044  44.0531578  32.3772697  79.6584015  65.6989059   8.6331854
  80.2191696  64.9362030   8.7748241  80.2568130  66.4453201   8.6646862
  47.6453476  61.3393860  38.4480095  46.8205833  61.0820656  38.8600502
  47.4592018  61.3237114  37.5092163  52.4957237  62.7508049  69.7910385
  51.5574379  62.5777740  69.7141495  52.7662430  63.0013504  68.9077072
  49.3002586  59.5361519  50.6119804  48.5626755  59.4134445  50.0143623
  50.0664635  59.5835457  50.0402145  64.4803009  59.2581291  88.5346069
  65.4154587  59.1889877  88.7267761  64.4361343  59.8137360  87.7564087
  32.3771210  67.6368256  21.6365337  31.5988312  67.0979156  21.7782173
  32.0479050  68.5355988  21.6285667  29.3628120  11.1106710  56.8173523
  29.3493481  10.5402861  57.5859261  30.1654987  10.8701868  56.3546486
  49.7693977  67.5310745  22.4657421  50.2494583  68.3427582  22.3016090
  49.8955498  67.0132294  21.6706600  42.0348854  12.8857613  88.1824417
  42.6886330  12.9428072  88.8792877  41.2402306  12.5854416  88.6235352
  48.0396805  32.6877975  75.6562347  48.2006683  31.8352013  76.0604553
  48.4479980  33.3161469  76.2517929  66.7614136  45.9227791   8.0812025
  66.0938263  46.2761002   8.6691809  67.4607697  45.6261635   8.6635742
  28.1196651  37.1223145  68.9828415  28.0919952  37.1369019  69.9395294
  29.0523052  37.1537056  68.7696915  30.1270580  21.0474167  75.4073639
  30.5746002  21.5220470  76.1078415  29.3069305  21.5244961  75.2807999
  26.1427422  10.2476301  67.5223007  25.5103836  10.7973394  67.9850922
  26.6264286   9.8016539  68.2175598  73.6207581  25.4037971  88.5363388
  74.0918350  25.3529453  87.7046356  74.0999756  24.8150635  89.1194153
  43.4012375  47.5829430  66.7859039  44.3010368  47.7881851  66.5320053
  43.1871643  46.7921143  66.2909317  53.8561249  11.0353298  80.2766953
  53.6313324  10.7061996  79.4064255  54.1503334  10.2613087  80.7568665
  81.5764008   2.1860793   6.8968034  80.8465500   2.8049676   6.8738012
  81.5960083   1.8061143   6.0184674  13.5306683  49.6945953  15.0529442
  13.4650469  50.3639641  15.7340250  12.8144064  49.0886688  15.2428265
  71.5506363  22.3507233  80.4185562  72.3310471  21.7989655  80.4709702
  71.8342514  23.1205559  79.9254608  10.8072195  35.9543724  19.3785706
  10.3235044  35.2421036  18.9603271  10.2956924  36.7391472  19.1818542
  62.4908104   2.8751469  76.7221069  61.9122086   3.1420155  76.0078049
  62.0215797   3.1273484  77.5173721  17.0006981   4.7435150  74.1647873
  17.2453098   3.8331416  73.9986038  16.6206474   4.7328725  75.0432358
  35.5603104  63.5028419  46.6816254  35.0343018  64.1688461  46.2389259
  36.4091263  63.9223747  46.8220940  18.6206856  64.9750519  39.4344063
  18.1446457  65.8043060  39.3901672  18.9360752  64.8320312  38.5420456
  59.3085327  29.8453522  69.5796661  58.8232727  29.2460823  69.0125427
  58.7770157  29.9072361  70.3733215  46.5272980  14.2861185  58.1139030
  46.5651970  14.4206896  59.0608406  45.8400688  13.6309958  57.9924011
  63.0778580  20.6531525  69.5867310  62.5172691  21.0320263  68.9096527
  62.5026283  20.0595894  70.0694580  34.4345016  27.4361801  12.5124979
  33.5981979  27.2990856  12.9575052  34.4307823  26.8024883  11.7951040
  86.5917740  71.0751419  57.4026375  86.1548309  71.1004944  56.5513573
  86.3253098  71.8876038  57.8329124  74.1484528  16.4091778  18.9853668
  73.4685745  15.7889776  18.7220268  74.9122009  16.1632195  18.4634190
  64.8419876  50.4264870  59.8563538  64.1544418  51.0909309  59.9013138
  64.4423904  49.7003441  59.3775444  64.3947906  25.8276920  55.3735123
  63.5663109  26.3059635  55.3401451  64.7365189  26.0014935  56.2505798
  27.2314053   7.4225793  10.1550808  27.5610561   6.7497840   9.5593386
  27.6297951   8.2350035   9.8428574  56.3433228  25.6799660  15.0174999
  55.7549896  25.4818821  14.2889004  56.4065971  24.8583145  15.5044470
  44.0054016  48.8509827  49.9133797  43.1667137  48.6654091  50.3357544
  44.6553650  48.4307213  50.4765472  26.8963127  42.9490051  69.0345230
  26.4468918  42.9516296  68.1893921  27.5468826  42.2510948  68.9576721
  74.9397888  25.7334270  24.6598091  75.6417847  26.3064785  24.9681091
  75.3759384  24.9039764  24.4648209  76.3400879  63.7920494  12.0191698
  76.8389130  64.4426727  11.5251093  75.4282379  63.9561768  11.7787046
  32.7740784   9.8310175  79.3744965  32.3679695   8.9694300  79.4692307
  32.5690308  10.2837114  80.1925735  66.4215927  44.6660538  47.8287315
  67.0592804  45.2607346  48.2236328  66.4191818  43.9010620  48.4040718
  79.9746399   7.9299698  28.9694710  79.8630981   6.9882812  29.0999050
  79.1718903   8.2073660  28.5280190  60.9904976  42.5345879  36.7508316
  60.6641884  42.0041161  37.4777145  61.9245987  42.3304901  36.7058144
  26.5746174   1.4720718  57.6865273  27.3656368   1.8006378  57.2592545
  25.8604813   1.7438788  57.1100197  69.4883881  27.0646477  11.3507175
  68.6933670  26.5337162  11.3984432  69.2297974  27.9155083  11.7048302
  51.3824348  36.6852837  61.9917336  51.8519630  36.9827995  62.7709999
  50.5457802  36.3613129  62.3253250  39.3729248  27.4109364  71.5031662
  38.9274025  26.7951336  72.0849991  40.2724304  27.0871677  71.4552383
  70.2530441  71.7087708  51.1368408  70.8857880  71.5219650  50.4433250
  69.6416473  70.9728470  51.1078339  64.8706360  47.4132156  70.7277832
  64.1819153  46.7661018  70.8799362  64.4206161  48.2568703  70.7721329
  33.8296013  45.7584915  54.2671814  34.3515663  46.4391251  54.6920586
  34.4199295  45.0075417  54.2053490  68.6035385  24.8368759  65.1019516
  68.9391327  24.8259048  64.2055740  69.0286865  25.5924587  65.5076370
  18.5520706  52.8068428   7.9788203  19.0349979  53.2307739   8.6882534
  18.8534908  51.8984528   7.9932976  46.7143021   4.5397377  34.7496071
  47.5855064   4.2701740  34.4588051  46.2202225   3.7225451  34.8152924
   9.4833956  -0.2161630  75.0097961  10.2972155   0.1264615  75.3793030
   9.1683846   0.4820290  74.4357452  14.0586786  15.4605932   5.1296749
  14.9651728  15.4149818   4.8256698  13.7804680  16.3522530   4.9204488
  76.6862183  68.0208435  35.6394386  75.8208466  67.6171112  35.5734062
  77.1783905  67.4390259  36.2186508  65.1188126  28.4202118  68.7399750
  64.2931595  27.9464912  68.8405609  65.7641907  27.7391338  68.5506363
   8.5886354  25.8162918  14.2834454   9.2294312  26.3828201  14.7131643
   9.0857944  25.0364246  14.0367231  32.8045540  71.1554337  24.2596378
  33.6588669  70.8885269  24.5989704  32.3657227  71.5606918  25.0075836
  49.6462784  15.0186386  70.9851151  49.4355545  14.6371136  71.8373260
  49.0957642  15.7997198  70.9296570  84.0819702   8.7417850  83.6130447
  84.8354492   9.1573429  84.0323410  83.3290100   9.0412664  84.1225357
  29.6720085  39.8859253  85.9600983  28.9233570  39.6742859  85.4024658
  29.3034687  39.9516792  86.8410568  75.6821289  46.5645714  56.6917763
  76.5829697  46.7994690  56.4691849  75.5760880  45.6752243  56.3540649
  27.6889954  18.7401714  75.6796265  27.2437077  17.9599895  76.0101852
  28.5684299  18.4366722  75.4544296  10.7660398  67.7412796  77.1897278
  11.5341234  67.3725281  76.7534943  11.0926838  68.0388794  78.0388260
  32.1578712  37.3024178  79.9002304  32.5760269  37.4990730  79.0619583
  31.9175072  38.1584816  80.2546539  46.4002953  23.5772438  59.9261398
  45.4494057  23.6382179  59.8348999  46.5502663  23.5706978  60.8714981
  55.5321007  34.3664970  51.0894814  56.3716240  34.6392479  50.7192879
  55.7464561  34.0638657  51.9719200  35.4461670  10.3244572  68.9430161
  34.6694908  10.7567911  68.5879135  36.1203537  10.4581318  68.2768021
  81.0125046  38.5567436  49.1153450  81.5141525  38.7457237  48.3223343
  81.2509689  39.2574577  49.7222824  21.1008320   3.4921074  68.8167801
  21.8352737   4.0904679  68.9538651  21.1985207   2.8318644  69.5029068
  67.5543365  14.3285255  51.6196785  67.8182373  15.0187120  51.0112076
  68.3253326  13.7659721  51.6927376  39.9339981  35.0716171  77.3800812
  39.7151375  35.5783958  76.5980911  40.8530235  35.2783699  77.5500336
  55.3218536  17.3604412   1.9746612  54.8256226  17.3740387   1.1562474
  55.7289467  16.4943295   1.9935642   4.2297544  25.2203903  73.4043808
   4.1181870  24.3074112  73.1393280   3.7035158  25.3049850  74.1994629
  57.8995667  55.9245300  84.1059875  57.0812378  56.3866081  84.2877960
  57.8777885  55.7607803  83.1631470  69.0146255  47.4408836  82.1487503
  69.8018875  47.9845657  82.1780777  68.3386993  48.0171967  81.7920837
  40.3822021  41.8776131  63.3378906  40.3344727  41.9506378  64.2911072
  41.1387329  42.4110947  63.0943947  12.0052881  69.9373322  22.0281219
  11.8362570  69.0481186  21.7167263  12.6442432  69.8271103  22.7322655
  84.4828720  23.2686806  70.2055511  84.7035141  24.1673012  70.4505615
  84.6429672  23.2313423  69.2625809  78.2167892  12.9009600  86.1925049
  78.1578217  11.9563541  86.0494156  77.3215027  13.1680031  86.4007797
  51.9596977  38.0277481  67.8923340  51.3910027  38.0036430  67.1227646
  51.4058418  38.3811340  68.5884628   7.5362349  43.7977409  21.3706036
   7.0873690  44.6237831  21.5506287   7.1539207  43.1772232  21.9911060
  84.7349777   4.6200862   9.0623817  84.5070038   4.1373868   9.8569002
  85.6737366   4.4694142   8.9516544  63.7823257  53.9321556  55.8461342
  64.2892761  54.0485992  56.6496696  64.1767731  54.5428314  55.2234650
  55.4228172  50.7971916  76.3140030  55.2790985  51.2374535  75.4763031
  55.6926155  49.9103622  76.0753174  36.5812263  35.9410896  63.1640930
  36.7305908  35.0011940  63.2666283  36.4991455  36.2696381  64.0593872
  78.5415802  67.4525833  26.1542854  78.7978745  66.5732117  25.8763618
  79.0460663  68.0386276  25.5901279  55.6725121   2.9185853  76.6308441
  55.4614067   2.0066652  76.8310165  56.5869217   3.0165803  76.8963394
  65.6154099  67.1339035  35.6995010  65.1628342  67.1072388  36.5425301
  66.0986938  66.3085709  35.6608925  32.4322929  44.0213242  18.4875336
  32.5277367  44.1202812  19.4348068  33.3116226  44.1729240  18.1410789
  25.4205132   0.6652821  42.6951866  26.2287788   0.5718064  43.1993713
  25.5559978   1.4536064  42.1694298  31.4007435   4.3995028   9.1806412
  31.4270954   3.8395996   9.9565573  31.6855087   3.8309155   8.4652042
  11.9100924  30.0776329  13.4668865  11.5766001  30.9709091  13.5509872
  12.5180759  30.1174679  12.7286453  53.3287277  19.3624020  71.4205475
  53.9672012  20.0182858  71.7005463  53.8589630  18.6167126  71.1394196
  35.8755493  60.7004128  78.5207977  35.1644363  60.7408714  79.1602554
  35.9737053  59.7674789  78.3304596  60.9540367  57.1961098  76.0741882
  60.6937180  56.6848602  75.3079681  60.1622276  57.6719208  76.3249359
  59.3588066  16.6959057   7.7453227  58.6979027  16.9292469   8.3972359
  59.5044403  15.7590075   7.8766394  12.3825121   2.0112212  26.4442501
  11.8440523   2.8003759  26.5036449  12.0613317   1.4485270  27.1488419
   5.8130822   7.5501089  12.8337488   5.0061698   7.8735294  12.4330950
   6.3978577   8.3078890  12.8399382  61.7157669  45.1969566  15.9699287
  61.4805679  44.2815475  15.8184624  61.2440796  45.4366035  16.7676201
  37.1362648  60.7182388   3.5270770  36.7390671  60.6622581   4.3961759
  36.6754761  61.4399071   3.0991786  23.6811867  18.1882305  81.9021378
  24.3768654  17.9999390  81.2722092  24.1290932  18.6127186  82.6338577
   3.3478696  53.3666687  84.1649933   2.4683645  53.7434959  84.1914825
   3.9329214  54.1242294  84.1583023  69.0200272  32.9089775  62.3726120
  69.6399155  32.3887520  61.8614044  69.1312027  32.5989685  63.2713699
   7.7411370   5.1198916  18.8208675   7.9933786   6.0121551  19.0585060
   8.5679779   4.6390634  18.7838421  78.8053131  67.8613434  20.4905205
  79.6719131  67.8833160  20.8964329  78.2259979  67.5370789  21.1800671
   3.9818668  27.4716663  27.1797085   4.4911809  26.8163605  26.7028351
   4.2100072  27.3302193  28.0984993  28.0903511  62.7129745   4.2418122
  27.7063541  62.7110558   3.3650146  28.1714439  61.7868690   4.4698000
  43.6740189  65.7662735  87.5159302  44.0052490  65.9367218  86.6341934
  43.3547478  64.8645401  87.4816895  66.9138565  15.9622555  63.7141228
  67.3652725  16.1774540  64.5303040  67.5613251  16.1329823  63.0301094
  57.8304253  40.3222694  51.8478737  57.4287415  40.0626564  51.0187263
  57.9064026  39.5065842  52.3429680  20.7742157  12.0344172  80.0999374
  20.1821404  11.2930918  79.9729919  20.3034878  12.7825394  79.7325668
  86.6031570  29.3752174  65.5877533  86.8534088  28.6137486  66.1109848
  86.2461166  29.9956245  66.2232513  83.2992401  51.8305054  52.3384476
  82.8107834  52.0841293  53.1215935  82.6295700  51.5225563  51.7277565
  74.3089523  33.1484680  36.3665428  73.4072037  33.4092484  36.1792564
  74.8253479  33.5553246  35.6708183  66.4079514  27.5722427  11.3269024
  66.3775330  26.6906300  10.9553308  65.5137253  27.9014053  11.2361040
  31.0755692   0.6987087   6.2347674  30.4379101   1.2070711   5.7335782
  31.2544022  -0.0666175   5.6883922  78.9783325  20.3640518   3.7703402
  78.9834824  20.6075439   4.6960387  78.0732498  20.1061840   3.5955350
  79.1900635  20.1587811  31.4011250  78.2893143  20.4610195  31.2847919
  79.6671982  20.5381508  30.6631165  16.8447132  30.2776985  14.6543722
  17.5710163  30.8358326  14.9322281  17.1602821  29.8535252  13.8564224
  34.3235588  15.0860844   0.4563810  34.2888298  16.0349731   0.5773560
  35.0070343  14.9532328  -0.2004639  43.9524002  43.1987419  19.0630894
  43.9056320  42.4056587  19.5969963  44.4668808  42.9422455  18.2977448
  35.1161156  28.2726841  69.4273987  35.8327332  28.8907089  69.5714035
  34.9905396  27.8494434  70.2767105   4.0516014  70.9220810  35.4149590
   3.4301775  71.1281357  36.1132469   4.8431520  70.6410599  35.8739853
  58.8978310  50.8255234  82.3947983  59.1761818  50.0875320  82.9371262
  59.5682716  51.4936981  82.5372009  85.1740570  59.1245575  75.0987320
  84.4370346  58.7993546  74.5817566  85.0104980  58.7952805  75.9825058
  60.7567444  36.3560638  75.7508469  61.3862228  35.9523582  76.3483582
  60.7941971  37.2897148  75.9585190  10.1108665  38.4661522  55.4998894
   9.5552521  38.9419403  56.1172638  10.8272743  38.1256752  56.0356789
  30.6790257  49.7279396  52.7612724  30.4100685  50.1291046  51.9348602
  30.6073551  48.7863159  52.6049232  85.9973450  38.4428101  11.1978750
  85.6260757  39.2943726  11.4285917  86.9193802  38.6247711  11.0163012
  63.9961472  64.4875946  79.0203400  64.5453796  64.6283951  78.2491455
  64.3187027  65.1196671  79.6627426  12.1421375  56.1249504  82.9136505
  12.8426075  56.4091263  83.5008621  11.3524609  56.5345955  83.2669678
  56.7890854  50.5587502  86.8217545  57.3039589  50.9815216  86.1344452
  57.1318741  50.9246178  87.6371536  85.5762482  57.0442696  86.2546921
  86.1948318  56.3638039  86.5202942  84.7915421  56.8707962  86.7746735
   3.9549325  53.3306732   1.4322132   3.2408984  53.4630089   0.8086156
   3.5279722  52.9819565   2.2147315  44.7011833  32.3509598  37.3319054
  45.2622452  33.0021057  36.9106522  43.8124657  32.6012917  37.0794144
   0.5354902  68.1966934   2.2735269  -0.1126038  67.7042313   1.7698524
   0.6363919  67.6993561   3.0851343  56.4544945  15.5278082  73.9419708
  55.6204185  15.0733757  73.8234787  56.2087059  16.4157314  74.2016144
   6.5337553  65.0848770  83.5169678   6.6508484  65.7725372  84.1724396
   7.1694341  65.2952576  82.8329468  67.4495163  22.8046780   7.9065824
  67.1320267  22.2919846   7.1632276  67.6471176  23.6652756   7.5370450
  45.4174881   7.0433335  25.9265308  45.2879105   6.6396108  26.7846985
  46.2781487   7.4582267  25.9845200   2.1452091  66.5750885  67.8130798
   1.5055631  65.9361725  67.4986496   2.5595365  66.1496582  68.5637970
  76.0441360  18.9704952  37.2450943  76.5924301  19.2888508  36.5279770
  76.4365387  18.1334190  37.4932022  59.9060516  21.8248444  72.5065689
  59.4126663  22.6436882  72.5545120  60.0588074  21.6916790  71.5710678
  18.4542885  44.3168716  73.9354935  19.1279507  44.9751244  73.7648697
  18.8370018  43.4963722  73.6247711  79.0725861  45.2859001  46.1668549
  79.9375000  45.0739098  45.8158417  78.6783371  44.4357643  46.3619766
  30.7218990  54.0091324  63.8595009  31.3165989  53.8104782  64.5827637
  30.0465221  54.5636482  64.2501526  41.7541313  19.0561619  81.3815384
  41.4825630  18.2265549  81.7742691  42.2746735  19.4839668  82.0614319
  82.9607925  48.9668427  37.3356857  83.0271606  49.5880547  38.0608940
  82.0566025  48.6545677  37.3698006  33.8028908  41.6757317  77.0351639
  33.0203896  42.0152550  77.4694977  34.2485046  42.4543877  76.7014618
  63.5613098  44.3639641   0.8441660  64.0285034  45.0813255   1.2723669
  63.6203156  43.6363678   1.4633199  67.9638901  10.4055510  67.8406067
  67.3197556  10.6982498  68.4853134  68.0324783   9.4613695  67.9821930
  10.2525549  50.8217468  46.2927856   9.5195379  50.3171539  45.9402199
  10.9051867  50.8172646  45.5925827  57.1502380  51.7061920   5.0307298
  57.5804329  52.3007927   4.4162264  57.8651810  51.3448296   5.5546641
  65.7773590  34.8462143  82.6298447  65.0759506  34.9855461  81.9935760
  66.0133209  35.7264023  82.9227982  50.9134560  33.3439369  72.6213074
  51.4551163  33.5238380  73.3897247  50.8519821  32.3892326  72.5897980
  -0.0659919  70.9503479  64.6609344   0.3005875  70.4482574  63.9330864
   0.6731007  71.0875549  65.2535095  52.3865585  48.1280594  50.6359138
  51.4568291  47.9816360  50.4615746  52.8272057  47.3835564  50.2263069
  61.9497795   4.4033685  56.8008499  61.2206078   3.8312218  56.5617065
  61.5332451   5.1719842  57.1906738  75.3862915  59.4934273  63.7776146
  75.3988190  58.5772247  63.5007553  76.0445557  59.5432014  64.4707565
  72.4262314  56.4949646  32.0445633  71.6485291  56.1041069  32.4428558
  73.1610336  56.0535202  32.4705048  67.1896515  66.1843414  21.2468948
  67.6139984  65.7733383  20.4937401  66.4466400  66.6586609  20.8738270
  24.9611416  51.2757378  78.9750290  25.3302002  51.7399559  78.2236786
  25.6939201  51.1852531  79.5841904   8.0943031  37.5337296  39.1295929
   7.5370798  36.7716179  39.2874680   8.2122602  37.9273911  39.9940834
  50.6581306   5.4637394  87.2721405  50.5955887   5.7956648  86.3765182
  50.3152084   6.1735344  87.8151245  85.9468384  52.9951897  51.9014282
  85.0374603  52.7039909  51.9683342  86.2296677  52.7003670  51.0357971
  80.5485992  24.8395252  29.5016460  79.7327652  24.5598679  29.9169102
  81.0215836  25.3044014  30.1918678   6.8759899  59.4623756  45.1230431
   7.4911470  59.3532486  44.3978500   6.5623231  58.5768013  45.3063660
  76.0722733   3.5123053  64.1457672  75.3942566   2.8486478  64.2725983
  76.8272476   3.1791394  64.6307831  73.6119385  26.4473915  14.5666742
  72.6997147  26.6951981  14.7172661  73.8096008  26.7815514  13.6917467
  56.9881248  58.0777397  73.8360901  57.3653564  58.7660866  73.2882767
  57.5341988  58.0710449  74.6222153   5.5800939  28.3263607  32.8371315
   5.9582839  28.7280312  32.0549126   5.6814461  28.9896183  33.5198097
  61.9702377  60.8684006  44.4025345  62.1391754  60.6630783  43.4830055
  61.0320435  61.0548973  44.4378510   5.5818906  11.4930105  57.3970299
   5.2369456  12.3242321  57.7230911   4.8402867  11.0846500  56.9503784
  61.8844070  54.8298950   0.3588847  62.0443993  55.1603394  -0.5251067
  62.6449318  55.1181259   0.8636221  33.2412033   3.0498152  35.7872276
  32.4006920   3.4720070  35.9647789  33.8749809   3.5539289  36.2975464
   9.5432167  44.1133652   4.3382974   9.6252527  44.6614265   3.5578279
   9.2872114  44.7212257   5.0319843  30.3004265  35.2753944  79.5917664
  31.0103416  35.9101181  79.6886139  29.8013363  35.5875740  78.8369980
  77.9408188  60.6434402  27.4868908  78.3257904  59.7681923  27.5312881
  78.5558395  61.1489334  26.9554214  45.6621056  61.0638809  17.3896084
  45.0830078  60.3584099  17.1011848  45.9942093  60.7695045  18.2377129
  15.5084248   0.2017367  28.4490814  14.8049402   0.7562304  28.7865391
  15.6864376  -0.4169664  29.1574249  64.2775726  48.5085144  25.8939476
  64.1810455  49.1436310  25.1843414  63.4931259  47.9631042  25.8355751
  33.6134605  37.6761131  87.1748810  34.4890671  37.9380646  86.8904037
  33.0223503  38.1041679  86.5555344  27.4336090  10.9662590  82.3400421
  26.9617004  11.4215012  81.6427002  27.2547112  10.0388861  82.1844559
  43.2422447  32.5260124   5.0151653  42.6424904  33.2473221   4.8247976
  43.1540489  32.3835640   5.9575887  62.3025322  10.1210451  19.2785587
  61.7740936  10.9157209  19.3525505  61.9073448   9.6372900  18.5532742
  52.1516838  42.2888184  80.2751389  51.8235588  41.4231606  80.5184479
  51.4996338  42.8981133  80.6212921  33.7114983   0.4040056  66.9453125
  33.1088219   1.0340139  67.3404083  33.9430809  -0.1874449  67.6613998
   6.7794914  42.6442451  32.1452179   6.3405848  43.1686783  31.4754715
   6.3240933  42.8639259  32.9579811  13.0880089   0.8559572  23.6510868
  12.4730263   0.9726643  24.3752460  12.5319347   0.7095730  22.8858509
  56.6220512   5.3780088  74.4602127  57.0864258   5.1322894  75.2603455
  56.6985512   6.3313842  74.4220657  64.1783981  54.4557533  47.6782532
  64.3868942  54.6689949  46.7686996  63.6821518  53.6389656  47.6250610
  49.7231483  17.0439301  80.1052704  49.3333817  17.9019318  79.9375000
  50.0161400  17.0878029  81.0154724  17.4406319   3.6752973  87.3009796
  17.9182529   3.7977517  86.4805450  16.6737499   3.1572018  87.0566483
  62.4860687  58.8840141  53.3663979  62.4378128  58.4884720  54.2367134
  62.9616165  58.2430000  52.8380165  68.5429916  23.0769768  25.9107628
  68.3447189  23.8700542  25.4128189  69.4866867  22.9570751  25.8044472
  47.1293297   8.6662178  69.1349640  48.0805740   8.7542610  69.0748672
  46.8718109   9.3009214  69.8035889  81.8321228  38.5576553  72.5859451
  82.4727402  39.2618446  72.4861374  81.0740585  38.8499947  72.0798721
  43.8455505  57.0898018  39.8469963  43.7158241  56.9611969  40.7866020
  43.2813988  56.4350967  39.4355011  12.7473459  65.6998901  80.2390366
  13.0220757  65.7119751  79.3221893  11.8145084  65.9128113  80.2123718
  80.0110245  52.7273445  36.5205307  79.5468369  53.5431213  36.3327255
  79.5141907  52.3279991  37.2346153   9.0188808  14.1211824  55.3835030
   8.6619339  14.0954227  56.2712860   9.7160444  13.4652977  55.3865395
  13.7735233  16.7808933  15.7827091  13.8632011  17.3948555  15.0538473
  13.7128305  15.9214010  15.3657875  11.0208282  53.8491707   8.9573822
  11.4797831  53.3574867   8.2763252  10.6566868  54.6076927   8.5010071
  22.5501995   7.6481767  81.1892853  21.6450043   7.7640181  81.4781342
  22.7432423   8.4378042  80.6838608   4.2511778  39.5629959  14.4897909
   4.3754764  39.0546303  13.6883259   3.8191566  38.9578934  15.0926533
  84.5108643  23.6915340  75.3405457  83.9657593  23.9475079  76.0845718
  85.3987350  23.9406109  75.5972061   1.2991791  16.5338078  21.9969101
   2.1018109  16.7198009  21.5096531   0.8926822  15.8093863  21.5213013
  60.9494820  16.4382515  86.9284592  61.0094032  15.7844658  87.6250305
  60.8080406  17.2658043  87.3882294  19.3245220  42.2336845  86.2191162
  18.9729328  41.5801849  85.6145096  19.1502171  41.8737068  87.0887527
  15.6170292  58.2668915  61.0606651  15.9150496  58.1175880  61.9579544
  15.5988569  57.3949814  60.6661148  29.5694599  13.4121838  34.2413673
  28.9822922  13.5308065  34.9879532  29.4617844  14.2095804  33.7229118
  50.0268288  47.2908783  78.1945953  50.0350800  48.1299210  78.6552124
  50.9083977  47.2086525  77.8308487  26.3959751  18.1466827  81.1651459
  27.2984715  18.1117516  81.4821777  26.4740639  18.4128895  80.2490311
  41.8019676  49.2193718   8.1843367  41.5073929  49.1834183   9.0943727
  42.4088097  49.9591599   8.1580725   6.5377827  32.0132599  66.2337799
   7.2586780  31.3874912  66.3041763   5.8766990  31.6867142  66.8441620
  29.4946957  51.0068970  27.7306614  28.5598011  50.8616714  27.5853558
  29.9232254  50.5528107  27.0051270   9.2577972  52.0265884   3.5287862
   9.6025600  52.8305435   3.9174113   9.3976707  51.3575249   4.1988750
  51.6815643  62.4479446  79.8766327  50.9708481  63.0697136  80.0332108
  51.5431480  62.1471710  78.9785233  58.6742821  42.0306282   6.3411098
  57.8749619  42.2465134   6.8214388  58.4195976  42.0761299   5.4195366
   8.4936171  26.2562370   8.7887859   7.5761232  26.5130196   8.8809814
   8.7639532  26.6304111   7.9502487  50.4244537  20.1296272  61.2236633
  49.8940392  19.6525898  61.8618851  50.3685188  21.0439491  61.5013695
  27.2803097  53.7333679  18.0875206  26.9820900  54.4737434  18.6158581
  27.4160538  54.1014519  17.2144108  42.1579361  70.0191040  87.0729523
  42.2938995  70.0418625  86.1257324  41.7096214  69.1882248  87.2306747
  40.8598938  32.8371315  14.4502802  41.4592247  32.7470131  13.7093935
  41.2481384  33.5257301  14.9900303  77.9759827  59.8818359  79.1683502
  78.4658051  59.2906075  79.7399673  77.1926117  60.1061745  79.6705780
  31.8450775   9.7949619  37.0784721  32.6310921  10.3269901  37.2024117
  32.1734619   8.9007721  36.9845581  21.8002758  14.0645285   1.1004084
  22.6071320  14.3459635   0.6691189  22.0312901  13.2383661   1.5250505
  50.8174820  28.6193428  24.7682247  49.9968452  29.0962734  24.6444397
  50.6738625  27.7787037  24.3335648  83.5859985  30.5754452  31.3631096
  83.9451523  30.0809231  30.6264362  84.1514664  31.3445320  31.4337254
  39.7780151  49.4347878  51.3143730  40.5666885  48.9734650  51.0290565
  39.3260269  49.6616631  50.5016823  81.2230072  31.8726158  88.4429474
  81.1419601  31.4702663  87.5782089  80.4139709  31.6334724  88.8951645
  60.8569107  30.1062546  28.1688633  61.6066284  30.4629154  27.6924686
  60.6220703  30.7920609  28.7939663  39.8672943  24.7604637   5.1978092
  39.2268295  25.0194988   4.5352845  40.1224632  23.8718758   4.9497571
  28.5641460  52.9722672  40.0365601  28.9109955  53.8374672  39.8189545
  28.9217072  52.7820740  40.9038582   5.1636305  42.0194511  22.5657597
   5.0574279  41.9268456  21.6189880   4.5984406  42.7558365  22.7992802
  62.7834282  67.3220444  41.8354034  62.5522423  68.1690521  41.4541359
  62.1790199  67.2171555  42.5701981  31.7046318  53.2238693  23.3377399
  31.0899239  52.5013657  23.4656162  32.4983025  52.8066330  23.0027313
  83.1909103  52.9906273  46.9335747  83.0507736  52.0505829  47.0472107
  82.6257095  53.3981018  47.5898895  38.2883568  66.1501236  82.0391464
  38.2344627  66.3620148  81.1072464  37.5497208  66.6140594  82.4333649
  78.5578537  48.4467201  31.2400150  78.4977875  47.5128250  31.4411831
  78.5345078  48.4877701  30.2839794  84.5713730  58.3633461  69.5980911
  84.2463684  58.4134521  68.6991577  85.0786743  57.5520630  69.6244965
  60.9008751   8.1912899  41.1224098  60.2496681   8.5663872  41.7152557
  60.9854660   8.8364725  40.4204025  79.3626404  17.4652100  17.4107227
  79.5182419  16.6521549  17.8913059  80.1512604  17.9866314  17.5604782
  33.7616539  57.6938591  48.7156868  33.4684982  57.0923691  48.0312157
  34.5670090  58.0774765  48.3685951  71.2824860  45.8653069  34.6852570
  72.1313248  45.7529449  35.1131287  70.6541061  45.4772263  35.2941589
  40.6620598  37.1389084  11.5902147  40.7896500  36.3006477  11.1460619
  41.5485039  37.4646072  11.7463398  48.7329903  49.8947639  10.6662025
  47.9411392  50.3511810  10.9506130  49.4281921  50.5476341  10.7479639
   7.0591059  67.4397125  18.2715912   6.7865334  68.0718307  18.9366970
   7.7086229  66.8925323  18.7131233  72.2525558  12.4087019   9.2823324
  72.3761826  13.2090816   8.7720976  72.7190475  11.7349091   8.7877407
  82.4618912  20.0660381  82.5765610  82.6381912  19.6965084  81.7113419
  81.5075378  20.1238556  82.6223755  81.9761429  43.5108261  69.2207565
  81.3354263  43.0536232  69.7654419  81.4484253  43.9974403  68.5875473
   7.7897677  68.3698196  46.5575790   7.9078627  68.4371872  45.6100845
   7.3668079  67.5208664  46.6864662  62.0771675   6.3939986   7.9104819
  61.4627609   6.0196562   8.5418329  62.6477280   6.9553490   8.4354382
  85.6775055  41.0957527  56.2162437  85.8958664  41.9026566  56.6825714
  85.1417160  40.5991669  56.8347588  59.6181984  29.7882118  31.2261600
  59.0827141  29.1085854  31.6355419  59.0707512  30.1315174  30.5199928
  11.8796444  16.6643829  76.3897858  11.2581978  17.3395672  76.6621170
  11.3479033  15.8743401  76.2932663  30.5851650   5.3141313  12.7124023
  29.9702644   4.5805936  12.7196255  30.1398563   5.9949946  12.2080650
  69.3745346  25.0092735  72.5846710  69.5325623  24.6090240  73.4396896
  70.1453552  25.5551891  72.4296265  57.6031036  69.8245087  79.5708466
  57.9736214  69.1518707  80.1422501  57.8884430  69.5756836  78.6916962
  70.1752853  22.8243637  62.0270538  70.5882034  23.5230236  62.5346031
  69.7680969  22.2596550  62.6839638  77.2725449  69.6046066  83.3531342
  78.1249313  69.9746628  83.1235199  77.4171906  68.6584549  83.3636932
  81.9678650  -0.1881472  39.9335632  82.6428223   0.4382561  39.6722374
  81.7472687   0.0582907  40.8318062   3.0255368  28.8002396  30.9408493
   2.8906410  29.2003021  31.7999096   2.6471665  29.4259663  30.3231640
  64.4200363  12.5170145  18.1908569  63.6443367  12.4617825  17.6327553
  64.1958618  13.1758947  18.8480129   9.1813974  12.3263845  80.4600830
   9.1164303  13.1844978  80.8791885   9.2750816  12.5216837  79.5277100
  80.7572098  15.9638929  88.3452148  80.1915283  16.7120399  88.1541214
  81.2929916  15.8616524  87.5586319  47.0825996  22.6095467  62.4165230
  46.9438248  21.6624603  62.4164696  47.7410126  22.7551022  63.0958900
  86.5772476  47.9129295  74.3849716  85.7220383  48.1331711  74.0157166
  86.4460068  47.9507980  75.3323746  42.6917992  44.2131233  80.4250488
  42.1471977  44.2769966  81.2096252  42.8121796  43.2727585  80.2929535
  17.8788662  13.2378273   6.1901364  17.5224724  13.7096109   5.4373841
  18.2530308  13.9214010   6.7459769  50.4766731  60.6847916  18.5687294
  50.9058113  59.9410477  18.1457462  50.5339012  61.3916740  17.9258671
  59.2300415  18.4733467  24.8039055  59.1139488  18.8631077  25.6704159
  58.4762306  17.8927460  24.6994896  -0.1821068  50.6383247  41.6362114
  -0.3343600  51.4908104  41.2283897   0.6075281  50.7623482  42.1628304
  73.7040176   7.8467479  14.2681942  73.5227203   8.6968908  13.8674173
  72.8769302   7.5941205  14.6784859  50.8136902  58.9215126  75.5763397
  51.1300621  58.2834587  76.2158890  51.5332603  59.5461044  75.4850388
   2.4590681  37.1916885  60.4160767   2.2382429  36.6707535  61.1881485
   1.6240757  37.5624123  60.1304474   9.9270277  25.4339142  69.5624084
   9.3199816  26.1739998  69.5619278   9.4564180  24.7384224  70.0218124
  65.0100708  34.8879242  71.6330948  64.1713486  35.0253906  71.1927719
  65.4079285  34.1529388  71.1664658  66.1011505  70.7003326  68.9322662
  66.0477982  71.4870834  68.3896713  65.2160416  70.5880203  69.2789688
  37.8187027  58.1051483  69.2933350  37.6052055  57.5319901  68.5570297
  38.5838432  57.6981239  69.6996841  30.8978729  12.3045444  17.4696274
  30.5555038  11.6213369  16.8932228  30.2897663  13.0358467  17.3617649
  19.2553520  55.5116692   0.8339581  20.1303902  55.4022217   0.4617197
  19.0355625  54.6494141   1.1867146  13.2571211  48.9384766  67.3328857
  12.5524559  48.3171883  67.5164108  12.8436451  49.6198730  66.8028183
  70.8694687   7.9590521  88.2740860  70.0612869   7.9371791  88.7865219
  71.1470413   7.0442758  88.2254181  84.2567902  64.1587601  35.4490814
  85.1276321  63.8198509  35.6564407  83.6542053  63.5252991  35.8387642
  17.5859966  17.9231300  11.6987448  17.2747917  17.4245071  10.9432583
  18.0549679  17.2816429  12.2324057  34.7724419  36.3542099   7.3744202
  34.6978264  36.6231956   6.4588265  34.0996017  36.8613625   7.8286390
  65.2628021  33.7688637   0.2957491  64.5355682  34.2373543  -0.1139794
  65.2788620  34.0922318   1.1965307   3.4165473   2.4065146  55.8001862
   3.5440021   1.7159721  56.4506760   2.7974603   2.0332401  55.1727867
  71.0479736  57.8183746  22.6194897  71.3697739  57.0889015  22.0898247
  70.7700729  57.4134827  23.4411144  12.2083130  27.7079830  20.8814812
  12.9192553  27.8050404  21.5150204  12.5853539  28.0004425  20.0516987
  77.1406250  33.3176079  22.7426605  77.9255447  32.8003311  22.9230976
  77.1787338  33.4905090  21.8019772  82.6137924  30.7091503  77.0326767
  82.6282425  30.4302120  76.1171341  82.5477371  31.6631756  76.9913788
  33.9112015  70.4601288  87.4236603  33.3931732  71.2570877  87.5364990
  33.7487488  69.9541473  88.2197876   5.4017510   6.5639200  53.8938904
   6.0084596   6.6281676  54.6314583   4.6591997   6.0669112  54.2371559
  41.7805824  20.0518837  78.8889313  41.7912560  19.7516270  79.7977600
  42.6153564  20.5067310  78.7771378   9.0797310   9.1795797  58.8833046
   9.8623018   8.6552668  58.7132721   8.7114525   8.8073158  59.6845665
  67.7305374   9.3399677  51.9136391  68.2707977   8.5511942  51.8668823
  67.0718842   9.2200375  51.2295151  50.4393005  63.4304733  42.2848740
  50.2673988  62.4950676  42.1767197  50.7403755  63.5156441  43.1894913
  46.0443840  68.4091949  68.7745514  45.9286766  69.3279648  68.5322495
  46.8655090  68.1524200  68.3549652  66.9476395   2.3885856  71.1912689
  66.8061523   2.7937677  70.3356705  67.0626907   3.1267035  71.7897415
  42.5471420   3.9384165  85.1102066  41.8583794   3.2799671  85.0191879
  43.1573410   3.7467506  84.3980637   3.0841339  51.0678825  24.3705215
   2.2643228  51.1828461  23.8899746   3.7180028  51.6044846  23.8945999
  10.7376614   6.0677977  16.1701469  10.2815466   5.3249168  16.5655193
  10.0397530   6.6778378  15.9313860   8.5530767  63.0148659   1.4876966
   9.1661034  63.2780304   2.1741188   7.7874379  62.6904907   1.9618369
  81.7752609  35.2052879  17.8993187  80.9077377  34.8022881  17.9344254
  82.3763275  34.4699097  17.7803078  60.0638428   0.1352574  45.5651016
  60.0804634   0.9726903  46.0284157  59.3102379   0.2009415  44.9785881
  55.1363831  71.1375275  80.2518158  54.8695793  70.7797241  81.0985870
  55.9275093  70.6492081  80.0240021  13.3882866  41.5908966  71.3359222
  13.5562506  40.6740303  71.1182709  13.8323812  41.7234840  72.1734390
  51.4260368  44.2038841  85.1542206  52.3034172  44.5723038  85.2576752
  50.8514366  44.9670258  85.0935745  12.1456995  44.4586563  86.3849564
  12.1578074  45.4003525  86.2138062  12.7933455  44.3329239  87.0784836
  83.5597610   3.3067653  81.3196030  84.4683380   3.0119159  81.3810425
  83.0564423   2.6265864  81.7671051  30.5782757   6.3829598  65.1788864
  30.6420212   7.1817651  64.6553650  31.3688183   6.3865685  65.7185745
  69.9698105  20.7094345  73.9751587  69.4772720  21.3117313  74.5327148
  69.3099518  20.3207855  73.4009018  59.6902618  15.5804691  77.5041428
  60.0393372  15.3077278  76.6556168  59.2137108  14.8146152  77.8244476
   5.1409140  15.0539494  62.7470360   5.3263974  14.5623064  63.5471077
   4.1928296  15.1850157  62.7608223  65.5958710  12.5720654  45.5949860
  64.8468933  12.9156971  46.0819931  66.2725220  13.2421026  45.6920853
  35.4199409  69.6008224  15.4715748  36.1072922  69.3643646  16.0943661
  35.8706551  69.6623077  14.6293707  38.0808830  43.6262398   1.6648231
  38.0020409  42.8735428   2.2508790  38.8777199  43.4562111   1.1624546
   4.9846568  23.0607281  39.1836700   5.4189916  22.8610325  38.3543892
   5.2966795  23.9361706  39.4127388  63.0924721  43.7857971  64.3839264
  63.3346748  43.0584030  64.9570465  63.9279213  44.1717262  64.1206512
   6.8575182  35.2943039  52.8549881   6.7856598  34.3432999  52.7733803
   6.3977580  35.6359291  52.0880814  66.5111771  43.3273506  13.1622305
  66.2532730  43.9380302  13.8527288  66.0429001  43.6327133  12.3852444
  78.1791611  23.7486115   1.5310152  78.9239273  23.5451336   0.9651999
  77.6141434  22.9784184   1.4694554  38.5359535  24.1140270  64.5539856
  38.0534630  23.3559341  64.2242432  39.4531136  23.9142590  64.3665237
  70.3428268  11.1598234  66.8254318  69.5492706  11.0258741  67.3436508
  70.8664169  11.7715960  67.3429413  13.4546728  65.0835876  21.7011623
  14.0815611  65.5518570  21.1498280  13.9976664  64.5473480  22.2789459
  27.9418621  -0.0130750  41.8687210  28.8555717  -0.1793472  41.6369438
  27.9709702   0.2392261  42.7916145   6.6096649  11.8325424  10.3707924
   6.3316088  11.2819223  11.1027317   7.1153054  12.5356016  10.7785511
  53.6012726  65.4384995  46.5862045  53.0389481  65.8312378  45.9185371
  54.1159134  66.1702881  46.9265938  14.9139814  68.2018890  22.5276356
  15.4576693  68.9888077  22.4903831  14.8229046  67.9302368  21.6143208
  39.5452919   5.4004846  59.3146820  39.9944038   5.3618302  60.1590958
  39.0105705   6.1928802  59.3638496  13.1125069  58.7298050   5.4302540
  13.1818895  57.7976570   5.6364660  12.2189035  58.8371544   5.1044016
  83.6009598   1.6831669  73.8150711  83.6152725   2.6130376  73.5884323
  83.7478561   1.2317615  72.9838791  36.2282677   8.1563444  89.1150513
  36.0522423   7.2432671  89.3420715  35.9771271   8.2268648  88.1940842
  57.4682808  30.6107826  60.8834152  57.6506538  30.9468536  60.0059013
  56.5424194  30.3690243  60.8596687  48.7450294   0.5247686  64.5872040
  49.0905800   1.4151621  64.6506500  49.4679489  -0.0336493  64.8731918
  66.2237549   3.5797977  60.4257202  65.5205154   3.4746428  59.7849121
  66.8336258   4.1918297  60.0137672   2.7723334  25.2945366  21.6382999
   3.1922419  24.9331665  20.8577099   2.0484984  24.6951675  21.8200970
  16.1873379  54.2501259  36.8622246  15.9975777  53.3618393  36.5602722
  16.1422329  54.1934090  37.8166771  81.6179047  28.1598778  13.8366213
  81.0031967  28.3991165  14.5302582  82.3475189  27.7441845  14.2960682
  17.6406269  63.9600067  20.8341770  18.0695877  63.1620483  21.1431828
  17.9316254  64.6393280  21.4425201  14.2966242  43.9606056  45.7461472
  13.6046324  43.2992668  45.7430573  15.0060139  43.5626411  46.2507477
  51.8464584  27.9284267  58.1968727  52.5452461  27.4553547  58.6486778
  51.0383873  27.5444431  58.5371895  74.6376343   1.7726461  39.0122337
  74.1797638   2.1826367  38.2784119  75.2940598   2.4176681  39.2754517
  79.1823578  31.3586674  25.6348743  79.9419174  31.4327717  25.0571117
  78.5101547  30.9432411  25.0946865  17.2253704  46.4857559  65.2272339
  16.3890285  46.7601204  65.6033859  17.8392830  47.1753922  65.4797134
   4.5594521  21.3767891  10.1680355   3.6888864  21.0751038   9.9085484
   4.8799658  21.8644409   9.4092884  54.4238625  34.4265518  71.1104050
  54.3738060  35.3366318  70.8180389  55.1735497  34.0642014  70.6382828
  16.2156487  68.7250671  51.7636528  15.8815584  69.5007935  51.3132477
  17.1654491  68.7763748  51.6565208  76.1264343  71.3945465  87.1797409
  76.5929413  72.2256393  87.2685623  76.6530228  70.7698135  87.6783752
  69.4194946  48.6421242  11.8417873  70.1492081  49.0654640  11.3895369
  68.6389313  48.9652481  11.3917389  73.8672333  38.1065865  35.0717239
  72.9100647  38.1060600  35.0637207  74.1144638  37.9521446  34.1599922
  74.7972260  19.0059662  20.3168335  75.6134491  19.4796543  20.1567459
  74.9360046  18.1475887  19.9166317  43.4633102  45.7680016  39.0634460
  43.6159821  46.4941483  39.6681252  44.1897583  45.8169785  38.4420700
  71.3591385  53.0125618  33.1501427  71.8636627  52.4073143  32.6066666
  71.7677078  52.9562912  34.0139313  43.4337273  65.2363968  55.3174973
  42.8263016  64.6962662  54.8120117  43.4143105  66.0891647  54.8831558
  74.4630814  15.1218529  53.3922195  75.2727356  15.5573931  53.6586800
  73.8928528  15.1868391  54.1582794  44.3012733  44.1755295  70.3239517
  44.0912323  44.1251411  71.2564621  44.9803314  43.5132980  70.1952667
  54.6862869  59.2632332  10.3836336  55.3992882  59.8786736  10.5542021
  54.5813141  59.2759933   9.4322929  20.0004749  55.5916214  12.0994473
  19.2774677  56.1801834  12.3164368  20.6946697  55.8280678  12.7146053
  84.5016327  39.9035606   1.0745962  83.5478821  39.8484459   1.0150497
  84.8177414  39.4122200   0.3163792   7.2540708   9.7876606   6.2169814
   6.5938039  10.3256311   5.7800984   7.0563488   8.8932476   5.9391990
  31.5335045  11.5903988  21.9578171  31.6593533  12.4264145  22.4066734
  31.2872486  10.9800692  22.6528625  26.2837086  16.9500389  26.3478489
  26.5974331  17.1709652  25.4709225  26.1299381  16.0057945  26.3163853
  64.4044189  58.6641159  29.8960781  65.0840530  59.3346329  29.8271904
  64.3841171  58.2539482  29.0314503  34.7238045  58.6930618   6.8585696
  34.9175415  57.8924599   6.3709884  35.1109009  58.5473747   7.7217970
  17.9858360  67.3838120   2.9705319  18.2535305  66.5836792   3.4226053
  17.2094193  67.6792526   3.4460559  78.8952866  37.1961594  78.1384430
  78.0016861  36.8860855  77.9915924  79.3382111  36.4595566  78.5597076
  64.8226471  33.2187271   3.1354752  64.4468231  33.3066101   4.0114102
  64.3895721  32.4496384   2.7650938  23.0794144  11.9112320  84.9223022
  22.5547962  11.7672195  84.1347275  23.7135658  12.5817566  84.6683655
  61.1150627  14.7766352   4.9795861  60.6703072  15.6222076   4.9209843
  61.6726646  14.7449188   4.2022171  13.3901386   7.0558949  55.9896889
  13.2513342   7.7952514  56.5815659  13.0461912   6.3000917  56.4658127
   1.6869911  25.9552078  56.1005516   2.0697134  26.6063995  55.5125809
   0.7963523  25.8306026  55.7727280  51.8030853  33.7735329  31.8653545
  51.0874214  34.3273697  31.5533905  51.5136299  33.4702568  32.7258606
  77.7956390   7.6116924   6.9613595  77.4327850   6.8818846   7.4633031
  78.4468384   8.0026846   7.5438547   2.2843108  33.3723564  83.9947662
   1.4421932  33.5420685  84.4169846   2.7871931  34.1751518  84.1320877
  26.4958038  13.2245798  66.4398422  25.5807247  13.4841118  66.3325806
  26.6450500  13.2579575  67.3847504  42.2780571  42.9125824   8.9749908
  42.9745941  43.3169212   9.4922752  42.0526123  42.1170425   9.4571953
  17.0224590   6.3457546   6.7838840  17.9259510   6.5111914   7.0532627
  17.0881996   5.6297040   6.1520762  14.7434940  31.4645557  69.0081482
  15.3349600  31.9420929  68.4264603  14.3053074  30.8327389  68.4380341
  69.8043900  55.0572319  82.1535339  69.5535355  54.8531303  81.2526169
  69.0101089  54.9013977  82.6644745  62.6681366  14.1082973  31.5635262
  61.7850380  13.8066378  31.3505249  62.5500145  15.0156565  31.8445587
  51.3826637  58.0073853  28.0221825  50.6887894  57.8320389  28.6578083
  50.9244804  58.3560715  27.2575130  29.2410736  52.7153435  59.7749634
  29.7780666  52.7468529  58.9832077  28.4621010  53.2269440  59.5565605
  41.6342468  11.2794180  63.4657860  41.2264023  10.4825869  63.1267319
  40.9045982  11.8850832  63.5962334  26.6563435   7.4571395  23.8618431
  27.5975533   7.4253387  24.0331440  26.2523670   7.2524991  24.7051449
   9.1212540   6.2422175  77.2645340   9.0864773   6.0717430  76.3232803
   8.2079678   6.2046142  77.5486603  43.5137100  58.2939034  53.4114952
  43.4603271  57.5195999  53.9717102  44.2660675  58.1272888  52.8436661
  71.1752777  63.1295433  82.8290024  71.7673645  62.3992195  82.6492996
  71.7222519  63.9096222  82.7366409  33.3454208   3.2579443  56.5245476
  33.6637344   3.2090743  57.4259491  32.3922348   3.2837548  56.6082115
  53.7912178  67.6933289  61.9639206  53.5155830  68.0818253  62.7941818
  54.6682816  67.3520660  62.1386452  57.7024193  53.2561646  70.5047913
  56.9066925  52.7450218  70.3571930  58.3085670  52.6416054  70.9184723
  81.5008316  34.4385071  12.0748005  81.9144897  33.5786362  11.9990387
  81.3390045  34.5446854  13.0122271  57.7172050   5.5199151  32.7944336
  57.6812630   5.8391819  31.8927631  58.2604485   6.1603122  33.2537956
  13.4770117  46.9918480  31.2938728  13.9629526  46.3654900  31.8303127
  13.2204504  47.6823311  31.9051323   5.6751761  46.0359879  31.4330139
   5.6497288  46.2257576  32.3708687   4.7775931  45.7848854  31.2150154
  22.0395355  61.4774818  27.8936539  21.7793751  61.6451912  26.9878826
  21.4048386  61.9644661  28.4192352  84.6282349  48.6281281  89.2396011
  85.3722534  48.0916595  88.9659729  83.9964142  48.5434151  88.5255585
  54.1802940  44.3094788  51.8564720  53.8191643  43.4250221  51.7969055
  53.9854546  44.7054520  51.0070763  48.8303299  11.9502983  43.2698135
  48.1062965  12.5400991  43.0597191  48.8668480  11.9471321  44.2263107
  86.3054276  64.0778885  33.0893593  86.7591934  63.8361549  32.2819633
  86.3332214  63.2858086  33.6260834  62.4490738  49.2474136  47.2703590
  62.8756485  49.1146393  46.4238129  63.1435699  49.1049194  47.9134827
   6.8450880   4.4761004  52.5147858   7.5505857   4.0484557  53.0001984
   6.7150478   5.3100843  52.9662170  53.7794609  24.4869175  84.6234055
  53.1951637  25.1465588  84.2496414  53.2656555  24.0792828  85.3205948
  14.2958946  55.9473648  51.3956985  13.9796600  56.8397942  51.2550087
  14.3921051  55.8742523  52.3452377  60.3451614  70.2641068  12.8866339
  60.5433922  69.4128952  13.2769880  60.2327690  70.8504028  13.6348724
  26.8712502  59.6691895  75.1286240  27.6871910  59.4337120  74.6870041
  27.1244297  60.3490906  75.7530136  67.2499542  62.1068382  55.4730911
  67.7421722  61.3846283  55.0827484  67.9214630  62.6979485  55.8135185
  71.2692490  30.2755470  27.8262672  71.1210632  31.0774364  27.3250217
  71.6835251  30.5726185  28.6364250  82.2207184  64.1155014  45.3608856
  81.9852524  63.4224739  45.9777336  82.2990952  64.9012375  45.9019089
  44.0129128  64.2213821  24.8279076  44.8292122  64.1593704  25.3239326
  43.9694176  65.1368332  24.5517235  24.3515568  43.7093658  14.5653820
  24.2187977  44.3730507  13.8885326  23.8892612  44.0516930  15.3304472
  52.5950432  25.9379234  21.0820770  52.4931030  25.6342163  20.1800785
  53.0526390  25.2233906  21.5251160  70.4079056  56.4237328  18.1475048
  70.5565567  57.3158188  18.4610615  71.1283112  55.9156189  18.5204163
  48.7449608  10.7731962  29.6740704  49.1877327  10.6186724  30.5085201
  47.8692474  10.4064903  29.7960854  50.1065636  64.9639587  24.2699051
  50.3369026  65.3398972  25.1195221  50.0707436  65.7149506  23.6774826
  55.9372482  34.5237541  81.9572983  55.8401489  33.6736298  82.3863602
  56.2078667  34.3116608  81.0639801  44.4536591  67.9458466  51.0892372
  43.6774025  68.3931656  50.7522469  45.1738396  68.5518265  50.9150009
  69.1509399  25.8130684  37.4723549  68.9834061  24.9641647  37.0630569
  68.3545227  26.0008430  37.9690285  32.2115135  42.8264122   2.4391201
  31.3308372  42.8077049   2.8136744  32.6925240  43.4449577   2.9889042
  80.5281372  38.7061310  56.6168251  79.6776047  38.8514137  56.2024384
  80.8647690  39.5857735  56.7875328  49.3903275  38.3958092  77.7713242
  49.8137856  39.2160110  77.5179749  49.8261032  37.7278214  77.2420654
  33.9820137  68.8401566  60.0012703  33.9045448  69.7190170  59.6300049
  33.1231041  68.4428635  59.8575325  30.1808052  63.7813988  19.8238354
  29.5120239  63.2138977  19.4405479  30.4313526  64.3706589  19.1123409
  49.3098717  63.4707870  72.7775879  49.4269142  62.5588799  73.0439682
  48.6754112  63.4317093  72.0619354  31.3954906   9.7793484  55.5062141
  32.3053017   9.9880524  55.7181625  31.3424664   8.8272676  55.5896568
  81.8257980   0.5365441  42.7273331  82.2968369   1.1411287  43.3007660
  80.9068146   0.6384552  42.9749718  61.2856789  48.1016579  80.0226440
  60.4588470  48.3851891  79.6325302  61.4752312  48.7623825  80.6887817
  66.6395874  26.9121914  38.0393257  65.8003769  27.1259060  37.6315460
  66.8046112  27.6373272  38.6419678  47.2638969  53.7879601   1.9929576
  47.0811424  52.8572884   1.8637881  47.7424965  54.0494919   1.2063349
   8.7814283  52.8928146  56.3346329   9.4436913  53.0243378  55.6561508
   8.4104605  52.0313835  56.1434441  63.5021896  69.8038406  29.0440140
  63.1920319  70.6247711  28.6617775  64.2490158  70.0589371  29.5856838
  50.5208588  32.0411835  25.4816933  49.8085556  31.4035168  25.4343567
  50.3147354  32.5739479  26.2497463  28.8665066  64.7920990  63.9941444
  28.5500565  65.4816971  64.5777054  28.0873413  64.5050354  63.5179863
  11.5007801  65.0598602  39.7576294  11.4720030  64.5447845  38.9513359
  10.7240648  65.6175232  39.7134476  53.1162872  22.0741348  36.6341743
  53.2198334  22.0955620  37.5855141  52.2873650  21.6165409  36.4937134
   2.7667942  55.7344398  47.4766655   2.2834027  55.4300842  46.7085953
   2.3587933  56.5709076  47.7004738  33.3647003  70.8289108  38.3657074
  33.7244682  71.3190155  37.6263847  33.1816597  69.9592285  38.0102081
  25.8429356   8.6505814  46.5374031  26.6907940   8.8549299  46.9318771
  25.5527115   9.4772072  46.1517982  31.7422352  59.1928673   3.5223987
  32.0079765  58.3282509   3.2092619  31.7450371  59.1134186   4.4762917
  46.9343834  60.1212997   7.0921497  47.0435638  61.0720749   7.0737743
  46.9401512  59.8617020   6.1708426  72.7251129  14.9607782   4.8158789
  73.1074142  15.4388542   4.0799985  71.8311844  15.2967138   4.8812613
   3.6846013  56.2890511  80.5716705   3.9495146  55.3807564  80.4265747
   2.9002819  56.3985939  80.0340118   1.5403090  50.5459785  21.9339848
   0.6165435  50.4840240  22.1769886   1.7971381  49.6451225  21.7371864
  27.5871391  49.2546616  46.0920906  27.7137909  48.6635590  46.8342400
  27.6073608  48.6831322  45.3245125   8.7836180  52.2790833  71.1669846
   8.3793459  51.5553207  71.6454849   9.1933670  51.8648682  70.4075317
   8.6440687  44.1278076  39.1878967   8.7605267  43.2615814  38.7976151
   7.7963090  44.0794373  39.6297073  50.0002403  18.4588928  19.6618938
  49.9326973  18.4833355  18.7073917  49.1279793  18.1976662  19.9571152
  68.5866928   0.3190549  78.3218231  67.7398300   0.5421535  77.9354477
  68.7000122  -0.6117245  78.1293640  25.8636017  34.1847534  19.6671333
  25.2067165  34.1285553  18.9731789  25.4281483  34.6659660  20.3707275
   6.7014179  12.3119125  75.2222061   6.3865280  12.7779884  74.4477005
   5.9054446  12.0622454  75.6915894  51.7748032   3.2113121  43.1855431
  52.2536201   3.5545177  43.9399796  52.1297760   3.6919353  42.4377251
  86.1796036  14.6157856  21.0327396  86.2729645  14.3872671  20.1079178
  85.2636032  14.4255486  21.2351723  42.0658417  27.8584633  75.4577332
  42.7405090  28.4883022  75.2040482  42.5344849  27.0286942  75.5476837
  36.6554413  56.1645660   1.5705314  36.3712311  55.2536583   1.6460834
  37.5839119  56.1078377   1.3447930  59.2778702  36.5732536  58.7609596
  59.0474281  37.1273460  58.0152283  59.9277878  37.0820999  59.2456360
  36.4994621  45.4921188  72.7118835  36.2501869  45.3227921  71.8033524
  35.7125244  45.8631668  73.1109848  15.3376808  52.4578094  88.5467987
  15.8474951  53.0271759  87.9704819  15.9613819  51.7935867  88.8401184
  62.4032555  18.1270428  14.2702036  62.8039436  17.7980156  13.4655800
  63.1136055  18.1200123  14.9117508  31.4076996   6.8294606  15.4654570
  30.9264011   6.2050719  16.0083389  30.9382496   6.8332286  14.6312904
  17.7184849  27.0007133  78.0191040  18.1564274  27.1353931  77.1786804
  16.7852974  27.0035419  77.8060608  75.0742188  13.3042736  74.1769409
  74.9890366  14.1079245  74.6898880  74.9728699  13.5881348  73.2684326
  22.0812206  47.2673454   6.1182637  21.6779060  48.1136971   6.3112893
  21.3462029  46.6555443   6.0773039  11.1030569  27.0796394  77.9334030
  11.6233549  27.5549374  78.5811768  11.6341133  26.3138485  77.7148285
  79.0602112  23.0417175  54.3233948  78.4096375  23.2930508  53.6677818
  79.7890244  23.6457977  54.1814499  42.2884064  46.3102264  56.2311134
  41.9596367  46.2184944  55.3368378  41.8222275  47.0695076  56.5809784
  51.1908646  50.7613869  86.8539276  51.8051605  50.9424057  87.5653381
  51.7138329  50.3018112  86.1970291  15.0163488  55.4150352  22.6559525
  15.3927984  56.2844238  22.5192738  15.6941967  54.9321556  23.1287956
  55.1513443  22.0471840  63.3088417  54.8117981  21.6017971  62.5325890
  55.2310982  22.9634323  63.0435867  63.6338081  26.0366974  58.9517632
  64.0373383  26.4336929  59.7236366  64.3357849  25.5234261  58.5517426
  77.2107162  42.0819588  62.5361595  77.6356201  42.8931007  62.8149757
  77.1215515  42.1721497  61.5873985   1.7864403  65.5347595  87.6001434
   2.5063565  65.2518539  87.0363007   2.0252318  65.2171783  88.4709778
  82.0891800   7.9768562  73.7837601  81.3882751   7.3942642  73.4912720
  82.8584976   7.6925917  73.2902298   6.0874000  57.3640747  58.1424446
   6.5516982  56.5623131  58.3829460   6.6296701  57.7592850  57.4598160
  57.1194267  33.7431831  79.4770584  57.4271317  34.1952019  78.6914215
  57.5910339  32.9102325  79.4743423   6.2813716  10.8102188  46.7874451
   6.0497699  10.3070469  47.5680923   7.0113950  11.3628483  47.0665474
  49.7145576  46.7088928  62.9073715  49.5643272  45.7774200  63.0686951
  50.0878220  46.7422714  62.0265808  85.7507706  23.4914951  67.7616196
  85.8177032  24.3507233  67.3451157  85.4073486  22.9189358  67.0757141
  80.9846954  37.2637291  12.6192999  81.4969406  36.4834900  12.4070177
  80.0823212  36.9495811  12.6764584   0.2309977  12.6369162  31.3874874
   1.0925735  12.8686495  31.7342129   0.0160752  11.8076677  31.8145561
  27.4398975  68.2340698  33.2800140  26.7451210  67.5793152  33.3493462
  27.5586910  68.5529022  34.1747017  73.1800690  50.9174728  35.7775764
  73.3012772  51.5791969  36.4585037  74.0451050  50.5215912  35.6716232
  56.7702713  32.7704430  31.8702946  56.8203316  32.5171661  32.7920189
  56.0529404  33.4031982  31.8343964  56.4787560  55.9069252  64.5767441
  56.3491096  55.2195244  65.2301178  55.7881927  55.7569923  63.9310875
  73.7318344  28.6554222  39.6808014  74.6212921  28.7729187  40.0143967
  73.8465271  28.4957199  38.7440109  25.7186146  19.7710896  44.2601662
  26.1495953  20.0127888  43.4403687  25.2706547  18.9487495  44.0618744
  53.6247635  52.8037186  62.7026291  54.4259796  52.3362885  62.4664268
  53.0746651  52.7460289  61.9214134  43.8083496  56.4786186  19.5757351
  44.0417862  56.1992149  18.6904793  42.9832497  56.9516907  19.4678288
  46.8213959  59.0996513  69.0426331  46.1518326  59.3650360  68.4121628
  46.6963539  58.1558456  69.1417847  45.6982841  48.8195419  18.9893017
  46.6333275  48.8333778  19.1935883  45.4260063  47.9207001  19.1741772
  76.5314713  49.2995720  71.7007217  75.9820328  48.8173943  72.3186646
  75.9651184  49.9969177  71.3702850  22.9601517   5.4562159  69.1925049
  23.4268742   5.3941002  70.0258942  22.8269920   6.3950763  69.0619583
  69.2597504  23.9532871  20.0977345  69.6632462  23.1679707  20.4674644
  69.8234787  24.1877918  19.3605423  72.4571533   9.3022776  25.0250912
  72.2683487   8.3684902  24.9322033  71.9364853   9.5780239  25.7794819
  71.7045822  58.6654282  42.3493156  71.4348297  59.1676331  43.1182480
  71.1473312  58.9915504  41.6426697  28.7072182  57.0494232  24.1819286
  28.5042706  56.2443352  24.6582413  29.0727501  56.7496262  23.3496170
  28.6521015  15.3109026  13.4481516  29.3439217  14.8950405  13.9626188
  28.7616425  14.9540281  12.5667477  59.7259865  20.3507710  59.5838127
  59.6827393  21.1816864  60.0570374  58.9735718  20.3724556  58.9925156
  29.9049377  59.6506691  43.1311073  29.0201683  59.9172935  43.3807526
  29.9844055  59.9131813  42.2140427  15.6862936   3.3616061  63.7714767
  16.4047222   2.7419574  63.6444855  16.0156422   3.9797304  64.4239197
  77.8477325  27.1951523  54.8517532  77.5347672  26.4153271  55.3101807
  77.7338715  26.9893856  53.9238930  13.1881294  51.0132561   0.3694915
  12.7110815  51.8214188   0.5579842  14.0295744  51.3075905   0.0208218
  11.6226816  55.5781593  78.3729782  11.8193417  54.8015404  78.8968353
  10.7719898  55.8755798  78.6956177  73.7669830  26.5693779  85.6125259
  73.7498627  27.0842476  84.8057785  73.0481873  25.9450645  85.5135269
  20.1473293   6.1739478  50.0284348  19.4317665   6.2930980  49.4039307
  19.9533958   5.3412843  50.4588928  75.7294388  44.6973305  50.1579552
  76.1510696  45.4488220  49.7411575  76.0481186  44.7139740  51.0603943
  38.4157028   6.1408143  65.0322723  38.2597580   5.4388032  65.6640167
  37.5831070   6.6107965  64.9861069  56.3961639  27.9777260  13.3736553
  56.1842041  27.1421852  13.7897968  55.8504181  28.6179676  13.8302574
  50.6796570   6.4946294  77.5400009  51.1836700   6.0067739  78.1913147
  49.9219131   6.8255367  78.0222473  26.2109394  52.5898132  64.4568787
  26.4041920  51.8388062  63.8957367  25.3424320  52.8799400  64.1780396
  26.5941772  11.1351833  56.2891808  27.4966736  11.1321468  56.6081200
  26.2731094  10.2518473  56.4704704  67.2624359   7.4386392   3.4593937
  67.2639008   8.0508232   4.1952333  66.6210251   6.7715883   3.7040601
  43.7287254  67.8379593  39.5598183  43.9833832  68.1949387  38.7089653
  43.5857506  66.9058838  39.3954239  62.5112000   2.0060449  41.3559456
  62.4059448   2.1495545  40.4154358  61.9764900   1.2341726  41.5417709
   9.5358315   3.2670810  40.9876366  10.2688637   3.7907159  40.6640587
   9.2602139   3.7107635  41.7897682  51.9836731  53.3702126  29.9963493
  51.7226524  53.1358566  30.8869553  51.9377556  52.5476341  29.5090199
  55.4938889  15.2252779  63.5347633  55.5735359  15.9246635  62.8861122
  54.5510750  15.0831404  63.6191864  14.9362717  52.2866440  28.1980686
  14.0615368  52.1315117  27.8416939  15.5173597  51.7696571  27.6401329
  64.2582779  40.8998070  87.8688583  64.4780655  40.9711380  86.9399643
  63.3329735  40.6549416  87.8779221   0.3990403  19.5490856  21.7273846
   0.4798889  18.6299992  21.9822826   1.2952390  19.8843784  21.7526703
  71.6566849   2.6756489  48.5274811  70.7160110   2.8525844  48.5353241
  72.0608215   3.5341158  48.4012413  38.1882706  63.6486206  54.3984032
  37.4565048  63.2445068  53.9320946  38.1248512  63.3032684  55.2888756
  77.1147842  67.1968231  58.2693062  77.0657120  66.4891281  57.6266594
  76.4404831  67.8177948  57.9937210  49.2654152  24.3399658  60.7775383
  49.2701607  23.5594158  60.2235069  49.1999741  25.0701389  60.1620712
  42.1504974  26.4210911  71.6540985  42.1340942  25.7142849  72.2993851
  42.8699074  26.9860935  71.9359741  18.7902584  21.8546124   4.7052402
  18.4929256  22.6482029   4.2602243  18.5923538  21.1473408   4.0913734
   8.2973242  10.2100925   8.9289789   7.4382582  10.5607786   9.1640472
   8.2473707  10.0675554   7.9837704  46.7623253   2.1176817  69.6606216
  47.1511917   2.9877756  69.7497940  45.8592720   2.2854016  69.3911896
  44.1293945  27.9498653   6.6076069  44.0329971  27.7982750   5.6674156
  43.7838135  27.1555882   7.0149484  47.1975861  40.4098282   4.8242373
  47.9524269  40.6902809   4.3067484  46.4441948  40.7960739   4.3776450
  79.6321564  15.9444094  70.4861984  78.9364014  15.8766918  71.1400909
  80.3976517  16.2375813  70.9804535  15.7517300  51.6993752   6.5677586
  16.2943344  50.9198418   6.6866732  15.3086166  51.5574341   5.7312565
  45.9804115  54.5476036  29.0643902  46.4211731  55.2811699  29.4931583
  45.2252312  54.9432144  28.6291599  72.9801559  55.4780807  10.7960634
  73.5657501  56.0740662  10.3290377  73.1345901  55.6669693  11.7216463
  67.3517303  33.9389000  56.9603729  67.0091171  34.5504837  56.3085938
  66.6693115  33.2731895  57.0461807  70.8817596  26.0210991  33.0897980
  70.2955246  25.3432922  33.4261475  70.6040497  26.8210258  33.5361443
  43.2799454  21.3109875   3.0402257  43.8995857  21.3281231   3.7695982
  43.0542145  22.2299538   2.8960791  35.6929932   1.8645372  25.9544525
  34.9388504   2.1944013  25.4658947  35.4762230   0.9511920  26.1416512
  34.3692169  52.5643425  33.5478592  33.6407356  53.1477280  33.3352432
  33.9509010  51.7701645  33.8803139   5.0082140   1.4196211  14.4986992
   4.8049102   0.6466240  15.0253630   4.2831912   2.0215125  14.6669273
  43.3252449   2.0320861  37.0641937  42.9019012   2.7956674  37.4565620
  42.6034470   1.4394066  36.8545074  66.8072205  45.5413132  79.0873947
  66.8689880  46.4621315  78.8333969  67.0018005  45.0578270  78.2845154
   5.0759850   9.1378727  72.9903641   5.1982455   9.0328140  72.0468369
   5.9630055   9.1238289  73.3498535  81.3366241  51.9390335  12.2028580
  80.6844406  51.5648499  12.7952032  81.4162521  52.8517532  12.4800558
  67.7974472  13.3303385  57.7676315  68.0736618  12.5967703  58.3170090
  67.5511780  14.0155039  58.3890266  62.6322670  61.3892479  62.1521378
  62.2962914  60.5194321  61.9358788  62.3944855  61.5163193  63.0705872
  68.3310852  63.5968513  62.0688210  67.6676407  64.2868118  62.0643845
  68.2378845  63.1804619  62.9256554  11.7960520  19.4678154  28.7797203
  11.3138599  18.9170094  29.3964348  11.2763052  20.2691898  28.7173309
  35.2195053  53.1051979   8.0430174  36.0441017  52.8959236   8.4817419
  34.6029701  52.4479523   8.3657370  53.4034882  25.6126556  13.1142330
  52.8067589  26.2174034  12.6732950  53.0325546  25.5062275  13.9901972
  52.5898743  59.3108368  78.8650208  52.2147598  58.7314377  78.2018280
  52.4952393  58.8279953  79.6860809  66.8648453  10.8174114   3.3104410
  66.4791565  11.6182251   3.6656525  67.7389908  11.0800257   3.0221090
  60.8674736  51.1773949  77.1685028  61.6742668  50.6662521  77.2321091
  60.8795624  51.7412529  77.9419022  48.5327339  15.4595480   5.3940148
  48.7874107  14.7476835   5.9810596  48.8794174  16.2487831   5.8101282
  16.5336494  69.8843918  26.4378910  16.3360310  70.4021072  27.2183685
  15.9559031  70.2394485  25.7623367  10.3300428  34.5151291  57.6769180
  10.1744299  33.6276627  57.3537827  10.9382820  34.8971825  57.0442162
  71.9872971  53.2849236   9.5984993  71.3101883  52.9724121  10.1985769
  72.0999756  54.2082253   9.8244314  79.2207718  35.7482796  20.4358368
  79.2184601  35.8053970  19.4803448  78.6143646  35.0348396  20.6345940
  60.7587128  68.4624557  52.0990982  61.7115135  68.3860245  52.0484810
  60.4521065  67.5631027  52.2148438  63.7824135  23.0685806  61.6955070
  63.7789841  22.8888683  62.6356812  63.6510391  24.0145950  61.6320076
  56.7842216  39.4860153  13.0306683  55.9472313  39.2782936  13.4460344
  57.1707497  40.1571159  13.5932102  81.2567749  65.1064987  56.9671478
  80.7264404  65.9025269  56.9307709  81.4542007  64.9925079  57.8968010
  39.6358948  31.9788723  77.0461426  39.5832253  32.8916283  76.7627106
  38.8186798  31.5855083  76.7401123  47.5341263  61.6357002  55.4892006
  47.8990288  61.2119827  56.2660789  47.2251320  60.9118385  54.9444275
  77.7410355  52.0287170  65.2628479  77.1765671  52.6409874  64.7908936
  77.9283371  52.4668655  66.0930099  32.4243736  63.4751816  51.3729362
  31.7402248  63.1233788  50.8033676  32.5777893  64.3609314  51.0440750
  37.2235451  51.0346375  59.8391762  37.7250023  50.2385254  59.6631699
  37.6018448  51.3823471  60.6467781   9.0888491  65.6326752  54.0892982
   8.7959347  64.9987259  54.7439346   9.8327465  66.0739746  54.4992981
  76.7978745  14.7012548   1.2324519  77.5304947  14.1717300   1.5472567
  76.0203247  14.1855974   1.4463426  54.3934250  69.6785431  82.9417725
  54.4529152  68.8962784  82.3933563  54.9900970  69.5063400  83.6701736
  56.2358742  21.7488518  55.5747299  56.1711731  20.9054852  55.1266479
  56.7626343  22.2918530  54.9882927  73.9743576  21.2515602  49.8479500
  73.4855270  21.0293961  49.0555382  73.8494263  22.1950912  49.9498024
  58.6931229  51.1423378  19.0227356  59.2077141  51.8097687  19.4765663
  57.9811745  50.9359589  19.6283493   3.9538646  69.9635620  52.6210861
   4.1535320  69.0607300  52.3735695   3.0091641  69.9663010  52.7752457
  51.8978729  20.9233150   4.9905062  51.3568001  20.2627258   4.5579591
  52.7702484  20.8010387   4.6160178  15.9405708  48.6971474   1.6926951
  15.6995764  49.5848999   1.9573635  15.1048994  48.2396240   1.6001886
   4.9701791  33.0540886  50.8256798   5.3762331  33.8647804  50.5188751
   4.2777591  32.8771248  50.1889153   4.0620513  39.3417625  60.9033051
   3.6675661  39.9581604  60.2863235   3.5236831  38.5535660  60.8316536
  54.9037056   6.5255160   6.9626446  55.3712196   5.6947250   7.0489621
  55.3254700   7.1047540   7.5973330  25.5391121   2.0337422  79.2155762
  25.2596722   2.1524148  78.3078003  24.7700863   2.2674267  79.7354050
  12.4232779  32.7507706  70.9914703  12.6158857  32.3478737  71.8381195
  13.0563154  32.3586082  70.3900528  18.5298176   2.3506708  69.8302536
  17.9261684   1.9031482  70.4231873  19.0293751   1.6449801  69.4195557
   5.1715484  69.5219345  57.7524338   5.7716460  69.7279663  57.0357285
   4.5089555  68.9568558  57.3550758  74.7186813   1.7974403  75.4496384
  75.4265823   2.3830013  75.7183914  74.4552765   1.3542125  76.2561188
  62.9571953  54.5882568  64.2163010  63.4125977  55.1547585  63.5934715
  63.1748199  53.6995277  63.9351616  69.6975708  46.7979584  32.6934738
  70.2276764  46.6133308  33.4688034  70.1754684  46.3868942  31.9731464
  49.6077385  10.5942297  80.4717560  49.3568840  11.4746265  80.7514114
  49.8755722  10.7000980  79.5589142  38.4813042  71.1477966  16.7903385
  38.7570114  70.2347946  16.7087841  38.3791428  71.4487076  15.8874264
  57.8585396  40.9130020  15.3326702  58.6213608  40.7356911  14.7823114
  58.0091820  40.3965874  16.1244106  29.0776825  56.7194405   6.8345861
  29.4644470  57.2961769   7.4933858  29.4177055  57.0456467   6.0013962
  16.5247498  23.0015011  23.8715229  16.3587570  23.7422066  24.4546471
  17.0081654  22.3757000  24.4108868  21.5607529  43.5119591   5.4709225
  20.9458408  42.7804527   5.5258474  22.2252064  43.2199593   4.8468466
  25.2282085  36.5807495  81.0538864  25.9696121  37.1840973  81.1040955
  24.4901810  37.1297150  80.7889633  80.7517929   6.0210571   1.7001514
  80.7768173   5.6256862   0.8287803  80.8150024   5.2791734   2.3016877
  29.7329617  28.8140659  64.1303482  29.9091167  27.8734169  64.1108932
  28.8553295  28.9011326  63.7583122   8.1022463  21.2564030   5.8854322
   8.6038198  20.4601116   5.7105694   7.4383469  21.2774830   5.1962113
   8.9005127  26.7690296  58.9401360   9.2555370  26.1765327  59.6028099
   8.6745272  27.5628166  59.4249687  45.4208832  49.0162010  16.3093281
  45.5026360  48.0788498  16.4851685  45.5088577  49.4295692  17.1681728
  42.8958130  55.7182274  47.1675262  43.4711533  56.4178009  47.4770622
  43.4742889  54.9636459  47.0570526  24.0838375   8.8476276  62.4906960
  24.4735985   9.2532482  63.2651596  24.6148319   8.0662460  62.3366852
  10.3905706  37.7731972   6.2945418   9.6988039  37.2428474   5.8990436
  10.0642405  38.6714287   6.2405000  74.0936203  13.1790733  21.0800858
  73.3895416  12.5387411  20.9777069  74.7957535  12.8552923  20.5158138
  27.8194695  34.5334892  51.9051361  28.2887001  34.3249130  51.0973282
  26.9020920  34.3488655  51.7037354   0.5548243  16.5174122  16.7257137
   0.7872010  17.2021332  17.3529224   1.3517685  16.3815842  16.2132072
  21.4515553  71.3840942   4.4381905  20.9804363  70.6306458   4.0823903
  22.2947559  71.0285492   4.7189608  54.0137215  61.7961311  30.7733250
  53.6384850  62.4220467  31.3927250  54.4462280  61.1438179  31.3243809
  56.1176414  61.1194382  42.6734047  55.9171524  60.3182335  43.1572495
  55.3183708  61.6425514  42.7346153  85.3759995   1.3592244  12.9265575
  85.7004013   0.7355455  13.5761852  84.5268173   1.6401771  13.2674341
   2.2127533  28.6337128  15.8451023   2.9979212  29.0414047  15.4796848
   2.5286856  27.8260956  16.2502861  70.0904922  55.7770805   9.5153065
  69.2515259  55.6141891   9.0842199  69.8833237  55.7783928  10.4498177
  33.8090553  66.6445694   5.0407109  33.9426422  67.1367493   5.8507357
  33.4982643  67.2966766   4.4127030  73.2594604  43.1203728  51.1695328
  74.2002792  43.0154495  51.0278206  73.0924530  42.6813736  52.0035706
  74.0768051   8.3252535  10.4331408  73.8720932   8.9715223   9.7573719
  73.5870819   8.6187449  11.2014294  61.1235733  59.2113647  61.5056076
  60.9972610  58.7951050  62.3582535  61.5525551  58.5414543  60.9732285
  83.8835602   2.9163601  24.9289856  84.3006058   3.7662671  24.7876987
  83.5207596   2.9716022  25.8130398   1.2311745  62.6776161  24.8223839
   1.0792959  61.7977562  24.4774055   2.1812453  62.7342110  24.9243374
   7.8572617   9.7900295  74.0871429   8.5451088   9.3186741  73.6171188
   7.9561729  10.6999922  73.8071136  43.6283836  15.8615665   2.9392498
  43.5326653  15.1476564   2.3088520  44.5739250  15.9913120   3.0124190
  40.7030830  35.6341896  69.3154449  40.8484344  36.1730576  68.5377960
  41.4026718  35.8884811  69.9172287  46.9609833  44.6274338   4.6567001
  46.5258598  45.4441833   4.9012961  46.5252113  43.9570045   5.1828742
  56.1613884  48.3906708  85.3123093  56.6533623  47.7337608  85.8049164
  56.4062195  49.2242813  85.7140350  27.1113548  25.0035286  42.4093094
  27.7395840  25.1514702  41.7024307  27.2342701  24.0854683  42.6507339
  85.1433563  14.3890591  12.1127224  84.2536469  14.1610403  12.3822803
  85.5238571  14.8167486  12.8798819  70.9822617  45.2369080  50.6891670
  71.5419769  44.8432198  51.3584633  70.4035873  45.8238792  51.1758194
  68.6782990  28.4013901  65.0745239  68.7371750  27.7920055  65.8103333
  69.5757446  28.4713554  64.7490768   4.9999204  65.3156433  15.1669159
   4.3234358  65.6595917  15.7502680   4.8206158  65.7288818  14.3223343
  61.4066353  68.6887589  72.3660812  61.7660675  69.4229279  72.8641052
  60.7221107  68.3289566  72.9301758  75.4764481  57.8926163  75.4280853
  74.7966080  57.9022675  74.7543259  75.5586472  58.8071327  75.6985092
   5.5020552  22.7573318  70.1362000   5.1584492  23.6050377  69.8541412
   5.1808147  22.6547489  71.0320358  12.9560165  30.8068542  66.9924850
  13.2401152  30.9735546  66.0937500  12.8461723  29.8570061  67.0366745
  40.3178635  67.2481918  48.2379417  40.9215698  66.5744095  48.5506439
  40.2115021  67.0603638  47.3053970   9.7093897  65.7065201   9.8241873
  10.0709152  65.2113495  10.5592623   9.5164337  66.5701828  10.1889935
  86.1440048   6.3484931  51.6434517  86.1028671   7.0172648  52.3270340
  86.9100571   5.8211894  51.8700485  31.5179348  36.0229759  89.1885529
  32.4503250  35.8324661  89.2914352  31.3848133  36.0634346  88.2415237
  20.8625507  28.3395481  67.4056778  20.4132462  28.2823105  66.5624237
  21.2202778  29.2271423  67.4267044  45.1414299  18.8794994   1.9289179
  44.4551239  18.4675636   2.4538207  45.9034843  18.9038448   2.5076361
  79.5931320  29.9983330  19.8904591  79.2259445  29.1203194  19.7880039
  79.3743134  30.4463062  19.0733471  76.7009048  18.9541054  17.6772423
  76.6754074  17.9979954  17.6393890  77.2377853  19.1491661  18.4453201
  60.1775398  12.4002590  49.3945007  59.3137169  12.1464968  49.7195358
  60.0439301  12.5623779  48.4606400  23.3743439  56.6362953  19.2849464
  22.4185104  56.5868835  19.2717934  23.5681114  57.5638504  19.1495609
  31.6549072  62.5877457   6.4287643  31.2119198  62.8709869   5.6289086
  32.5202942  62.9938927   6.3799334  10.7002802   0.8908200  18.4984303
  11.5834980   1.1192091  18.2086086  10.3833055   0.2747150  17.8379955
  28.1657352  38.1556244  84.2964096  27.8821907  37.2414627  84.3083267
  29.0288773  38.1333084  83.8832321  40.6212921  34.5388260  88.6051178
  40.0930405  33.7459145  88.6971741  41.4384842  34.3364105  89.0605927
  38.0950699  64.6668320  46.6377678  38.7927971  65.2670593  46.3748245
  38.4925728  63.7979279  46.5809860  79.1804428  13.2064486  54.4658089
  78.2315292  13.2449207  54.5854225  79.3074646  13.3117208  53.5229340
  58.6240082  13.2341700  77.6946106  58.9390106  12.3448391  77.5330658
  57.7008514  13.2107410  77.4426880  69.3892670  11.6910429  79.0727921
  69.3158569  10.7919865  78.7525711  68.5048065  11.9152031  79.3621368
  47.0038452  60.0563622  31.1411076  47.8867035  60.2382736  31.4631386
  47.0431633  60.2596359  30.2065678  61.2187157  39.3858070  53.9330330
  61.2986641  38.9097404  53.1064720  61.7752190  38.9016685  54.5430717
  41.8386765  68.0950623  28.0592823  41.4400063  68.4919281  27.2848225
  41.3645630  68.4797287  28.7964916  70.9302216  15.0455265  14.0757303
  71.2587204  15.7741375  13.5489941  70.1452332  15.3916731  14.5002375
  20.4029865  23.9131393  68.2827606  20.4688663  24.8332214  68.5383759
  20.0942402  23.4669895  69.0713425  70.9558640  36.2327614  59.5836945
  70.6523895  35.4484253  59.1265755  71.3600693  36.7670898  58.9000664
  38.7885017  60.9323540  61.3467369  38.0495224  61.2073441  60.8040352
  38.6329575  60.0020180  61.5095711  12.5194616  27.5549564  82.6333771
  12.8058004  27.4506550  83.5407715  13.0497618  28.2770691  82.2963791
  86.5686646  44.6588478  69.1648331  86.6147995  45.0925140  70.0169144
  86.1285706  45.2918053  68.5974579  14.6596212  42.8750954  82.4305191
  13.7892256  43.0694923  82.0828857  14.5128469  42.7013016  83.3602982
  18.0746098  10.0334682  59.9476624  18.6092262  10.6764746  60.4134521
  17.1824932  10.1970234  60.2536201  62.4253006  21.8528118  12.6509657
  62.0705261  22.4917603  13.2691193  61.6650887  21.3432751  12.3704615
   1.5422128  62.7759132  84.6003113   1.9309390  63.6416550  84.7252884
   2.2386692  62.2563477  84.1987762  21.3556824   5.1862392  61.4363480
  21.1877728   4.5961037  60.7016525  22.1075649   4.8007932  61.8861656
  48.9201050  44.4587708  15.3353786  48.5860863  43.6049843  15.6105394
  49.7828865  44.2706985  14.9659643   8.7438965  70.2307434  88.0499573
   8.2824125  70.4610977  87.2436066   8.3403406  69.4093933  88.3305969
  65.4501801  23.1199417  36.0759659  65.3461304  22.2904892  36.5422401
  65.1904984  22.9229832  35.1759644  72.4413452  32.0043945  85.2167358
  73.3752823  31.9546967  85.0129623  72.0058517  31.7033920  84.4192505
  30.0392551  64.1701355  13.4564571  29.8919525  63.3768196  13.9714165
  30.7063332  63.9202385  12.8170919  12.2364197  14.3877573  58.5176086
  12.0622025  13.9937763  59.3723946  13.1018581  14.7862682  58.6094666
  62.3430595   6.4825697  51.3798637  63.2578049   6.7585363  51.4374809
  62.1728706   6.4120517  50.4405594  66.3844910  40.5063286  24.3116856
  65.4713058  40.7911224  24.2766418  66.6508102  40.4424210  23.3945045
  78.8126526  53.8650742  52.4974556  78.0741959  54.3543091  52.1347389
  78.8572922  54.1422920  53.4125443  58.1989975  27.6463261  32.3826141
  58.5419121  26.8532429  32.7945137  57.3975754  27.8411789  32.8683968
   1.8621616  68.9330368  17.3292599   1.3095207  68.9495163  18.1106358
   2.4815049  69.6512833  17.4587460  76.6904373  49.2258759  75.9588318
  76.1380920  48.4552383  76.0902252  77.0469971  49.4157715  76.8266068
  21.4788666  37.3846703  86.7332153  21.9189224  38.0563164  87.2542496
  22.1499462  36.7183113  86.5854034  12.9133329  68.8365555  24.3848591
  13.0408850  67.8885956  24.3483009  13.7741070  69.1852875  24.6165638
  65.6107712   1.7894368  25.0094643  65.6768951   2.0752096  24.0983143
  65.3628769   0.8665802  24.9536457  83.4542618   8.4363861  44.5819778
  82.5590363   8.6576109  44.3253632  83.3541794   7.7134118  45.2012672
   2.1368532  24.3495159  37.3032227   1.5466864  24.7195511  36.6467133
   2.1783409  23.4173508  37.0897369  14.2928476  48.5993271   5.4573741
  14.0639315  48.1093597   6.2471600  15.2387781  48.7304459   5.5226107
  83.9612045  56.2644272  61.0461082  83.6736221  56.8695946  61.7297020
  83.2023697  56.1765099  60.4693298  39.2015991  57.3062744  17.2252026
  38.7509155  57.6476822  17.9975719  40.0935211  57.1320915  17.5258141
  62.7194176   8.5848579  84.9473419  63.0078583   7.7847991  85.3865891
  63.5195847   9.0978985  84.8344193   0.3767981  61.5563011  47.3483772
  -0.3529474  61.3582039  46.7614708   0.6224935  62.4553032  47.1300735
  18.3296185  14.0433588  69.8076172  18.9485798  13.5091114  70.3053131
  17.7810307  14.4574947  70.4737778  66.3590622  47.0761375  38.0870552
  67.1917572  46.6798058  38.3434944  66.3420792  47.9159241  38.5460777
  18.6492672  65.7002869  43.4247513  18.5473518  65.0258865  42.7531624
  19.5197105  66.0658722  43.2669182  51.9318848  13.1412573  80.5219650
  52.4762650  12.3585968  80.4363861  52.5434265  13.8314877  80.7785339
  17.1428318  48.4233894  30.3635712  16.2153473  48.2389832  30.2152519
  17.5987911  47.9093323  29.6971779   6.6352897  36.3067589  62.8712883
   6.2924800  35.4413338  63.0943527   7.5508046  36.2807198  63.1494713
  46.1309090  57.6083336  20.8175983  45.2701340  57.3484077  21.1458340
  46.0850410  57.4512863  19.8744850  74.1268768   5.3543673  64.9550705
  74.1269608   6.0524883  64.3002014  74.8447495   4.7786636  64.6915283
  30.6928997  58.7627945   8.1304140  31.2126923  59.0613823   7.3841619
  31.0477562  59.2445450   8.8775578  66.9256363  50.3945885  30.8890324
  67.0740585  50.5245323  31.8256836  66.0420227  50.7301178  30.7377377
  59.9469147  29.1367207   2.0226648  59.3417244  29.7475796   1.6021565
  60.2745361  28.5928783   1.3063325   7.6753616  38.2085686  22.0047874
   6.9514666  37.5870476  22.0817223   7.3969913  38.8169212  21.3202076
  51.8145294  13.7766733  74.1699600  51.5780258  14.6907949  74.3270569
  51.5529747  13.6139526  73.2636795  33.2053909  68.4778214  55.7650604
  33.5440407  67.8147049  56.3665810  33.6508102  69.2848892  56.0228729
  47.3353271  51.8957443  35.3043098  47.5191307  50.9742622  35.4868584
  46.3903198  51.9810371  35.4304657  81.0888519  43.7870941   9.5043316
  80.2902069  43.9695854   9.9994049  81.2734985  44.6026497   9.0384941
  53.6424484  50.8820953  67.6197739  53.4163589  51.5782661  68.2365875
  53.4387894  51.2489166  66.7594223  64.3225250  28.8883553   5.4466977
  64.6621628  28.0285263   5.6948404  63.4189682  28.7207851   5.1788626
  15.2886467   3.2431381  41.2095222  15.7344904   3.1727259  42.0536194
  14.4364119   3.6248040  41.4198990   0.4284822  30.2713699   2.7411947
  -0.1411477  30.4410877   3.4914942  -0.1407251  30.3788776   1.9791733
  19.5227604  13.0948582  59.5695724  20.3257580  13.1532679  59.0518723
  19.7528019  12.5272436  60.3051872  85.6590347   4.2694497  59.2432556
  85.9747772   4.6600976  58.4284325  84.7227173   4.4678221  59.2569084
   4.1351032   2.9474664  86.9944611   4.1169477   3.1244662  86.0539474
   4.8971815   2.3813760  87.1169739  74.2545471  19.1333942  87.9353867
  74.9189682  18.4822636  88.1607819  73.4371185  18.7688541  88.2747498
  38.4515114  21.2254257  15.8137732  38.7192230  20.6161613  16.5017834
  39.1515427  21.8776531  15.7857370  68.5567169  26.9846935  67.3100281
  67.8097916  26.4144897  67.4922485  68.6491470  27.5179825  68.0995178
  52.0325623  35.2560005   6.6197762  52.0269508  34.9808731   5.7029858
  52.3588676  34.4929962   7.0968261  70.0905228  57.3964920  60.9646187
  71.0304031  57.4652634  61.1323204  69.9131699  56.4559517  60.9772072
  57.0474129  35.3795929  67.6540146  57.9701080  35.5128555  67.8710632
  56.5707893  35.7466316  68.3985596  13.3405981  26.4054451  24.4024239
  13.5122805  27.2392273  23.9647446  13.2725925  26.6314373  25.3300743
  35.5617638  58.2222900  71.8118515  35.8362274  57.7386818  71.0327301
  36.0949516  59.0171585  71.8005524  79.9032288  64.7068329  68.4524918
  79.8358459  64.1001816  69.1898270  80.8360901  64.7210236  68.2384949
  28.2730408   8.8022127   0.3319826  28.7444267   7.9781342   0.4541318
  27.5753822   8.7784204   0.9869180  79.8885727  21.2780704  29.1165085
  80.7291565  21.7359161  29.1109257  79.5375824  21.4110031  28.2359619
  34.5605431  61.3538475  23.9667320  34.0343781  60.8776932  24.6091156
  34.1907349  62.2367096  23.9613419  82.8325424  36.5509796  54.4829063
  82.5934219  35.9248810  55.1663170  83.6195831  36.1805305  54.0834465
  46.4365273  39.9239807  81.7783737  46.6549835  39.0698357  82.1511230
  45.5655251  40.1202126  82.1234512  12.1889200  63.9106293  27.4291191
  12.8362665  63.5351830  26.8322830  12.6646976  64.5961838  27.8980331
  35.0821114  18.4437122  71.3030701  34.1844406  18.7757339  71.2895966
  34.9978371  17.5373802  71.5991974  75.7441101   3.5149658   2.7558346
  75.1034775   4.1645780   2.4662974  75.3347549   3.0957108   3.5127289
  32.4856300   9.4028673  15.3282022  32.0319939   8.5859871  15.5359421
  31.8220119  10.0823269  15.4472809  43.2291870  35.8527908  82.3582153
  43.4878006  34.9508858  82.5477448  42.2725143  35.8386383  82.3866119
  73.8684387  13.4717445  11.1583567  73.2331772  13.0701170  10.5655975
  74.6710815  12.9670563  11.0268803  14.8128729  25.2862701  58.3809700
  14.7593689  25.1744041  57.4318352  14.1146765  25.9072418  58.5886879
  44.7882156  51.6182251  50.2249107  44.3805695  50.7526321  50.2533035
  45.6875000  51.4503365  49.9432526  55.7025146   4.2932811  15.9732628
  55.2994576   4.1385021  15.1189671  55.1446190   4.9529729  16.3853188
  12.6597128   5.5550175  59.6415253  13.5304079   5.9331732  59.5185585
  12.7901077   4.8573823  60.2838135  85.3381958  45.8102837  40.9097290
  85.2077255  45.6867523  41.8499146  85.6890717  46.6973839  40.8311310
  19.2434807  59.5525322  77.2638855  19.2746181  59.4584236  78.2159424
  18.9124680  58.7107620  76.9506989  67.4177933   9.3971357  36.3273125
  68.2087173   9.8537045  36.0405769  66.7055893   9.8375006  35.8635445
  73.2548065  36.0605316  68.6371765  72.9668274  36.0690689  67.7243652
  73.3332367  36.9850998  68.8722382  75.9606705  35.2279015  69.8120117
  75.7260284  34.4167862  70.2628632  75.1775284  35.4596024  69.3127747
  85.0577545  61.8032341  38.8986855  84.4114838  61.2454414  38.4657593
  85.7758255  61.8707237  38.2693558  25.1569939  38.2988167   6.1810741
  25.3493748  37.9703217   5.3028312  25.4873638  39.1971931   6.1784596
  19.0061455   7.0333047  79.2466812  19.8075581   7.5205913  79.0555725
  18.3564854   7.3948388  78.6437988  72.8059921  16.6041145  51.2198677
  72.4032745  16.1482220  50.4808083  73.0963287  15.9035864  51.8039932
   0.9441782  23.1562233   5.9995723   1.5172392  22.4190006   5.7890096
   1.3208317  23.5328274   6.7948914   6.7935662  36.9397774  55.3398857
   6.5688810  36.4209976  54.5674782   6.5931034  36.3667068  56.0799103
  30.5212574  36.2339745  86.5023193  29.5976448  36.0051651  86.3983078
  30.5645695  37.1633644  86.2773972  76.0628128  50.7200699   0.6860383
  76.0169449  49.9819794   1.2937822  76.0528107  51.4944801   1.2485514
  83.1077347  50.4237976  40.7647324  82.7703629  50.6292458  39.8928375
  82.7922287  49.5374260  40.9408989  23.7856483  15.3895159   2.7251422
  24.0630589  15.0605383   3.5801561  24.6011505  15.6269846   2.2837837
  27.7753983  35.7221298  86.4216843  27.6081352  34.8321533  86.1115265
  27.7457466  35.6527596  87.3759079  53.0844917  43.5977249  23.2686672
  53.6258621  44.3838234  23.3407516  53.5584755  43.0358772  22.6555634
  63.2125130  68.7685547   2.9717305  63.3382072  69.5938339   3.4400654
  63.9369125  68.2149658   3.2633045  14.1889400  67.0259476  66.4533539
  13.6120853  66.9062729  65.6989365  14.2815971  67.9750748  66.5358353
   5.4683909  38.7699432  51.5886497   4.8812013  39.1662407  50.9449196
   6.0611172  39.4782143  51.8401604  49.9094582  10.0210142  23.2420750
  49.9631691  10.5953722  22.4782295  49.0019341  10.0982447  23.5364723
  83.2886505  18.9414215  58.8707771  83.8454285  18.2187996  58.5808716
  82.4442215  18.5322170  59.0598030  77.1117096  10.1113586  71.2687531
  77.7915878  10.4694510  70.6979904  77.4816055  10.1726131  72.1494675
   2.0726054  15.1124754  10.7582941   2.5327828  15.9345379  10.5889359
   1.1451179  15.3479509  10.7348337  66.4198837  64.1307068  50.6064568
  66.8331985  64.1171799  49.7431946  65.9933624  64.9862823  50.6544113
  41.6852303  20.6124687   6.8773775  41.1582718  20.5380459   6.0817599
  42.2559624  19.8442421   6.8593793  65.1671753   3.6057489   9.8233604
  65.2910461   4.5535564   9.7728720  64.6416855   3.4745822  10.6125908
  31.2998371  56.0953255  23.0376587  32.0514755  55.9048805  23.5989094
  31.1030884  55.2619438  22.6098804  39.3878365  50.5213737   8.5807180
  40.1584892  50.2542534   8.0797415  39.0050125  49.6995087   8.8876638
  80.0823517  16.2901630  36.9667778  80.2619019  15.8994951  36.1115761
  80.2031479  15.5721922  37.5881958  37.5788116   9.2018061  31.0772190
  38.2675400   9.4200296  30.4493141  36.8170471   9.6991978  30.7796497
  47.3287125  69.6241608  19.6968918  47.3313065  69.6677551  18.7406883
  47.3282700  68.6874619  19.8939457  29.9959221  65.4040604  17.6345558
  29.0918179  65.7166138  17.6683331  30.5263863  66.1986694  17.6931419
  62.8475533  55.6540184  35.7086258  62.2681999  56.2302055  35.2100410
  63.2192154  55.0631104  35.0537033  23.2026310  45.4303665  81.5369568
  22.7082653  44.9681091  82.2138290  23.0375805  46.3571014  81.7106018
  25.1583843   6.5174785  14.3061342  25.0311241   6.4228764  13.3621597
  26.0817184   6.3071661  14.4456024  30.2464027  63.3123245  29.4485149
  30.6065350  63.8302269  30.1684551  30.4120274  63.8402634  28.6674385
  80.5694504  55.3940125   6.4222255  80.3084335  56.1932678   6.8797150
  80.5796738  55.6399727   5.4972229   3.5448813  63.2545547  13.7974977
   4.3350577  63.3509979  14.3290539   2.9900253  62.6574631  14.2993431
  67.8331223  50.4036369  55.2276421  67.5321426  51.3016014  55.3665657
  67.4505081  50.1500282  54.3876877  17.6841087  64.9488983  66.0482407
  18.1357307  65.2976685  66.8167572  18.3877068  64.6512756  65.4715195
  78.0455170  22.0072136  83.6072845  77.2122574  22.3968315  83.8720703
  78.0027313  21.9768295  82.6515198  52.6371613  17.9445477  20.9688625
  51.8546257  17.8061314  20.4352760  52.3019409  18.2583160  21.8087482
  42.7969933   8.8668327  73.2797394  42.5191498   7.9564805  73.3811951
  42.0174675   9.3209295  72.9597931  71.0723648  30.4950237  63.5091019
  71.8633118  31.0175686  63.3765221  71.1827850  30.1096802  64.3783264
  62.9098396  28.4273624  86.2237778  63.1715164  28.3023205  85.3115692
  61.9530678  28.4412308  86.1987457  51.8738174  55.4121895  86.4511871
  52.5173950  56.1025925  86.6105118  51.5695114  55.5700378  85.5574799
  86.3035431  32.9277000  73.8247986  87.1931763  32.7418060  74.1251755
  86.4225311  33.3875809  72.9937820  20.6872101  35.2000237  67.3972778
  21.1060925  34.7656021  66.6542816  20.4041080  34.4834213  67.9652252
  54.2331772  13.8680944  72.8162155  53.5785637  13.6564074  73.4817276
  53.7233429  14.1885452  72.0721664  19.6010265   7.1568308  72.0728302
  19.5363426   6.2730618  71.7108917  18.6932964   7.4220428  72.2208939
   4.2735415  46.1354218  81.6569748   4.8148065  46.9110489  81.8041763
   4.0921464  46.1447830  80.7171707  86.9661179  38.8383408  59.2261429
  86.0822678  38.4723015  59.2584190  87.0428619  39.2015686  58.3438683
   3.1189237  43.4569130  73.7226791   3.5606351  42.8905220  74.3553848
   2.2657583  43.0447006  73.5869446  54.8707314   6.3935709  83.3273239
  54.2875366   6.3411722  84.0845337  55.3873405   5.5887151  83.3667450
  29.8601131  19.6698914  83.6513824  29.3260498  20.4626904  83.7011490
  30.6040897  19.9163799  83.1018600  49.1484222  34.0659866  86.7880249
  48.8705750  34.2249985  87.6901093  50.0326347  33.7084885  86.8692322
  42.4696007  51.2703743  36.2545776  41.8116646  51.5059967  35.6004868
  42.2596817  50.3668365  36.4907532   6.1387219   4.5952539  67.9849243
   5.7886047   3.8106441  67.5629730   7.0884485   4.4796329  67.9552078
  38.5075378   0.7364278  88.2750244  39.1894264   1.3740393  88.4864731
  38.5645485   0.0842994  88.9733887  77.2352371  10.0071735  11.3356066
  78.1595917   9.8314972  11.5115118  76.8242645   9.1427183  11.3285608
  32.0315933   0.5741676  62.6793976  31.2434292   0.5372742  63.2213058
  32.7498245   0.4065141  63.2895393  53.9401855  47.9111061   9.5878401
  54.0919456  48.7136879   9.0887756  54.6884689  47.8533936  10.1819534
  11.5357027  56.2830772  73.9160004  11.8040075  56.9868393  73.3252716
  10.6697655  56.5478783  74.2262726  70.1806259  40.2047386  33.3581543
  69.7207718  41.0378532  33.2547913  70.8357391  40.2045670  32.6602554
  21.4590931  54.2031403  71.9561539  21.1423283  54.9859619  71.5055084
  22.3934956  54.1703339  71.7510986  50.9238853  46.2547874  54.7912331
  50.5097618  45.6611176  54.1649017  51.6813202  46.6062927  54.3232918
  79.6673431   9.1217213  78.6691666  80.3134232   9.1486959  77.9634171
  78.8490982   9.3965578  78.2554550  77.8245316  50.0057068  60.8704796
  78.2165451  50.1742706  61.7272987  77.4082260  50.8335571  60.6305084
  22.4670124  65.7964859  10.4696426  23.3877163  66.0446930  10.5528870
  22.3882923  64.9925766  10.9832153  57.0984039  64.8250122  62.8134346
  56.6188393  64.1282883  63.2615776  56.6997414  64.8694611  61.9443436
  24.3209610  64.9739685  68.2664871  24.8841228  65.0170212  67.4936829
  24.9235821  65.0484619  69.0064392  52.9182510  39.0676384  61.4632874
  52.4277153  38.2665024  61.6471062  53.1352043  39.4190979  62.3267899
  75.6302795  15.4879122  86.3303528  75.3771439  15.8799324  85.4946060
  75.1448364  14.6636763  86.3650894   2.2590437  68.6266556  74.9230194
   2.9417224  68.4355316  75.5661774   2.7040465  69.1357346  74.2454910
  43.9179306  68.5405884  12.4496994  44.7449989  68.9186401  12.7484789
  43.4359207  68.3522568  13.2549505  80.8365784  41.2269859   6.7539482
  80.4011765  40.6186295   6.1568189  80.2119980  41.3490334   7.4689560
  78.7312241   4.1663828  38.6937294  78.8637772   3.4383466  38.0865860
  77.7934189   4.3516593  38.6444130   7.0574713  22.9753895  58.9933548
   7.0818219  22.1187782  58.5669098   6.1814356  23.3119488  58.8048859
   4.5957894  64.0415192  33.8902855   4.5599751  64.9376984  34.2246666
   3.8823130  63.5892334  34.3404198  62.4947357  10.3602676  32.7132797
  61.5710182  10.2198811  32.5052681  62.5819283  10.0729151  33.6221581
  76.9964981  65.9694061  54.2884674  77.5097656  66.7762451  54.2461662
  77.6281128  65.2738647  54.1053810  18.9284420   5.8410597  31.9229546
  19.6269245   6.3560934  31.5191040  18.6380081   5.2470775  31.2308102
  68.7128372   9.4048004  25.5776615  68.9811935   9.2769527  26.4875355
  68.9819260  10.3001089  25.3721275  42.0352364  69.2989349  68.6369934
  41.2547417  68.8746567  68.2805557  42.0649567  70.1506882  68.2012558
  52.4011116  69.6237564  24.5897942  52.1066742  70.0833969  23.8034954
  51.6001129  69.4676666  25.0900631  34.9965210   8.0879936  21.1200237
  35.5021782   7.4934692  20.5658722  35.4196625   8.0347605  21.9769650
  49.8613853  40.7336731  67.7433929  50.2928429  41.5594406  67.5238724
  49.8076286  40.7381859  68.6990738  65.8944855   0.2251393  77.4396210
  64.9654541   0.2590078  77.2116165  65.9516525   0.6801946  78.2797928
  72.8064575  70.2421646  56.4950256  72.1381607  69.8958969  57.0863876
  72.4065552  71.0233307  56.1128082  31.0305748  71.0535278  85.6035004
  30.4173126  70.7632980  86.2787018  31.3681831  71.8878860  85.9292297
   6.2332549  54.1731911  75.0335770   5.7072129  53.9630470  74.2619934
   7.1308336  53.9627686  74.7760849  54.2981796  42.4938736  83.9584808
  54.1236382  42.2462463  83.0504913  54.9687347  43.1741333  83.8965607
  53.8020515  63.2869301  40.5596809  53.6098633  63.1327553  41.4846268
  53.2630882  62.6479797  40.0933228  75.1746902  42.4808006  40.4147301
  75.8543625  41.8230362  40.2676544  74.3524017  42.0100479  40.2788658
  20.3147392   6.7343936  83.8602142  21.1605434   7.0751357  83.5691147
  19.7731991   7.5135360  83.9863205   6.6860828  62.9982491  38.3037872
   6.8114381  62.0533524  38.3914566   6.3406105  63.2738266  39.1528702
  17.7918491  20.7874565  88.4554596  18.7208138  20.7793503  88.6860886
  17.4558468  21.5955391  88.8431931   3.1370423  71.5678177  74.7130814
   2.6087985  70.8072891  74.4706421   3.6874509  71.2577286  75.4321976
  78.7125092  34.7494431  61.5898476  77.8631058  34.3204918  61.6935043
  78.7527313  34.9799728  60.6616936  23.7892246  24.7590485  46.1262207
  23.2365837  25.4879341  45.8441849  24.4574947  24.6874714  45.4446602
   7.0374808  30.5597591   2.0848124   7.1828403  29.6874695   1.7184639
   7.4685960  31.1528511   1.4694954  13.4983149  61.5799179  41.3364449
  13.3638344  62.1640587  40.5901680  13.7988768  62.1553116  42.0398750
  52.7330666   9.1518660  19.4149189  52.4372787   8.4030323  19.9325943
  51.9318962   9.5106955  19.0333405  51.3885155  66.3975754  37.9652672
  52.2346535  66.2933273  38.4004822  51.5432243  66.1040649  37.0674057
  11.8360653  60.0559692  63.1692314  11.0414906  60.2964821  63.6457138
  11.9958763  60.7945862  62.5817490  52.1012840  46.7022247  29.8172932
  51.8144684  46.7624779  28.9060650  51.7778664  47.5061798  30.2238483
  62.3470268  45.2862625  26.8160038  62.3495483  45.7106552  27.6739769
  61.8917007  44.4567757  26.9604282  62.0895309  31.8575497  63.7719383
  62.8176041  31.2628860  63.5916214  61.6038017  31.4338093  64.4795685
  75.5127411  34.2816391  84.2145081  75.0737762  33.4354439  84.1279678
  75.9389267  34.2439232  85.0707626  29.0584049  28.9292297  78.2630081
  29.8769875  29.2902985  77.9227371  28.9305649  29.3738346  79.1009903
  34.4295845  39.8659363  83.9652557  35.0457306  39.6164856  84.6539993
  33.9989853  39.0467300  83.7208939  34.1397820  67.4126816  16.3667316
  34.7436180  68.0424805  15.9730797  34.4824905  67.2717133  17.2492905
  14.3776398  44.2984009   6.1472096  14.0470724  44.7364388   5.3629384
  13.7581711  43.5853767   6.3023934  61.0815506  25.7445812  55.7532120
  60.7702408  25.6186142  56.6495667  60.5608101  26.4750042  55.4192314
  74.4465942  71.1324463  62.7170639  74.4222336  72.0785675  62.8602028
  73.8686218  70.7733917  63.3903084  60.3586731  37.2118835  64.0819626
  60.9103889  37.5789146  63.3912125  59.4784546  37.5285492  63.8790703
   5.4708891  59.1668663   6.1040115   5.9080572  58.3160439   6.1388769
   4.5404873  58.9551544   6.0280972  38.1151886   1.9734323  24.6032524
  37.8521042   1.6098099  23.7577953  37.2906990   2.1996768  25.0336742
  74.5159607  40.4415627  47.8919640  74.0360413  40.9778748  47.2608681
  75.1931915  41.0243149  48.2354698  49.2048035  36.7008476  59.0559273
  49.0063705  37.2992821  59.7761574  48.9270706  35.8420639  59.3746490
  15.7324944  -0.0375262   9.4101887  14.9546661   0.4907687   9.5894051
  15.5947313  -0.3739359   8.5247049  20.3723469   1.0870681  81.9074707
  19.5440693   0.9522089  82.3679047  20.1178493   1.2479595  80.9988556
  78.7439957  44.0221901  11.4483719  79.3768692  44.3016319  12.1098938
  78.5416031  43.1153755  11.6784897  44.0976601  71.7718124   2.3094451
  43.5526695  71.7192917   3.0945950  43.7564507  71.0865631   1.7347729
  73.5269012  60.7552795  79.6697311  73.4775162  60.1997299  78.8918076
  73.7114944  60.1481133  80.3863297  72.3161545  60.1324425  22.2201500
  71.8711624  59.3183975  21.9844627  73.2396851  59.9631233  22.0339909
  67.7827301  43.6563797  28.5522366  67.6209641  43.5040703  27.6211815
  67.0982666  44.2709618  28.8168602  34.2541122  32.5855255   4.4705205
  34.3739128  33.5351791   4.4640145  33.6180725  32.4291306   5.1685352
  67.5519638  37.1803207  82.5590439  67.4385605  36.7650757  83.4140015
  68.4666290  37.4623146  82.5491714  59.1471710  52.1128769  61.0623627
  58.9166183  51.1962471  60.9111366  59.8454971  52.2912674  60.4324837
  81.5048981  28.7057762  36.1681595  80.7769623  28.0862808  36.1174850
  81.9360962  28.6388645  35.3162041  52.2114182  65.5089645  41.5598602
  52.4042320  65.1656799  40.6873894  51.4734688  64.9822311  41.8667984
  32.3179703   7.6311979  58.8449783  31.9845524   7.2511244  58.0321999
  32.6246109   6.8798528  59.3526039  26.4695034  48.0979767  18.0542641
  25.5257397  47.9511108  18.1173058  26.5510254  48.9599113  17.6460323
  79.2481155  40.2254982  61.0748558  78.4643707  40.7000694  61.3519211
  78.9139557  39.4154015  60.6897354   9.5791435  10.7653570  11.1333294
   9.1472092  10.9369793  10.2965431  10.4348812  10.4102888  10.8927670
  55.6329498  43.1680031  18.6236343  55.4600677  44.1022301  18.5071583
  55.5455894  42.7969666  17.7456074  71.7009888  16.3489685  17.3171463
  71.6076813  15.4201536  17.1054134  71.9300232  16.7625256  16.4848328
  85.0112839   8.4165211  13.4028082  84.7142563   7.5908656  13.0203238
  85.2937088   8.1829557  14.2870693  25.5650597  44.8938866  10.3018627
  26.2654438  44.5259781  10.8406935  26.0172768  45.4541931   9.6711578
  16.6689053  55.1703835  73.7901459  15.8788147  54.7634735  74.1456833
  17.3897705  54.6975060  74.2060394  53.6631927  45.7106705  49.3207550
  54.0465355  45.6942520  48.4438248  52.8188705  45.2708206  49.2213402
  71.5865707  57.5816536  71.5704193  71.5567017  58.4877396  71.2632599
  70.6721954  57.3568192  71.7424850  67.0517502  71.6449509  53.0699730
  67.7526703  71.5210114  53.7099609  66.6521301  70.7796326  52.9818344
  54.3950043  53.7306900  65.3624344  53.7375336  54.2182388  65.8586807
  54.0422974  53.6895752  64.4735413   7.8190055  34.2031517  15.9152393
   7.4545674  34.9715881  15.4760132   7.2453308  34.0633583  16.6686230
  36.3032532  53.0058289  75.8880081  35.5534477  52.6341209  76.3526077
  36.2101288  53.9517555  76.0010529  69.1945953  55.7458344  12.4020214
  70.0689087  56.0443192  12.6524410  68.6509247  56.5323563  12.4471998
  75.6431656  23.2967110  28.0224133  75.2383194  22.4868965  28.3331051
  75.1775131  23.9913025  28.4881897  35.9102173  58.0709763  47.1026154
  36.0358925  58.0828018  46.1537743  36.7924767  58.1632652  47.4622459
  23.1056385  59.0876617  57.1162834  22.9759579  59.1799889  58.0601540
  23.8449707  58.4853096  57.0338860  10.9307919  13.8066006  17.1471825
  11.3544426  13.4829388  16.3522015  11.1556721  14.7365389  17.1767998
  71.7014999  56.7847290  64.1772308  71.4040604  57.6574669  64.4343109
  72.1401978  56.9190063  63.3371468  66.2070236  35.6203880  21.3027592
  66.1193237  36.5732689  21.2790680  66.6647110  35.4423409  22.1243725
  70.5600815  21.6738300  12.3635912  70.1195831  22.3266506  12.9076643
  70.0311203  21.6295681  11.5670547   5.4064474  55.9285126  19.7298717
   5.8124976  55.4577637  20.4577103   5.9553356  56.7034721  19.6098919
  33.7760086  56.5935173  54.3414955  34.0105972  56.7842827  53.4333076
  33.5811234  55.6563835  54.3467484  53.9593315  56.9944191  17.0950184
  53.8056641  56.1863251  17.5845146  54.5526772  56.7377129  16.3891354
  80.3232269  22.3993797  48.7489624  80.1084518  22.2773514  49.6737366
  79.5317383  22.7790260  48.3673248  85.8799515  18.0014706  87.7503433
  85.8703537  17.2080059  88.2856445  86.3695297  18.6368637  88.2726669
   4.1559901  21.9167347  48.4618912   4.6362138  22.5808144  47.9673080
   3.2969236  22.3089924  48.6180000  62.3854523  69.9479141  25.8068695
  62.2139320  69.0092316  25.7314606  63.0452538  70.1254425  25.1365166
  49.8354263  11.3080959  27.2426701  49.3874626  12.1369362  27.0736027
  49.4561501  10.9939260  28.0634480  62.1471596  35.5932693  25.4086876
  61.3367500  35.1977005  25.7296104  62.4890404  34.9602165  24.7773457
  49.2504539  27.7938938  30.1837120  49.6655464  26.9320126  30.1506939
  49.2770119  28.1073189  29.2796707  61.4938240  47.9891434  67.6507416
  61.8235054  48.6093292  67.0004272  61.4309464  47.1585007  67.1792450
  77.0879364  68.6867218  48.6763306  77.0474854  68.3606949  49.5753860
  77.2079773  67.9016495  48.1420288   6.2850299  70.1798859  49.5222588
   5.4909368  69.7044601  49.7664185   6.9619989  69.5051117  49.4710846
  72.6503601  36.2499542  65.9906540  72.8215790  35.3582115  65.6878128
  73.0078354  36.8097534  65.3013992   3.4369526   7.1901531  24.9686756
   2.7300699   7.2059278  25.6138897   2.9992139   7.3369422  24.1301842
  18.5243397  55.5349541  69.6829147  19.3174343  55.6290207  69.1552963
  18.8335419  55.5684471  70.5881805  79.1111984  64.2315521  73.8079605
  79.5104294  64.8389511  73.1851273  79.0814209  63.3959274  73.3420486
  74.0997238  43.3213158  83.2733002  73.4906387  42.9303932  83.8997421
  73.5845490  43.4292908  82.4738159  57.3136902   8.3998690  49.0890007
  57.5269165   8.8128662  49.9257812  56.8360176   7.6057572  49.3286781
  19.6290760   8.9257231  49.6723366  19.7402554   8.0168028  49.9511452
  18.6816578   9.0622187  49.6728287  62.6646423  17.6221333  39.3132019
  62.2074089  17.7056293  38.4764252  63.4052467  18.2244205  39.2425957
  78.2313309  31.5520477  89.0425873  77.3366241  31.2923107  89.2622604
  78.4175262  31.0981827  88.2206573   3.0794294   5.7803416  76.9003601
   3.7780652   5.9879503  76.2798462   2.3896680   6.4147596  76.7054901
  71.9349213   4.4589939  16.4889469  71.9453735   5.3944364  16.2862892
  71.2093735   4.1098800  15.9713249  35.7121315   3.7721281  46.5685043
  36.4395943   3.7524166  45.9466972  34.9406052   3.5650699  46.0411491
   5.5768051  19.7026424  50.1090622   4.8081241  19.9255638  49.5840225
   6.1484241  20.4666672  50.0332298   0.0881427  22.8268013  12.5583372
   0.6115097  23.6227875  12.6517363  -0.0169713  22.7188091  11.6130753
  67.5281830  66.2705994  47.2180481  67.5930023  65.4202271  46.7834206
  68.0603790  66.1769562  48.0081291  53.8389015  33.1761017  13.1097031
  53.2985840  33.9613647  13.1971531  54.3947449  33.1798248  13.8889685
  51.7524452  18.0920143  14.4264717  52.0247803  17.2886715  13.9829550
  51.2576332  18.5750618  13.7646103  21.7603149  10.8813553  65.5994720
  21.7482090  10.8394194  66.5556717  21.7778950   9.9660940  65.3197861
  11.3931446  52.4089241  15.0948400  12.2200279  52.8283234  15.3327465
  11.1803560  51.8555374  15.8463144  13.3814182  37.1798248  61.2901764
  14.2503223  37.0260124  60.9192619  13.0757484  37.9788742  60.8608513
  50.0555496  32.7568092  45.8283424  50.2136536  31.8207932  45.9512634
  50.3092918  33.1540108  46.6614532  66.0389709  33.9575348  25.4944019
  65.3065720  33.7993393  26.0900478  65.7393570  34.6706047  24.9304905
  37.9233360  11.8826199  14.9648714  37.5648842  11.3048153  14.2911615
  37.4038849  12.6835365  14.8946438  34.3027344   0.0549525  52.4859543
  35.2250900   0.0397487  52.2304955  34.3067055   0.4047992  53.3769188
  72.1319122  68.6665497  43.2696381  71.4789581  69.1894455  42.8043785
  72.7232742  69.3116226  43.6574593   2.1633685  12.0726566  23.6177521
   1.8130201  11.8212061  22.7631989   3.1090815  11.9506817  23.5342026
  28.9506607  59.6268158  34.0474510  28.3316040  60.0880699  33.4815483
  28.4187088  58.9738007  34.5022354  60.8706970  20.1736832  63.7443085
  61.4519577  19.7838631  63.0913124  60.1898232  19.5152206  63.8824081
  78.8248825  67.3278122  33.1156235  78.1123886  67.7568359  33.5894661
  79.4828491  67.1452484  33.7864304  60.8802986  17.5208015  78.9375534
  60.6393700  16.7503242  78.4232101  60.2457275  17.5385437  79.6539536
   7.5601206  23.8395329  34.7024956   6.9380927  24.3125210  34.1496887
   7.0113940  23.3237953  35.2933807  30.2892628  40.8162575  70.2973404
  31.2369576  40.7567749  70.1766357  29.9609413  41.1409569  69.4588852
  82.0758362  60.9735146  57.3884468  82.0074615  60.8840828  58.3390045
  83.0015945  61.1593246  57.2313385  18.5386066  52.9284706   1.7958050
  18.0333366  52.1952896   1.4445511  18.6759796  52.7054253   2.7164629
   6.7674055  23.1367340  28.8522949   6.9877534  23.4434509  29.7318420
   7.5658627  23.2759380  28.3430614  76.3457642   3.6429524  59.3127136
  76.6028366   4.1971464  60.0496101  76.4284821   4.2101884  58.5461388
  13.9801750  70.7864532  63.2902031  13.1346397  70.7829666  63.7388535
  13.7843714  71.1150208  62.4127426  47.8462219   4.4859762  78.4900360
  48.1253014   5.3610892  78.7593384  48.5839500   3.9193151  78.7156143
  22.6112442  47.0838852  52.0256500  21.7203484  46.8054619  51.8134727
  22.5555115  47.3978577  52.9281731  10.5511227  65.5313034  32.7375412
  11.4142942  65.4824066  32.3267174  10.3730297  66.4690094  32.8097992
  39.4705887   7.5367780  78.5617371  38.8171120   6.9331942  78.2083435
  38.9970703   8.0425920  79.2221603  53.9315414  36.1178856  54.8095703
  53.0233803  36.2091942  54.5212364  53.8944130  36.2353172  55.7588158
  46.6632843  20.2941246  31.0292130  47.5881462  20.1002960  31.1818409
  46.6039925  21.2471046  31.0966339  19.3677406  58.0529366  28.0287895
  20.0287247  58.0005684  27.3384342  18.5472984  57.8226471  27.5928135
  53.4126854  52.9783745  87.6609650  54.3196487  53.0793419  87.3720856
  52.9417229  53.6879082  87.2239456  28.9338779  60.0734558  58.5795021
  29.5069885  60.4125061  57.8918839  28.5411453  60.8539467  58.9704323
  75.4840240  53.2123146  32.3345108  76.4022903  53.4267616  32.4989128
  75.2548294  52.5932579  33.0276680  73.1162338  41.1217041   5.8024392
  73.6756287  40.6131134   6.3895025  72.5558929  40.4699326   5.3811955
  80.1741943  53.8392982  65.2550583  80.0968628  54.4770012  65.9646988
  80.7585068  53.1649857  65.6016235  60.9198647  41.3165970  32.5493279
  60.6711998  40.4917374  32.1321869  61.8770142  41.3076439  32.5460548
  80.0380630  38.1760979   7.7472959  80.6060562  38.0281219   6.9911742
  80.6384201  38.4058952   8.4565153  77.0189133   8.3080349  41.4012337
  76.4375000   8.7523623  42.0182953  77.9001923   8.5007248  41.7213135
  61.6972656  15.9510860  34.9483490  61.3137093  16.0859356  34.0817871
  61.8049088  15.0024862  35.0176506  49.2216759  34.3631744  43.9812241
  48.6707039  34.8831177  44.5663071  49.5020409  33.6193237  44.5144348
  58.4304428  63.6311646  48.4310417  58.3433380  64.5270233  48.1053391
  57.5301781  63.3142509  48.5040092  49.1090508  65.9081650  17.7808475
  48.6795311  66.6194534  17.3056526  48.4270592  65.5561905  18.3528881
  15.2520733  23.7316685  14.5653381  15.3391571  22.8348713  14.2422247
  14.9489975  23.6326981  15.4678802   0.1873726  20.8120499  28.5501728
   0.7187194  20.1945381  28.0475960  -0.7129635  20.5139122  28.4207840
   3.6443503  37.5746346   7.1649675   3.3047235  37.3769493   8.0377817
   4.5711765  37.7674141   7.3066058  32.3239975   0.7224122  81.8472366
  32.1055946   1.1955371  81.0443115  33.0757256   0.1799883  81.6086655
  70.4675674  21.9719582  50.7912521  70.6973724  21.5346012  51.6110916
  69.6669846  21.5339642  50.5023651  84.5229950  43.4792480  25.7829762
  84.8175888  43.5777740  24.8775826  84.2370071  42.5678101  25.8439522
  51.1265945  50.0426636   4.7414494  51.7521896  50.5441208   5.2643280
  51.2625084  49.1344299   5.0114012   1.4211128  35.3104057   8.2287960
   1.0677202  35.8204498   7.4999619   2.0247211  34.6916466   7.8176670
  51.2622414   4.9102926  83.6406708  52.0260429   4.7164574  84.1840515
  50.7434349   4.1061454  83.6611557  61.7262993  39.4117355   3.0610547
  61.5625343  40.1678047   3.6247663  60.8837357  38.9597664   3.0157802
  38.2843781  40.8203201   2.2839625  38.7682381  40.7863274   3.1091619
  37.4982605  40.2986603   2.4455941  52.2529526  55.4129715  32.6119995
  52.4866333  55.4524879  31.6846027  51.7270927  54.6172485  32.6927986
  28.6895733  16.2264519  78.4572906  28.0381908  15.7966280  77.9030533
  28.2735538  17.0461674  78.7241745   0.2698740  55.6589890  61.0019302
   1.0721163  55.9579201  60.5738144  -0.4362719  56.0460091  60.4844322
   7.8655844   4.7721639  15.9346485   6.9696527   4.6890311  15.6081104
   7.7640524   5.0574389  16.8426914  54.1588211  65.5523453  86.1009750
  53.6000404  66.2677536  86.4045868  54.8119583  65.9777908  85.5454254
  76.2598572   1.6894251  13.8624287  76.4263458   1.1541388  13.0865545
  75.3288803   1.9054717  13.8090858  85.8568954  26.2299862  70.6168060
  85.8366699  26.0961094  71.5643768  85.5419006  27.1255836  70.4946747
  60.1270790   1.6243893   1.1909101  59.1913643   1.4229167   1.1821253
  60.1918907   2.4798105   0.7663094  28.1633663  61.7194214  42.2025833
  28.5554066  61.6797829  41.3302498  27.2198200  61.7089348  42.0418282
  73.9983597  36.9720955   8.0945482  73.0721359  36.9488297   8.3349600
  74.4257202  36.4000816   8.7320404  78.8384552  56.9401131  45.1471519
  78.3358841  56.7183800  44.3632622  78.2976227  56.6308403  45.8738441
  11.1873388  64.0577850  19.8575039  11.2081757  63.1262321  19.6383915
  11.7436762  64.1340027  20.6326885  10.6629963  57.4036827  43.7521286
  11.1682386  56.6008186  43.6241837  10.1434565  57.2369576  44.5385857
  49.1303215  46.2890282   7.0796089  48.2081146  46.4967079   6.9291606
  49.3869171  45.7715797   6.3163042  37.0879250  21.5911331  11.2173319
  37.8966560  21.0806770  11.2575855  36.7184067  21.3870735  10.3582354
   8.3290043  61.2027779  17.5160122   7.4611025  61.2709312  17.1181011
   8.6887293  60.3869362  17.1678257  43.3203773  38.1378937  10.2455664
  42.9105721  37.8932266   9.4158497  44.2552948  37.9892082  10.1039581
  18.7712307  64.2179947  52.8981628  17.9458027  64.7016144  52.8663254
  19.1845207  64.3936844  52.0528488  39.2841759  53.7336273  78.1852951
  39.6574745  54.5244751  78.5744476  39.8127480  53.5795326  77.4022903
  47.0038681  55.4444962  13.3635187  46.4096413  55.0991592  12.6972857
  47.3148079  56.2737885  13.0004444   6.8922143  23.4552078  24.9354038
   6.7265711  23.7152309  24.0292130   7.8042941  23.1648064  24.9383507
  56.1988297  35.9151001   4.1632462  56.1116180  36.3670845   5.0024920
  55.5252914  35.2353554   4.1861649  40.0167961  48.3110123  53.7851753
  39.8279190  48.7416306  52.9514313  40.6371651  48.8951111  54.2212944
  16.6383495  69.0979843   4.8561854  16.3194160  68.9593964   5.7479854
  17.1941910  69.8747559   4.9186053  75.1237564  30.6933746  20.1321106
  75.6967163  30.0469189  19.7197552  75.7111282  31.4034042  20.3911133
  66.8494568   5.4351797  23.8378429  67.3742142   6.2282991  23.7290840
  67.2557907   4.7968822  23.2515812   1.7755359  38.0393600   1.9280325
   2.4097331  38.2073517   2.6250288   0.9441456  37.9145241   2.3856766
  10.6949682  40.7435875  38.8103447   9.8955994  41.0457001  38.3791046
  10.7330227  39.8072128  38.6154327  21.5503502  10.0973186  88.7963715
  22.1933937  10.7800856  88.6051788  21.9705353   9.5520449  89.4614716
  68.9742279  33.2865868  51.9018784  69.9200287  33.3901672  52.0065880
  68.7585983  32.5140343  52.4242706  66.1546326  70.9603043   5.0370765
  65.9281006  70.6919556   4.1466231  65.9889679  71.9029312   5.0526123
  48.7051201  11.5515823  45.9828339  48.0160332  11.7804718  46.6065369
  49.4088745  11.1938047  46.5240860  22.2473564  46.7789040  64.1513519
  22.4486179  46.3402405  64.9779663  22.9757137  46.5487213  63.5745125
  60.2283897  53.5147858  82.3147430  59.5933838  54.0601845  81.8504791
  60.8256226  54.1397247  82.7258377  35.1512566  13.2521734  60.7406006
  35.0872993  12.9258251  59.8430252  34.9073792  14.1756411  60.6776352
  77.8537140  58.7611351   2.3444843  77.8058167  59.7117271   2.2429528
  78.6401367  58.5079575   1.8610858  52.3876457  67.2126160  11.2071209
  52.7927475  66.4150085  10.8666248  51.8483772  66.9136200  11.9392529
   1.4847999  60.6645126   2.3503349   1.2370707  60.1562729   3.1227052
   1.3513077  61.5759659   2.6104510  55.4817924  43.8380699  25.4738674
  55.1538773  42.9439621  25.5701809  56.1964912  43.7642441  24.8414230
  16.8854370  71.4533768  69.1741409  16.1881199  71.5675583  68.5284271
  17.6412640  71.1656952  68.6620865  66.1139603   1.7984170  57.7149887
  66.7085342   2.3880265  57.2512321  65.3041687   2.3000629  57.8088989
  41.6367340   3.7331717  54.4814529  41.8669815   2.9515302  54.9836998
  41.3629494   4.3699851  55.1415596  62.1675797  20.2110462  27.8936234
  62.2116127  20.4871387  28.8090839  62.9876556  19.7400303  27.7457981
  81.6783142   5.3769321   6.0911937  81.5692520   6.1818047   5.5847187
  82.6107178   5.1729159   6.0188513  54.1054459  57.0739136  28.0618744
  54.1471138  56.2936707  28.6147881  53.1881371  57.3448753  28.0987320
  38.8088722  62.8666000  43.0822525  38.3819618  62.3447685  43.7617149
  39.6107635  62.3851013  42.8788795  52.9385338  56.4877586  83.1717682
  52.0154381  56.3436775  83.3800201  53.2861023  55.6115646  83.0053177
   7.6965904  64.7878342  88.5277481   6.7424364  64.7300034  88.5775223
   8.0061932  64.3020096  89.2921753   0.8219468  59.3421021  65.8146439
   1.3514526  58.8590546  66.4490891   1.4327049  59.9614258  65.4150848
  36.2916946  71.2860641  19.6812820  36.2031021  71.7764893  18.8640499
  35.5245132  70.7140121  19.7016907   4.5267053  44.4689751   8.4978075
   3.8177650  43.8603935   8.7058048   4.3554902  45.2332191   9.0481234
  67.9540329  59.7752380  74.5946579  68.7704926  59.7890167  74.0952301
  67.2693634  59.9023018  73.9379120  56.4275589   8.7154713  27.1187153
  56.9245224   8.5069647  26.3276482  55.5350456   8.8671770  26.8078480
  52.9948807  25.7961788  44.4648552  53.2184372  26.4368153  43.7896957
  53.1650810  24.9477291  44.0557098  72.9667892  66.1136322  42.9251633
  72.4827805  66.9317322  43.0377350  73.4718246  66.0210266  43.7329941
   1.3722805  32.1547813  54.8047752   1.9720676  32.7690239  54.3814697
   1.9227995  31.4094601  55.0448990  83.1908646  23.5756741  65.6208267
  82.4075012  23.4175854  65.0939713  83.3783875  22.7311707  66.0305557
  26.6750469  15.8502207  76.2919846  26.6483040  14.9676313  76.6615143
  26.5776424  15.7181005  75.3489609  48.3642044  31.9356174  19.8184547
  48.1827240  32.2664528  18.9387722  49.0486908  32.5137596  20.1552925
  77.1158371  40.7885857   6.3817635  76.7137680  41.5260963   6.8407283
  76.4145889  40.1412315   6.3081613  17.3785038  52.5824852  21.5420074
  18.1487350  53.1147041  21.3427143  17.0216866  52.3473778  20.6854801
  50.2939606  18.2710114  72.5154724  49.4288712  18.1399784  72.1272964
  50.8094177  18.6788940  71.8196487  72.7715073  42.9981956  79.9822922
  71.8257751  42.9152336  79.8600922  73.0518188  42.1317825  80.2772217
  77.4027405  38.2373543  31.8546047  77.6555176  38.1027184  32.7679558
  78.1335144  38.7237816  31.4730473  15.2619267  50.6146812  22.9117870
  15.5698643  49.7243614  22.7422752  15.3714533  51.0691032  22.0764809
  23.2667789  64.0674133  25.9734669  23.5625916  63.2636833  25.5459785
  23.9226456  64.2339630  26.6504669   6.8766646  17.2750416  52.9651566
   7.4463425  17.0855789  53.7106781   7.4694123  17.5992584  52.2870941
  11.2527952  22.2241650  55.8903618  11.2689962  21.5541172  55.2069855
  11.1812420  21.7310486  56.7076454  59.9223862  26.3750553  58.2118378
  60.1126289  27.3109245  58.2765732  60.5138512  25.9661484  58.8436584
  18.8825092  57.9294662  67.1784439  18.0955925  58.4723167  67.2264938
  19.1112442  57.9209900  66.2490158  85.2378998  17.0514832  58.6362877
  85.6002655  17.1775322  59.5132370  85.6509247  16.2481155  58.3196678
  28.9183121  14.5268030  58.5186920  28.6399918  15.0534449  57.7694130
  28.1012440  14.2398024  58.9264450  78.9956741  69.2271729  57.3111649
  78.3165665  68.5725021  57.4738045  79.7270889  68.7282639  56.9473572
  68.6585922  10.6733847  29.5170803  69.0147552   9.8026972  29.3402004
  67.9409866  10.5183783  30.1312828  57.5532799  13.1644049  34.7493553
  57.7916031  14.0879383  34.8300972  56.9785957  13.1313238  33.9845810
   8.6041927   1.0407815  22.7527485   8.8556385   1.2969677  21.8654060
   9.2685852   1.4397444  23.3145695  70.7164230  63.7072868  37.1086388
  70.2889404  63.2745972  36.3695412  70.3564835  63.2723618  37.8816299
   4.8618646   5.1010113  35.5162125   5.4075770   5.5748281  34.8885765
   4.6927724   5.7350316  36.2131042  80.3300247  29.4510345  43.2928314
  80.3233719  30.1822281  42.6751404  80.7002106  29.8187675  44.0953064
  82.2469559  19.0091763  31.1928520  81.4124756  18.7244701  30.8202705
  82.1357117  19.9485016  31.3395615  39.6498184  69.9715271   0.3295223
  40.3096962  70.4700470   0.8114659  40.1546059  69.4305191  -0.2777132
  24.3598003  49.0636902  13.8405933  25.1073856  48.6015892  14.2198181
  24.0635796  49.6511536  14.5358438  81.7789917  29.4637604  46.3774490
  82.4141235  28.8232269  46.6976929  82.3104401  30.2100067  46.1001320
  72.7028961   2.6168056  25.7403622  72.3851089   3.1423628  25.0061760
  71.9334488   2.1316669  26.0383987  74.1272583  28.8361073  88.7633286
  74.3103027  28.3357143  89.5585251  73.3426971  28.4270153  88.3981857
  40.3931122  56.2369080  77.6266708  40.5242996  55.4346352  77.1213150
  41.2683258  56.6165276  77.7048721  85.2972641  57.3426323  27.5987663
  85.6041794  57.9393196  26.9161243  85.5695572  56.4753380  27.2989445
  74.3180695  39.2239037  27.9222984  73.6404648  39.7175140  28.3842888
  74.5324783  38.5014229  28.5124550  45.4697037  47.8655052   2.8181441
  46.0726013  48.6023483   2.9171743  44.7710648  48.2014694   2.2566609
  32.9723701  11.4176569  67.6751328  32.1389465  11.8395844  67.8839798
  33.5028610  12.1138983  67.2877655  55.1557999  63.6592979   8.2137184
  56.0408478  64.0196915   8.2688332  55.1290054  63.2188721   7.3642840
  63.1256828  32.5667992  86.1334152  63.3003349  32.1974640  86.9990540
  63.9871902  32.6275978  85.7206879  54.4239273   3.2280900  25.2208195
  55.0942268   3.8874331  25.4002495  53.7876854   3.6783843  24.6652412
  73.6921616  29.4429512  61.1029854  73.5272446  29.7110748  60.1990242
  73.7769012  30.2655048  61.5851212  84.5057602  35.8554840  13.0266857
  84.2178040  36.7683334  13.0309381  84.3593063  35.5539589  13.9232712
  17.7575512  42.5097008  50.0209351  17.1070957  41.8188248  49.8951187
  17.2543049  43.2560844  50.3463364  84.8126068  18.7165432  11.2204075
  84.2655563  19.4019012  11.6041489  84.7057037  18.8257790  10.2754879
  19.2200966  50.8038292  72.9697647  19.1083412  50.8060951  73.9204178
  20.0612278  51.2376366  72.8264465  30.9371033  38.2644958  83.1209717
  30.8430882  39.0687447  82.6105042  31.8497181  38.2693520  83.4096680
  13.3363333  53.3577042  23.4027615  13.9845867  54.0598717  23.3483276
  13.6975441  52.7475739  24.0457973  57.7263565  58.3075104  88.5498581
  56.9266090  58.8226891  88.6558151  58.2210236  58.7695923  87.8730927
  84.6944885  66.7779541  29.1086922  83.7506714  66.9215317  29.0391426
  85.0803375  67.4394684  28.5344524   4.4172115  63.6356964  45.0406418
   4.5943584  62.9603157  45.6954002   5.2201934  64.1557922  45.0097198
  38.1101532  66.9171143  29.9242973  38.7419319  67.6337357  29.9838371
  37.5331955  67.0432663  30.6775818  52.7899017  70.9776535  59.4654465
  52.2243843  70.4815369  58.8735962  52.7283936  71.8808441  59.1544800
  22.1357784  13.0968542  54.8308563  23.0856037  13.1365681  54.7191010
  21.9575558  12.1803732  55.0418777  75.0038071  46.2001305  47.2129631
  74.7926483  45.2842865  47.0316505  74.4500885  46.4304276  47.9590111
  64.7481232  15.0320320  67.0442047  64.8861618  15.8670683  67.4912949
  64.1020508  14.5756712  67.5832367  85.5571442  -0.0099388  81.2386475
  86.1948013  -0.3709204  80.6227646  85.9966888   0.7496802  81.6207581
  68.4863739  15.6254539  69.5880585  68.5929642  16.5632477  69.7474823
  67.5806503  15.4415684  69.8372345   5.7315698  51.4535599  89.0085144
   5.7219987  51.2275009  88.0784454   4.8187718  51.6537819  89.2157440
  70.2048187  67.6020126  61.1380844  69.7093506  67.2118988  60.4179764
  70.8664474  66.9457626  61.3567467  70.6161346  13.9653702  66.1613617
  71.1058960  14.3420286  65.4302750  70.7924118  14.5532389  66.8959122
  65.7847290   6.7556167  81.2180405  66.0219269   7.5029469  81.7670975
  64.8332520   6.6906676  81.2999344  20.8811893  38.7942696  25.8788738
  21.7976589  38.5372543  25.7775898  20.8813076  39.7413673  25.7401676
  76.7312241  55.2305870  51.5283165  76.7864151  56.1547546  51.2852135
  76.4445801  55.2398567  52.4415398  24.9737301   3.8806882  38.0970955
  25.2954960   2.9960883  37.9233704  24.0313187   3.7720034  38.2246895
  78.7248917  66.3652115  63.2985268  79.2653046  66.6456299  62.5599136
  77.8986053  66.0913849  62.9003944  35.2048607  50.4193192  38.8371696
  34.5426521  50.9491539  38.3933372  35.4355774  49.7421989  38.2011566
   0.8954329  20.0480480   2.8529558   0.6344718  20.0778522   3.7734137
   1.4918256  20.7894878   2.7489605  45.9383736  39.9517365  60.2536316
  45.1004448  40.3667984  60.0491028  46.5195923  40.2225609  59.5429497
  74.3696899  42.2441101  23.7984886  74.6753082  41.5616112  24.3959999
  74.9167633  43.0028458  24.0016232   6.2331862  11.4603376  60.2317429
   5.5861506  11.3142262  60.9218369   5.9443583  10.9013796  59.5103722
  50.7200394  40.1613884  14.6066599  50.4637833  40.8909340  14.0424557
  51.4318886  40.5114555  15.1423416  33.7317619  50.5515175  82.1052475
  33.8003731  51.4289169  81.7288284  32.7949028  50.4294167  82.2589340
  19.4736099  21.7924576  23.1046429  18.9625797  22.0245647  23.8800182
  20.1045628  22.5061741  23.0111618  50.1980247  42.0916290  26.4619656
  51.1022415  41.8333817  26.6406517  50.2714310  42.9550171  26.0552673
  18.9186306  20.5668812  82.9684372  18.0926189  20.9919815  82.7377319
  19.3049011  20.3218098  82.1276245  56.6226845   7.8749986  15.4215736
  56.3133469   7.4986706  14.5976086  55.9936600   7.5698180  16.0753517
  85.3985596  43.8521423  59.8044701  84.5380554  44.2623672  59.8909378
  85.9691925  44.3707085  60.3716583  74.0490189  25.6498737  46.3524399
  74.7864075  25.8633537  45.7806702  73.3057556  26.1150627  45.9685249
  28.2291641   8.1219044  82.2383041  27.2857170   8.1447191  82.0782471
  28.3186703   8.3177023  83.1709824  15.1188297  20.8842754   2.5426238
  16.0074291  21.2082825   2.6897366  15.0115070  20.1805077   3.1824863
  33.6054192  52.7535706  25.8324165  32.6767273  52.9687195  25.7459908
  33.6219673  51.9925346  26.4127464  73.8432617  52.8441887  47.8229027
  73.6655655  51.9302864  47.6005478  73.3015137  53.0128136  48.5938187
  54.5404205  68.9888687  29.7147961  54.8810730  69.1228943  30.5992336
  55.3182640  68.8299255  29.1800709  24.3775578  38.5078812   0.8772584
  25.1078796  38.6400032   0.2727706  24.7665100  38.6013145   1.7468656
  74.2717056  44.9140472   1.5988908  73.5933914  45.1917534   2.2145169
  74.2568665  43.9579086   1.6414407   0.5929677  11.2499123  50.1921387
  -0.1796358  10.7505941  50.4567070   0.6847370  11.9239035  50.8655968
  11.0811815   9.0247946  48.8107567  10.2626801   9.2626066  49.2463417
  10.9590149   9.3028994  47.9030304  50.1489029  62.1365471   4.4879174
  50.7186394  62.8944550   4.6191015  50.6831970  61.3869781   4.7504191
  48.8404884  15.3112822   2.8506715  48.9137115  15.5761595   3.7675741
  49.0719414  14.3824863   2.8504622  43.8802452  35.0739288  11.0231123
  43.5994377  35.5174294  11.8235397  43.8646202  35.7569923  10.3527336
  19.0518684  63.9605484  32.0387802  19.2438335  63.0782127  32.3563766
  19.9011784  64.4019394  32.0298309  43.5636902  11.2744312  65.4205780
  42.8781281  11.4549026  64.7774124  43.1448364  10.7012596  66.0626602
  83.5304413  59.4709969  88.5181351  84.0491638  58.7177124  88.8004837
  83.7925491  60.1772079  89.1087189   8.6569128  23.5630322  55.8956108
   9.5514479  23.2232094  55.9192924   8.1677446  22.9147072  55.3890343
  17.2323036  50.5035477  58.3188896  16.7728367  49.7039948  58.0623055
  17.8635197  50.6534119  57.6150856  56.7322502  65.4345474  73.9802704
  56.7719460  64.4872360  74.1116028  55.8114700  65.6112442  73.7874527
  18.8553829  24.7044411   6.2597971  18.8323021  25.1077595   7.1275725
  17.9949417  24.2965622   6.1622887  24.8785915   6.3497324  64.9686279
  25.6274490   5.7602835  64.8792191  25.2226982   7.2114811  64.7336578
  80.8311081  43.8971977  21.2089348  80.6627121  43.6048317  20.3131695
  81.7483673  43.6728859  21.3656425  13.5418272  31.5243187  64.3937302
  13.7689781  31.5091152  63.4640007  14.2230959  32.0616150  64.7979813
   7.3651066  40.8398170  88.4531708   7.2543116  39.9916000  88.0236588
   6.5063014  41.2569504  88.3847122  25.2236385  37.1461220  17.0016937
  24.9381809  38.0500298  17.1347179  24.6055698  36.6222878  17.5114193
  81.1968002  62.3259964  47.3059464  81.3922119  61.4332619  47.0212212
  80.3457336  62.5215416  46.9139137  20.2976227  59.2720299  19.9352455
  21.1755085  59.5715904  19.6990013  19.8774719  60.0413055  20.3198509
  77.8454666  55.4123917  72.3082581  78.6627197  55.0275650  71.9916611
  78.0522690  55.7217751  73.1901627  34.7795677  68.8741760  85.4363480
  34.8349266  69.3922958  86.2392883  33.9457703  69.1310120  85.0425797
  65.0103760  20.9549084  11.7620144  65.0505600  20.1402779  11.2610188
  64.1646576  21.3379192  11.5290060  31.0749111   5.0452571  41.5047798
  30.7884083   5.8034463  42.0139923  31.5094910   5.4212298  40.7392616
  25.4506454   9.5041370  18.5716763  25.0769997   9.5727816  17.6930943
  24.8232346   8.9689417  19.0576324  30.2257996  14.0206432   8.1973629
  29.4679222  14.1916676   8.7564735  30.9578247  14.4372158   8.6521578
  81.7835464  19.4879665  37.7659416  82.3812866  19.9509048  38.3529930
  82.2040558  18.6414680  37.6147881  22.6546001  50.7791023  83.4017715
  21.9432602  50.8413124  82.7643051  23.2749672  51.4576378  83.1353683
  61.0046883  54.6912003  45.6401520  60.3741760  54.1540565  45.1604042
  60.5451660  55.5157776  45.7987328  68.0814896  15.2650967   3.0610182
  68.7055740  14.6994419   2.6062870  67.3420029  15.3394499   2.4578035
  28.1792774  63.6230621  52.5194778  27.2416553  63.6334457  52.3271561
  28.5713520  64.1575241  51.8289261  15.6737032  25.5304604  11.4320650
  16.0868473  24.7920418  11.8795948  14.7742262  25.5360603  11.7593918
  71.1540604  25.9370632  24.2681351  70.2237396  25.9475803  24.4931240
  71.6036377  25.8760586  25.1109829  11.9204531  60.7791862  73.7521210
  11.6440392  61.4360542  73.1131058  11.1252232  60.5737343  74.2436829
  54.8504105  36.3134918   1.2515160  54.2561455  36.5667572   0.5451624
  55.6975861  36.6768265   0.9936192  15.3332968   3.5974874   8.7742090
  14.6012878   3.9356928   8.2584467  14.9916992   2.8015039   9.1815815
  48.6864128  33.6810265  81.3150482  48.7459946  34.6222649  81.4785995
  49.0926399  33.2783775  82.0825653  68.6116562  45.1085892  74.4412994
  67.8582458  45.3631821  73.9085846  69.1363068  44.5535011  73.8643646
  81.5272751  68.8959274  10.5592318  81.8632431  69.7639847  10.7824888
  82.0542831  68.2929840  11.0835867   4.0529470  57.4840012  64.1954956
   4.5874186  57.1575317  64.9193649   4.5042453  57.1794510  63.4082146
  11.0415068  53.3153076  72.5476074  11.5123892  53.7076759  71.8123932
  10.3273706  52.8249893  72.1403885  55.9824028   2.8823769  62.2755966
  56.4510307   2.4753273  61.5469475  55.6704559   2.1456850  62.8011513
  80.6214828  19.2452946  71.3257141  81.0959930  18.5495415  71.7806854
  81.0850372  20.0477161  71.5654297  80.6834183  26.8602180  20.6002808
  80.0367126  26.8414402  19.8948364  80.2203217  27.2547131  21.3393002
  57.0981903  65.6701813  85.3797684  56.7387276  64.7859192  85.3084183
  57.9352608  65.5529251  85.8289871  40.4194565  52.3090820  49.0268555
  41.0836830  52.7403069  49.5645142  40.5103035  52.7133446  48.1639824
  31.4102154  45.3899269  49.4022713  30.8328476  44.9001083  48.8166466
  31.7740459  44.7272110  49.9893532  52.9453506  32.3918152  18.1224537
  52.3874817  31.6529961  18.3656826  53.6692429  32.3614578  18.7479858
  40.2817307  40.7701721   4.0747762  40.9887352  40.4414253   3.5195284
  40.1712379  40.0965652   4.7458029   5.1113367  60.1917152  33.1681137
   5.6979780  60.5925980  33.8095016   4.6725883  60.9321442  32.7491837
  74.3155823  38.2809105  19.8537865  74.0697327  37.9776344  18.9798222
  74.0859070  39.2101326  19.8582668  13.1379786  46.8405991  73.3408508
  13.5413885  47.1979637  72.5497894  12.3354883  46.4203682  73.0315857
  23.1625519  44.2403259  75.4442062  23.3267918  44.5819206  74.5652466
  23.8534870  44.6248970  75.9835968  17.1186714  69.3284073  37.2230339
  16.4045067  69.7817154  37.6710472  17.3444996  69.9020920  36.4908333
  54.9934120  25.3919716  66.8987122  55.4301987  24.5611019  67.0860825
  54.0630798  25.2081699  67.0288315  54.5876579  52.0603790  74.0406113
  53.8048363  52.3148918  74.5291290  54.8812866  52.8688507  73.6206284
  74.3458710  51.3417740  76.6825104  74.7158432  50.6732635  76.1059265
  73.4054489  51.3166428  76.5058289  38.4682045  29.4904175  69.7611542
  37.7618942  30.0931435  69.9936981  38.4368591  28.8127632  70.4364548
  63.5544815  -0.0581929  60.3974419  64.3122406  -0.2545666  60.9483223
  63.4307976   0.8866331  60.4882050  22.9018192  20.1737766   3.5438716
  22.6328030  20.6097240   4.3524580  22.3343067  20.5477982   2.8698759
  86.8548508  48.7956352  16.2071457  85.9657364  49.0095863  15.9244289
  86.7536926  48.4986458  17.1114655  16.4025631  43.2432213  24.4202728
  16.8292999  43.8616066  23.8272095  16.6798000  43.5190544  25.2939377
  71.7671585   5.5035591  87.8076706  71.5020905   5.5466747  86.8889160
  71.6439438   4.5856910  88.0496750   4.3650413  33.6841240  12.7765026
   4.9690809  34.0974960  12.1596642   3.9725654  34.4151688  13.2537508
  56.0971642  69.6197357  32.1447601  56.1874390  70.5725861  32.1571274
  56.3359489  69.3450165  33.0300522  29.8749695  45.2971725  59.8894310
  29.6759949  44.7737579  60.6657524  29.8484917  44.6715164  59.1654930
  63.7906265  14.0592766  20.2074127  62.9583549  13.5878325  20.2434654
  64.0881882  14.0898046  21.1166744  64.8470383  63.5804138  11.7011509
  64.6867142  62.6367683  11.6930580  64.8460846  63.8314514  10.7774563
  41.4968376  44.9495850  62.6560478  40.8563576  45.1724701  63.3315735
  42.3005638  44.7615852  63.1407242  80.7227020  18.4441051  58.9430771
  80.3455048  17.7287731  59.4551849  79.9653244  18.9184437  58.6001282
  68.2014771  64.9323730  72.7799606  67.4316025  65.3957901  73.1097641
  68.7485962  65.6185608  72.3977966   2.2762272  23.4013462  45.2110939
   1.8270913  23.8606548  44.5014839   1.6433157  22.7498322  45.5130577
   3.3615022  29.8900242  53.0778770   4.2287235  30.1102448  52.7377853
   2.7559669  30.3940792  52.5342903  62.8230019  52.1631508  46.9943161
  62.8112564  51.5965118  46.2229424  63.3836746  51.7044144  47.6199684
  67.1301956  13.0069504  26.9774418  68.0725174  12.8419895  26.9449482
  66.8036423  12.6977615  26.1324615  23.8848095  32.7074280   7.0286074
  24.1932278  33.6014290   6.8807297  23.5328579  32.4323692   6.1820230
  14.1746616  17.2488365  83.3817368  14.0535917  18.1957874  83.3120422
  15.1137495  17.1171951  83.2512894  65.6677246   4.1419182   7.1592107
  65.7413864   3.8682866   8.0735035  66.5233536   4.5176578   6.9519734
  30.2285213  54.4645348  14.2935057  29.4577808  54.5021591  14.8598766
  30.7680149  55.2038841  14.5737629  42.0143623  18.7170334  76.5819626
  41.7866173  17.8552742  76.9308701  41.8585205  19.3189220  77.3097458
  81.4778976  66.0420837  42.9349594  80.5451813  66.0826874  42.7237053
  81.6817627  66.9086685  43.2866707  27.8805256  68.3235245  41.2308655
  27.1878834  67.6636734  41.1981544  27.4658489  69.0862656  41.6339798
  37.8561020  60.4624062  83.1626282  38.6038971  60.6555405  82.5971756
  37.0944290  60.5440826  82.5886841  24.1480026  64.1729965  59.9048271
  24.9884148  64.4890747  59.5731163  24.0236568  64.6433868  60.7291527
  41.3822021   1.4037122  86.7782135  42.2271881   1.7111127  87.1064453
  41.2265091   0.5843393  87.2479172   2.6455648  67.5240707  84.6551437
   2.5933242  67.8046875  85.5687943   2.2470417  68.2406998  84.1613235
  78.3961792  57.6417313  41.4038696  77.6820679  57.0848999  41.7140427
  79.1915894  57.1612129  41.6333580  43.7809525  69.9865646  41.4559898
  43.6770973  70.7583389  40.8993797  43.8171616  69.2522812  40.8429985
  50.5283012  49.9929047  19.8678875  51.2238884  50.1814804  20.4978313
  50.1359596  50.8459473  19.6818142  27.5966187  64.6649246  36.3211403
  27.0222855  65.1680832  35.7439041  28.4654827  64.7509918  35.9288406
  44.9264870  54.0296173  79.6397934  45.5165215  54.7743988  79.5240707
  45.4010506  53.4363098  80.2220383  86.0229340  37.2131615  49.3691177
  85.6753235  37.7765427  50.0604935  86.7184830  36.7123604  49.7953148
  45.2509232  57.7180672  57.4405594  46.1678658  57.7235947  57.1659355
  45.2080345  58.3645172  58.1451836  55.1122131   7.4828105  87.4711761
  54.3203583   8.0155487  87.3977814  55.7827911   7.9854875  87.0087128
  73.4443741  39.3252678  77.2851562  73.7082672  39.2531166  76.3678818
  72.5492020  39.6625137  77.2510300  40.3448830  48.7915001  14.8136063
  40.4504128  48.1120605  15.4795303  41.2372589  48.9882660  14.5286798
  37.5197868  25.2476692  67.2106857  37.9896011  25.6369133  67.9482498
  38.2083969  24.9843311  66.6001968   7.5030365  69.8141479  65.5344009
   7.9110527  69.5246429  66.3504486   7.2818575  70.7323837  65.6898041
  10.1317930  34.8166733  80.5270157  10.4939442  34.0549812  80.0743561
  10.6599979  35.5525970  80.2177429  12.1064930  47.1676178  85.5081787
  12.7376595  47.4024849  84.8279648  12.1238432  47.9064980  86.1164398
  12.1537666   2.9353404  76.7720490  12.9894161   3.1106827  77.2046890
  11.5156860   3.4503310  77.2658768  64.0528336  53.8097229  75.8687820
  63.3488884  54.1045647  75.2910538  64.4973373  53.1220589  75.3730316
  22.2644329  42.7934837  64.4749756  22.0214291  43.2295876  63.6582756
  21.9058247  43.3549995  65.1622391  29.6763363  32.6753235  76.1631470
  30.4486618  32.4053726  76.6600037  30.0274086  33.1849670  75.4329147
  43.8666458  25.5206394  12.5879774  44.0590363  25.0106392  11.8011370
  43.3178177  24.9436626  13.1191263  27.2799778  18.0933189  48.5464935
  27.2097187  17.9804344  49.4944153  27.8531265  17.3812904  48.2623253
  40.9066811  11.7287626  71.8966217  40.8629417  11.0534601  71.2196579
  40.4095879  11.3656530  72.6296158  16.3917828  64.3316650  62.0951729
  16.0063190  64.4727020  62.9599037  15.6666164  64.4657211  61.4849319
  31.4643764  52.0839882  13.7063093  31.1075211  52.9006996  14.0554028
  32.3824844  52.2829399  13.5226555  79.7431335  11.6544037  39.1727524
  79.4175186  10.8713150  38.7289276  80.6537094  11.4486542  39.3842888
  -0.1858039  31.2126713  63.3014145  -0.2570955  30.8632412  64.1896973
   0.4507402  31.9238338  63.3741646  78.7880325   2.6628561  57.9335022
  77.9920502   2.9220471  58.3976822  78.5704041   1.8189701  57.5376167
  53.8080559  60.4062767  23.1752167  53.2870865  60.3907356  23.9780769
  54.7156906  60.4208069  23.4788971  84.4507065  18.1534615  43.7856369
  83.9755020  18.4113770  42.9957657  84.5634079  17.2068748  43.6989975
   7.2059107  46.0493279  62.7240028   8.0133324  46.4525108  63.0429764
   7.4926577  45.4550667  62.0305595  56.4857521  17.2632713  88.1275940
  55.5406418  17.1903076  88.2605362  56.7197495  16.4766808  87.6348953
   1.2511510  12.0926342  52.9949837   1.9276083  11.4157705  52.9728012
   1.6604639  12.8538923  52.5836678  53.3447342  52.9434166  69.3874130
  52.5237732  53.0890274  69.8575821  53.3598137  53.6246414  68.7151566
  79.2893677  63.1777763  81.5188293  79.7665253  62.5017242  81.9999924
  79.4964218  63.0088577  80.5996857  28.0058289  44.7021255   4.1221528
  27.0725193  44.7344971   4.3321881  28.3901997  44.1719666   4.8203073
  43.5895538   4.5091252  87.3731308  43.2280731   4.2349825  86.5302734
  44.2846298   5.1268373  87.1461258  78.6792526  48.4375801  50.2485504
  78.0342407  49.0277100  49.8587608  78.9108658  47.8352737  49.5415764
  73.2209854  36.3080139  14.3807583  74.0271759  36.8076210  14.2515974
  73.2589722  36.0239449  15.2940454   2.9192121  27.2052975  86.4670486
   3.5373423  27.4522076  87.1549301   3.3398197  27.4870377  85.6546783
  30.4764690  12.5734968  71.2540359  30.1192970  12.1968460  70.4497986
  31.3541412  12.8683834  71.0112152  51.0597725  45.8697433  35.5221596
  50.4218140  45.4856529  34.9207268  51.8428192  45.3291740  35.4179688
  72.5936890  54.6742401  18.8420811  73.5379868  54.8096924  18.7634220
  72.5025635  54.0183334  19.5332508  23.6973438   0.8675255  47.0129967
  24.3699608   1.3292295  46.5123482  23.9058418   1.0587894  47.9274254
  48.1120949  66.3885498  45.0187798  48.8781319  66.4134521  45.5921898
  48.4758835  66.3237076  44.1357803  44.4722748  57.6452904  48.1807137
  45.3648033  57.3525238  48.3648720  44.0390053  57.6443977  49.0342369
  14.3660479  47.2083473   7.7160754  14.9362907  47.8741684   8.1004419
  14.8244371  46.3823357   7.8704081  83.8595276  27.9534340  37.6555252
  84.0756989  28.5329132  36.9249725  82.9541016  27.6894341  37.4920158
  33.7717552  17.8616047  -0.1102013  32.8436928  17.7630081  -0.3228353
  33.7786865  18.3623238   0.7055578  40.4101830  40.5159035   8.1419468
  39.6021729  41.0138588   8.0178919  40.5492935  40.5171585   9.0889845
  43.8564873  61.6572723  36.6132698  43.2851105  61.4796867  35.8661232
  43.5730438  61.0364494  37.2844391  12.5434437  11.6730967  84.5119858
  13.4362555  11.7930984  84.8355865  12.5983829  11.8735189  83.5776138
  22.4953728  42.1874237  20.0319347  22.1741047  42.2087288  20.9333591
  21.7243748  41.9700737  19.5079556  12.9353170   4.0876122  42.6409721
  12.1797018   4.3217115  42.1020126  12.8081989   4.5737014  43.4557037
  75.7559662   3.3421509  17.0794067  75.3385468   3.3444316  16.2180233
  76.2557602   2.5260811  17.1012039  72.1066437  55.8044853  35.4999542
  71.6133423  56.5982933  35.2931900  72.9021530  55.8725128  34.9719734
  64.0583420   5.4335675  23.4301949  64.1343155   6.1014791  22.7487583
  64.9467545   5.3400583  23.7740211  66.2871552  32.0675087  72.1541595
  65.4761887  31.5792599  72.0121231  66.9254456  31.6438141  71.5803070
   2.5182946  35.1477928  47.2789307   3.1225917  35.8507881  47.0404816
   3.0649230  34.3626823  47.3110580  37.3356209  47.1732101  57.7205772
  36.8347702  46.3678818  57.8502846  37.6575508  47.3982658  58.5934715
  25.3188190   4.2612586  23.8061695  24.4903507   4.7393036  23.7695007
  25.1719456   3.5772533  24.4594669  59.2279434  46.9391289  14.0663385
  58.7582550  46.8722191  13.2349873  58.9374008  46.1771736  14.5675802
  67.7126923  30.2538185   8.4936457  67.4454193  30.4976120   9.3798513
  66.9556656  30.4669209   7.9480047  16.7022095  48.2556801  72.9958267
  16.3707390  47.4057350  73.2855759  16.4318352  48.8650246  73.6827240
  86.2819824  42.9006386  44.1544380  86.3823624  42.3791275  44.9507942
  87.0448914  43.4787140  44.1489563  40.4000969  54.3341980   5.9796624
  40.5930023  53.7055054   5.2841282  40.5484314  53.8474388   6.7903996
  35.8987732  43.4061737  76.7985153  36.1917915  43.2267494  77.6919250
  36.5807495  43.9684753  76.4311523  74.6259232   3.3011446  54.0910454
  74.7574997   2.4504280  54.5096130  74.9324036   3.1761305  53.1928940
  80.6310577  30.8614063  85.9860229  81.4961472  31.0409393  85.6177597
  80.4159622  29.9821892  85.6746674  30.5158253  51.5252228  85.3808365
  30.6207657  51.0046005  84.5844803  29.5760269  51.5007668  85.5608673
  43.5866814  48.5999947   0.9185467  43.5068550  47.9787178   0.1947543
  42.7926941  49.1320381   0.8661748  61.7986450   0.6629093  30.3932190
  62.2082481  -0.0094335  30.9376545  61.3274269   0.1718076  29.7201633
  67.8269577  42.8354683  25.8560486  68.0350266  43.6243362  25.3554211
  67.1252518  42.4146729  25.3592834  81.6001740  28.7915878  88.9173965
  82.1927948  28.3242989  88.3286057  81.9277725  29.6909676  88.9227142
  29.7162361  64.7471619  34.1386795  28.9863262  64.8107376  33.5227051
  30.1723766  63.9440079  33.8874664  28.1326141  61.7190704  82.3962784
  29.0206242  62.0763741  82.3940887  27.5761013  62.4619713  82.6299973
  30.1062641  55.5306854  81.5948715  29.8410511  54.8035698  81.0316696
  29.3068066  56.0426102  81.7174911  59.4232635   8.3635626   4.3014970
  59.4674072   7.7417688   3.5750983  60.3328705   8.4729013   4.5787907
  81.1172638   0.1603992  52.0536156  81.2135620   1.1031702  52.1883049
  81.8400269  -0.0734029  51.4712219  11.2782230  56.9385414  68.9835205
  10.7234869  56.8204193  69.7545929  11.1804657  57.8635368  68.7575684
  10.1868076  22.0943260   1.9203917  10.6806498  21.4483318   2.4254103
  10.8538342  22.6830025   1.5671661  45.7539597   2.9404247  77.9283600
  46.0313835   2.2582748  77.3168564  46.5615845   3.4011796  78.1556854
  58.5321083  31.6402130   0.9249776  58.4330559  32.5922050   0.9365649
  59.4013824  31.4943790   0.5517100  81.3510818   8.8228035  61.3886757
  80.8739853   9.3185501  60.7232094  81.5450439   9.4643593  62.0720634
  84.3580780  61.8441238  46.2453880  84.4132996  60.9177780  46.4800491
  83.9755707  61.8465385  45.3679428  14.4061079  36.1552162   8.2937403
  14.8830366  36.2213707   9.1210203  14.0060301  35.2859383   8.3167753
  67.4288788  37.5432396  18.2635574  66.9153137  38.3232689  18.0537014
  67.9366455  37.7914734  19.0360775  48.4661217  47.4451103  52.7332153
  48.8422089  47.0652084  51.9391975  48.6322594  46.7921028  53.4130783
   0.7081148  25.2614269  35.0717545   1.0497708  25.9976902  34.5643921
   0.7788088  24.5108223  34.4819870   9.3540192  64.6944504  15.8957491
   8.9949675  65.5231476  15.5786152  10.1305971  64.9456329  16.3958130
  82.4213181  13.7070398  79.6323471  82.6740723  12.8003340  79.4584885
  82.2789612  13.7388020  80.5783691  76.3080292   2.2811317   7.8807440
  75.6540298   1.9352853   7.2733617  77.1366577   1.9105422   7.5769935
  31.0552998  15.8950253   0.3733295  31.0157890  16.0997238   1.3075507
  31.8374767  15.3511934   0.2801664   9.0243273  46.0255814  67.5487061
   9.3706522  46.5180702  68.2928467   9.7835855  45.5640221  67.1927261
  47.8153648  62.4706764  26.6970501  47.2527618  62.6492882  25.9435215
  47.8948021  63.3144455  27.1419945  29.8871841  17.8087769  60.6194382
  30.5733604  18.2273064  60.0996056  29.8479404  18.3251801  61.4244347
  64.5775604  31.1889629  46.8595886  65.0326309  32.0214310  46.7325325
  63.6702309  31.4366951  47.0373764  67.1625214  47.9184875   6.2484493
  67.3287506  47.5674782   5.3735814  67.0305099  47.1445045   6.7959476
  64.8823929   8.9066973  86.6545715  65.5413284   8.6634026  86.0043106
  65.1959076   8.5169230  87.4706726  35.1831169  54.9720345  69.8220825
  35.1729584  54.6133270  70.7094727  35.9748192  54.6082382  69.4257355
   4.2164030  47.9750710  13.6277208   3.4300017  47.4970016  13.8908882
   4.4495020  47.6029778  12.7771673  44.4878883  11.1329117   5.9674029
  45.2048454  10.5094204   6.0834260  44.8854980  11.9881973   6.1305676
  37.6412354  36.7613716  65.5881042  38.1828575  36.7317772  66.3767776
  37.6319275  37.6854019  65.3384781  68.7807541  55.7353210  46.3363152
  69.1905212  54.9088898  46.5919189  69.2700348  56.0161629  45.5630302
   8.1938305  60.7056999  10.3109350   8.1914120  60.5281563   9.3703480
   7.6885238  59.9873581  10.6915693  85.2045746  29.7681999  48.4504433
  85.0118027  30.7018032  48.3640976  84.7304077  29.3578415  47.7272530
  52.8291092  48.6553078  36.5146179  53.4416618  49.2722664  36.9150810
  52.6248131  48.0332947  37.2128983  46.5537834  53.1517448  87.1166229
  47.1760254  53.6868935  87.6092300  46.1988678  52.5412178  87.7627792
  70.1484299   5.4445553  24.1618385  70.9404373   5.7198267  24.6235542
  70.4211655   4.6814456  23.6524162  39.9396858  62.7271500  23.8405361
  39.2798920  62.9653015  24.4918327  39.6464195  63.1538048  23.0354309
   7.2284222  22.1272755   2.2321033   8.1297216  22.1227150   1.9098150
   6.8137250  22.8579178   1.7733889  47.6895523  63.8252754  65.2675781
  48.4415817  63.3173180  64.9631805  46.9347916  63.4081268  64.8521805
  13.0040255  33.0177002  87.4827652  13.6608238  33.0092354  88.1790237
  12.1883650  32.7731628  87.9199448  57.4159012  23.6583214  47.7366447
  56.4814339  23.8409767  47.6384506  57.4613304  23.0166454  48.4454575
   4.6383214  67.0593643  64.6089325   4.6254168  66.2039566  64.1795807
   5.0280576  66.8909073  65.4668121  68.8964233  13.9417858  71.8968506
  68.7644043  14.5229197  72.6459045  68.9662094  14.5311489  71.1458435
  75.1034088  21.5053444  37.8605461  75.4604340  20.6890163  37.5107269
  75.6718597  22.1877594  37.5036163  66.1073914  62.0021477  58.4114456
  66.4935532  61.3299255  57.8499985  65.4510651  61.5346527  58.9280930
  20.6220379  41.3091202  68.7193756  20.6981277  41.3054848  69.6735382
  21.0331173  40.4899940  68.4431915  53.2616119   8.0547724  13.5776892
  52.5817337   7.5513706  14.0255585  54.0121765   7.4619999  13.5388985
  74.0172119  70.4836044  70.9960098  74.6153412  69.7476807  70.8660507
  73.8799210  70.5163651  71.9427414  80.0275116  62.8437195  43.0363197
  79.8402863  62.5845604  42.1340904  79.5538483  62.2070503  43.5715981
  51.8701286  13.8781958  26.7511864  51.0747986  13.8365259  27.2821751
  51.7456207  13.2069368  26.0802593   2.7833011  19.7811871  32.5980873
   2.8043065  18.9024849  32.9771271   1.9038556  19.8618126  32.2288895
  56.3516235  49.7577553  48.7311401  56.1129112  48.8875771  48.4117050
  56.5819397  50.2477951  47.9418068  77.6326141  55.7643166  30.7079372
  78.2505112  56.4893341  30.6141663  77.8442841  55.1741600  29.9846516
  51.5460052  43.4758530  70.1673584  51.2080002  44.3218155  70.4611816
  51.9152908  43.6528854  69.3021851  30.0379086  58.9967346  78.7408981
  30.3601418  59.2574348  77.8780899  30.6260929  58.2924881  79.0134888
   1.5269966   0.5592610  68.1282272   1.8526686   0.3883927  67.2444992
   2.2560682   0.9918596  68.5726852  75.1087265  61.4732780   1.6888571
  74.6172562  61.9112053   0.9939444  75.9792175  61.3345795   1.3157132
  61.4277687   7.2584891  62.1068878  60.6398430   7.7116365  62.4069862
  61.4202156   7.3690772  61.1561241   8.5093222   3.7911375  46.3949547
   8.3166533   4.5819592  46.8986511   7.7486401   3.2270908  46.5344048
  21.5814152  18.3143520  13.1771135  22.1237011  18.4072685  12.3938351
  21.0933723  19.1361256  13.2294054  49.0844002  46.9979172  16.1944866
  49.2145348  46.1510086  15.7678251  48.3374786  46.8603439  16.7770824
  21.7530842  49.2300072  46.9508896  21.7735615  50.1538734  47.2004471
  21.0724525  48.8473778  47.5045738  68.2098541  14.0813742  80.8307266
  68.2582932  14.2773495  79.8950577  67.2723465  14.0594549  81.0226288
  66.1600800  68.9650345  52.5696068  66.4423523  68.1310577  52.9451637
  65.2043228  68.9362183  52.6135254   1.1141249  55.7229385  87.5279465
   1.9974574  55.6960297  87.8956833   0.8412783  54.8061218  87.4928207
  55.2681084  63.1849518  45.5799561  54.7293968  63.9080658  45.9010887
  55.6518860  63.5146713  44.7674103  22.7864075  35.8822479   2.7330949
  23.6970062  35.5993729   2.8169141  22.6683521  36.5210075   3.4361460
   0.3307158  47.3632507  33.3644981   0.9562132  47.9513893  33.7876740
   0.8674230  46.8132782  32.7937889  75.1951523   2.1089225  71.8008347
  74.7157211   1.7133315  71.0729065  75.8719635   2.6401298  71.3813400
  73.9927673  67.2896805  79.8741531  74.2058487  66.6596069  79.1857910
  74.8166885  67.4189835  80.3438950  78.9513321   9.0315285  64.7044373
  78.8416214   8.4580622  65.4629440  78.8726578   8.4480858  63.9496956
  15.7062225  50.7339745  46.8601570  16.0736656  50.6421471  47.7392387
  15.7104273  51.6770058  46.6961136  46.6853867  66.4872818   5.6550927
  47.2834625  65.8141098   5.3304806  46.3185425  66.8831329   4.8645511
  49.0330811  66.1445618  39.5816994  49.8427849  65.7827988  39.2215042
  48.3770027  65.4652786  39.4255829  38.9543076  49.3395576  76.2525024
  39.4728127  48.5709648  76.0145035  39.2190781  49.5383568  77.1506195
  56.2607002  36.8704376   6.7012215  56.1791840  36.4647751   7.5643697
  56.7991333  37.6474190   6.8516288  64.3168793  25.6421337  64.2247238
  64.8265305  24.8755474  64.4870911  64.8743515  26.0953465  63.5922203
  43.5337448   1.7760131  13.1496086  42.8673325   2.0239871  13.7904158
  43.9940453   1.0411115  13.5549192  63.3465195  22.0043602  81.0007935
  64.0351105  22.4225521  80.4838867  63.3594093  21.0890598  80.7209854
  64.1044083  54.8093338  10.7593927  63.2331848  54.8221626  11.1556749
  63.9395027  54.7129517   9.8214436  28.9942131  68.5601425  77.9517822
  29.2070618  67.8355179  78.5398636  28.2055454  68.9505234  78.3283997
  43.4342613  10.5948954  26.3339157  43.8160172   9.9552002  25.7328453
  42.6179390  10.1903133  26.6274509   1.5089836  64.9436646  12.6648197
   0.8951082  64.5434875  13.2806520   2.3288727  64.4689255  12.8013353
  54.0737267  11.6949854  83.2066193  53.4829712  11.6399374  82.4554825
  54.7818604  11.0851336  82.9995956  73.8442688  56.8663673  16.8178596
  74.5523224  56.6540031  17.4259605  73.5715179  56.0202675  16.4629555
  60.2261124  13.7963104  30.1493855  60.0574226  13.5537148  29.2389336
  59.8174973  14.6563034  30.2477531  29.0895081  64.0333405  72.2901688
  29.5588894  63.3023415  72.6921082  28.2992668  64.1315842  72.8212967
  65.6161041  23.3941784   5.2070932  64.8785782  23.5159111   5.8049812
  65.8109818  24.2741890   4.8848562  45.1303101  11.9314461   1.8811811
  44.3049545  12.0652981   2.3471215  45.7385063  11.6259604   2.5542421
  61.9268913  27.6753330   4.8246341  61.4971924  28.5093880   4.6350508
  61.2725830  27.1739559   5.3111844   8.2404518   8.7258053  54.3058281
   7.7948184   9.2945738  54.9336395   9.1707563   8.9126720  54.4317093
  69.0352249  11.1406317   9.1312351  69.2124710  11.9285002   9.6451225
  68.5332794  11.4534559   8.3786240  67.9760513   7.5828052  79.5087509
  67.1430511   7.2894249  79.8779068  68.5869064   7.5565367  80.2452316
  84.6717529   4.8153744   6.1238532  84.9495163   5.2688017   6.9197702
  85.1614532   3.9929755   6.1334262  67.4998474  57.2292137  24.7557640
  67.1331863  58.1058006  24.8714504  67.6558914  57.1572189  23.8141155
  73.1367111  18.9375019  82.7614746  74.0205307  18.8963966  83.1267242
  72.9329834  18.0326405  82.5249252  61.4437485  28.4126472  82.2185516
  61.6124153  28.6085567  81.2969208  62.1700859  28.8233910  82.6875458
  27.4667225  56.8270340  85.4317856  27.8168621  56.9285660  86.3168411
  27.2507172  57.7178345  85.1560135  30.2237701  69.1004868  69.8828812
  29.3265228  69.2474060  69.5835648  30.1912041  68.2556992  70.3317719
  47.9948540  51.4611931  57.9757729  48.0750351  51.5485878  57.0259476
  47.7681580  50.5414619  58.1133842  56.2263336  38.2003174  16.8115807
  55.5159721  38.6070290  16.3153896  56.6974869  38.9362335  17.2023125
  58.1849174  51.6618118  73.6580124  58.0214462  52.4705887  73.1728439
  58.0250244  50.9645233  73.0220413  13.5602417  62.7664452  25.2133598
  13.8788328  62.0948982  25.8164845  12.7051973  62.4451599  24.9271679
  34.3823929  56.4575615  51.4780617  35.0154610  55.7616844  51.3013954
  34.2489700  56.8809319  50.6300125  18.1817513  41.7984581  11.2429943
  18.6681652  41.0877419  11.6607418  17.2689934  41.6365356  11.4815006
  62.8072357   9.5421867  63.4399910  63.0692291   9.2547760  64.3146286
  62.1201172   8.9278221  63.1818085  62.3679848  56.1927376  57.4984055
  61.7603035  55.9022865  58.1785469  63.2282715  56.1623497  57.9169884
  64.9699554  22.1572838  87.1109390  64.1684113  22.6726093  87.0203857
  65.4901581  22.6350498  87.7569733  55.0453568  26.7686825  32.4969788
  54.8683090  27.6527920  32.1756783  54.6893768  26.7609825  33.3854904
  58.7257652  11.1580095  41.7770920  58.8521576  12.0709238  42.0356331
  59.4566002  10.9727068  41.1873665  21.2947521  26.4676495  74.9272079
  22.0680599  26.8916988  74.5551758  21.5695457  26.1935329  75.8021851
  16.5958023   5.7736020  33.5936623  17.3865223   5.6915102  33.0605049
  16.3914127   4.8768005  33.8586235  46.1138687  38.6871223  13.5554504
  46.3581543  38.1726036  14.3247538  45.1615677  38.7654190  13.6121979
  78.0563812  43.6717529   7.7395940  78.6039047  43.0127144   8.1663437
  78.2870560  44.4927559   8.1743050  13.8439274   6.0700512  33.0893364
  14.7992735   6.0616488  33.0303841  13.5847826   6.8865914  32.6623268
  86.1330338  46.6991615   8.2218809  86.8182449  46.5244102   8.8669996
  86.4267197  46.2456818   7.4317307  34.0658302  66.1759567  57.3559532
  34.8228989  65.8399353  57.8357086  33.3417206  65.6105881  57.6247673
  31.1060085  48.4670067  79.4567184  31.5744286  49.2983475  79.3813171
  30.2426987  48.7081299  79.7925644  49.9340286   9.2327337  11.3347540
  50.7468376   8.8920746  10.9612236  49.5728188   8.4988070  11.8318548
  22.5225983  11.7369251   2.1468556  22.8117981  10.9004784   1.7822298
  22.1248360  11.5073853   2.9866941  78.8167496  46.9892235  26.2529621
  79.6633453  46.8373947  25.8328972  78.2889328  46.2285957  26.0098915
  80.5621109  33.5982361  29.5852280  80.4858551  34.2124329  30.3154163
  81.4873581  33.6290970  29.3419189   6.2176924  40.0437584  57.2593575
   5.8715787  40.0178032  58.1514130   6.7556314  39.2552299  57.1881256
  14.2805834   4.2267442  19.7133179  13.5754232   4.7137585  19.2869396
  15.0029354   4.8521595  19.7707157  12.6111650  48.5063820  18.8890114
  12.0800791  48.5964088  19.6802597  13.5046120  48.6923790  19.1777840
  21.9848976  70.3758545  19.1509686  21.4446583  69.8426208  19.7340927
  21.9956474  71.2415009  19.5593510  58.8304214  57.1667252  21.9008846
  58.3500595  57.5393105  21.1615181  59.6184311  57.7056274  21.9705639
  63.5266838   8.0774822   9.6296749  63.7509651   8.4589329  10.4784536
  62.7274399   8.5333834   9.3658743   9.4650707  38.7668114  61.7936211
   8.8213873  38.3688393  61.2075119   8.9473667  39.1024361  62.5254478
   5.2469549  59.7072983  55.3231697   4.9902077  60.6287651  55.3579750
   4.4573159  59.2493629  55.0350723   6.1274681  12.6162596  51.1764755
   5.7405677  13.3052816  50.6362991   5.4530473  11.9383516  51.2192383
  40.0126114  47.1836662  17.5495586  39.5443840  46.3550339  17.6513538
  39.5676231  47.7851295  18.1466007  56.9355087  20.6138668  76.7612228
  56.4740028  20.4842834  77.5897446  57.3020325  19.7541904  76.5542145
  70.2002487  18.9140015  12.8125238  69.2727737  18.6793480  12.7814035
  70.2236786  19.8335304  12.5476637  85.4125900  59.9921684  86.3828201
  84.9020157  59.7567139  87.1574860  85.7807312  59.1630249  86.0774918
   5.8489137  15.4610300  67.8407898   6.7281914  15.0836153  67.8664932
   5.4651041  15.1193123  67.0332336  16.1886768  43.5526466  71.4209137
  16.6917133  42.8634148  71.8546677  16.7463589  43.8364487  70.6965637
  74.3497391   1.3474935  78.2988586  74.4888687   1.9603400  79.0208664
  73.8439178   0.6327280  78.6854935  26.0655251  31.6522408  75.5339966
  26.3608742  32.4029427  76.0492172  25.1186180  31.6251259  75.6713409
  27.8276787  69.1138382  35.7917023  28.0028973  69.0030823  36.7261887
  26.9670963  68.7158051  35.6605530  36.0649757  38.3438988  86.3097382
  36.6863365  37.8840065  85.7452545  36.5661316  38.5515060  87.0983887
  60.5174179  71.0041733  82.9527206  59.6234398  70.7527313  83.1846848
  61.0597382  70.6266861  83.6452713  59.1261864   8.4034777  38.6384048
  59.5636177   8.7093334  37.8438377  59.0067482   7.4639668  38.4995346
  39.6610260  36.3544312  86.3812408  39.5457878  36.3321190  87.3312149
  39.6545906  35.4343033  86.1175156  47.1287422   1.1563846   9.4575834
  47.4174385   0.8955446   8.5830278  47.2832794   2.1004996   9.4891567
  24.1231441  48.8651352  68.4067993  24.9210186  49.2410240  68.0348663
  23.4940662  49.5865784  68.4028168  19.4170017  36.2553749  82.7669373
  19.9455662  36.8766861  83.2677612  19.0143890  35.6944847  83.4299088
  86.8253326  34.7138939  12.3637447  87.0320740  33.8240013  12.6493587
  86.0628204  34.9621239  12.8864183  13.7998257  68.8117065  70.5649338
  14.1852551  69.6841660  70.6454697  14.2525005  68.4177933  69.8191833
  78.7736206   0.3043284   2.8537002  78.7614746   1.0693579   3.4288645
  78.4747620   0.6363670   2.0071394  51.5148621  42.4548798  37.8478737
  51.0260925  42.4408073  38.6707611  51.7001381  43.3814774  37.6951599
   1.6133265   0.1333248  71.5021591   1.7783741   0.8501021  70.8896027
   0.9255227   0.4650773  72.0792999   9.8392315  49.8516006   1.4045460
   9.3955927  50.6052589   1.7936665   9.7599936  49.9882011   0.4604623
  83.0359497  67.9251099   3.3888607  83.1789398  68.2488785   2.4995022
  82.1313248  67.6122284   3.3872950  13.6170092  62.9685860  14.7292404
  13.8125591  63.3473511  15.5862865  12.6618261  62.9114189  14.7049456
   6.0794144  58.3190804  77.1292267   6.6798105  58.8040352  76.5630341
   5.5127497  57.8410149  76.5237656  75.3932877  27.6644592  63.7222824
  75.6915359  26.7553539  63.7507095  75.9398575  28.0750008  63.0522423
  58.4145203  20.8068218  42.8005447  58.7835045  20.2717094  42.0978813
  58.4253998  21.6987438  42.4532852  10.9520893  42.1283760  50.7150955
  11.7844696  42.5911560  50.8110619  10.5100584  42.5774536  49.9945641
  83.5392914  23.0506859  62.3848381  82.8796005  23.6317654  62.7635117
  83.1428680  22.1803303  62.4243813  15.7458515  17.1298065   9.8600388
  15.1875744  17.9004097   9.7564583  16.2570972  17.0940132   9.0515966
  14.5598059  63.8200493  52.0101509  15.4837008  64.0700302  52.0228271
  14.1459513  64.4617615  51.4329491  33.6491165  22.4393272   8.4912300
  34.1425095  23.1082935   8.0165958  34.2506905  21.6974335   8.5539570
  37.1158867  53.0273933  22.6227207  36.2054901  52.9212494  22.8986607
  37.3931084  53.8512955  23.0234261   1.4736860  58.5876694   8.6483088
   0.7203678  58.3456306   9.1869736   2.2288089  58.4649963   9.2236109
  55.8008537  65.1481552   3.8040764  56.0161095  65.8581848   3.1992991
  55.2993660  65.5710449   4.5011482  68.5317459  21.4305630  63.8278122
  67.9224014  21.5320930  64.5589905  68.1490784  20.7359428  63.2918091
  49.0216980  22.8606796  64.5644836  48.5454788  23.5462818  65.0328827
  49.5514374  22.4340992  65.2380142  47.8582878  18.9331646  28.4337139
  47.8522644  19.2133732  27.5184669  47.8198318  17.9776497  28.3919201
  47.6620407  66.4808350  26.1186790  47.1140785  65.7044754  26.0036507
  48.3935547  66.1799622  26.6577492  59.5001945  11.0687218  53.6813812
  59.9183121  10.7023926  54.4606171  60.0215912  11.8435745  53.4716682
  71.6376419  69.7357483  86.8810272  71.7614670  69.1065979  86.1703491
  70.9542236  69.3480835  87.4277344  64.8295135  51.0581512  27.4990540
  64.1948166  51.4864159  26.9246159  64.7812424  50.1322327  27.2611904
  17.6372967  27.0547104  56.0228081  17.2712040  26.9748421  55.1419983
  18.0525188  27.9171085  56.0323143  14.1457901  68.5750732  57.9481125
  14.7299128  67.9869919  57.4693680  13.8074846  68.0427475  58.6681213
  16.0642414  27.1287823   0.2273034  16.5526390  27.0583038  -0.5928985
  15.8519821  26.2244091   0.4581407  54.2537117  70.2657547  76.3698196
  54.8054466  70.8755875  75.8799973  53.9850693  69.6133270  75.7229767
  11.3490877   4.6287613  78.8591309  11.3231592   4.5987759  79.8155136
  10.6471128   5.2337141  78.6193466  48.5487938  21.8781300  59.4464645
  47.8482933  22.3763409  59.8675575  48.7511024  21.1779480  60.0669861
  35.3434219   5.7605476  40.1721687  35.6864891   4.8671780  40.1514931
  36.0998535   6.3122621  39.9730377   2.0009336   8.6564589  35.7205276
   1.7434436   9.5779972  35.6941071   2.7574668   8.6023216  35.1366119
  61.2085304  33.7665253  36.3639374  61.5243263  32.8654671  36.2961349
  60.8882942  33.8410873  37.2628899  13.7357111  43.5609322  29.4872475
  13.9466381  43.4535217  30.4147186  12.7995567  43.3694687  29.4307861
  52.6168900  54.3046188   1.2228185  51.6613579  54.3100815   1.1665996
  52.8984222  53.7909355   0.4657850  57.2055702  37.1690941  88.8288727
  56.6173553  37.4439507  88.1255264  57.9470367  36.7660179  88.3772125
  82.3968430  21.5255814  85.7499237  82.4180908  22.4814892  85.7949066
  81.4878235  21.3160439  85.5354462  63.7029572  42.4662628  49.3970528
  63.2314377  42.9410820  48.7126198  63.3767548  42.8396988  50.2158127
  15.3007565  70.8892746  86.0923615  15.3781776  69.9432602  86.2160645
  15.0293999  70.9901047  85.1799850  86.6345825   1.6881506  16.8165684
  86.3518295   2.3972659  16.2391262  85.8895493   1.5425692  17.3996315
  15.0505915   0.9123495  70.8812027  15.5500336   0.6971197  70.0935059
  14.9749413   1.8663931  70.8636017  70.9328613  67.5235748  27.9578762
  71.6583862  67.7436295  28.5421886  71.1494980  66.6528854  27.6244221
  46.9797592  16.3088245  64.1938019  47.9092255  16.0934849  64.2709885
  46.7089615  15.9084988  63.3675842  82.9629517  45.8640137  87.3159103
  83.5404968  45.1049576  87.2352448  83.4523621  46.5812416  86.9130554
  83.2795639  25.6984081  47.6610909  83.0626755  25.4903564  48.5698853
  82.7005844  25.1395664  47.1427155  66.3365173  28.9103699  85.8170929
  66.7537918  28.0503330  85.7675934  67.0649490  29.5311909  85.8026733
  62.0209122  12.7284489  43.6715279  62.8739853  12.9589539  43.3036079
  61.3877487  13.1520653  43.0919724  70.8446426  69.6752090  37.4828377
  70.1141205  69.4940643  38.0742416  70.6605530  70.5477905  37.1350670
  37.5495186  46.3041267   0.8510092  37.3912849  46.8037987   1.6519603
  38.0136833  45.5204582   1.1453631  73.1584396  61.5749855   8.7127085
  73.6764984  61.7127419   7.9196930  73.6063538  60.8638687   9.1708841
  78.8238449  38.6251907  16.1018639  77.9023056  38.8791351  16.0517654
  78.8884888  37.8475838  15.5474443  41.4253120  39.9322510  22.9047756
  40.6179657  39.6751976  22.4594078  41.1364288  40.2479706  23.7609882
   8.2131739  15.5140295  50.4598579   7.2575150  15.5571985  50.4269333
   8.4916410  15.6810904  49.5594254  45.0983658  71.0864410  16.9822960
  45.2727470  71.9989700  16.7518463  45.0483437  71.0861588  17.9381886
  30.5745087  63.2089691  88.5694122  31.2026863  63.9240646  88.6707153
  30.5287514  63.0624008  87.6246109  36.3940544  68.7578735  23.5372181
  35.6221237  68.2015991  23.4327545  36.1747284  69.3373413  24.2668343
  66.8371887  28.8051910  55.6136971  66.5587692  28.2587376  54.8787804
  67.5591660  28.3198700  56.0129967  68.0931396  56.4147606  53.9051132
  68.2329865  57.1262245  54.5300102  68.1395874  56.8368607  53.0472641
  14.3027582  49.9255867  57.8194695  13.7220459  49.1647110  57.8280983
  14.7071028  49.9281311  58.6870728  24.6731625  47.0628738  22.4110394
  24.3599072  47.3997879  23.2504387  25.2129250  46.3070831  22.6427059
  77.0960617  38.2533798  20.4411888  76.1573792  38.1973724  20.2624073
  77.1495972  38.5584221  21.3469028  62.4625473  63.4862747  66.7315369
  63.3775749  63.4652977  67.0117416  62.4830856  63.1837769  65.8236237
  27.4118252  63.6997223  87.4843292  27.7318363  64.4731979  87.0200500
  27.5218697  63.9138756  88.4107513  70.2252197  42.1293755   9.2701950
  70.9788208  42.6516266   8.9952993  69.4693680  42.6914482   9.0999174
  74.8871994   6.6041059  52.2555313  74.3077393   6.7952228  52.9930496
  74.3261261   6.1619005  51.6184425   9.1005049  34.7219048  39.4770164
   9.4309492  35.4273262  40.0332718   8.4603968  34.2658997  40.0234184
  35.9310188  69.3537064  35.8216858  35.2773895  68.9531708  36.3949013
  35.6778412  70.2757492  35.7773094  27.8609619   4.4150176  41.9266281
  28.6235886   3.8413055  41.8525543  28.0859547   5.1817489  41.3996239
  75.7044449  10.8149319  53.2507286  75.7669296  11.4161425  53.9929352
  75.3006210  11.3340960  52.5552940  57.1016922  37.0964775  24.0570564
  56.4556465  37.1416168  23.3522034  56.6337852  37.4094620  24.8312263
  78.1017532  33.3969841  68.7977829  78.6446991  33.5657234  69.5678253
  77.9358978  34.2637558  68.4270630  31.5232563   1.1464025  26.2544613
  30.9744511   1.4889408  26.9599476  32.0297165   1.9020467  25.9565811
  67.5512390  59.9633942  50.8692703  66.9555130  60.5708427  51.3078537
  67.2395172  59.9333458  49.9647484  11.4703636  25.8825207  86.3302917
  11.8780384  25.0650711  86.6163177  10.6609659  25.6084251  85.8990402
  68.9707031  59.3675499   2.5606956  69.2381897  59.9545784   1.8535321
  68.9527435  59.9235573   3.3396482  71.6278763  68.3788834   4.0845909
  70.8253098  68.7735138   3.7434430  72.1611404  68.2108231   3.3076665
  43.8701744  39.7520294  63.4493332  44.0621834  39.2205353  64.2219162
  42.9995766  39.4663506  63.1724243  76.5336304  69.9503555  39.5218315
  75.6917419  69.6106720  39.8252678  76.9690781  70.2566452  40.3173218
  12.3541842  59.9326210  55.6325569  13.2162523  59.6311417  55.3458824
  12.3705473  59.8345947  56.5845833  62.0063248   8.3247471  14.8963804
  61.4157257   8.9836559  14.5313301  61.7985992   7.5239105  14.4149847
  68.1947632  18.6965103  29.7156315  67.4803772  18.2413559  30.1614075
  68.8553009  18.0195141  29.5686474  24.1165180  59.9029427  28.4157772
  23.2263508  60.2477264  28.3453693  24.4825573  60.0036125  27.5370789
  65.2157364   1.6515888  35.5194664  65.9029007   1.2257515  36.0320091
  64.9393539   2.3927405  36.0584831  76.9329987  62.8002510  86.8200836
  76.0257721  63.0731544  86.6833878  77.2418518  63.3482780  87.5415421
  11.6669388  27.0513687  11.6412811  12.4268188  27.3192177  12.1580696
  11.2863913  27.8731461  11.3312845   2.0200281  61.1512756  18.9113293
   2.3228843  61.3764877  19.7909832   1.0657004  61.2005730  18.9666481
  12.4207277  24.6559124  78.1804428  11.4949398  24.4141960  78.1535721
  12.5932598  24.8409405  79.1036072   1.5333396  62.9859848   8.8803577
   0.7267231  63.2783165   9.3047895   1.5321767  63.4298325   8.0322828
  31.6489544  21.2707577  70.2951202  32.5253792  21.3669415  70.6677628
  31.1417103  20.8410454  70.9838028   5.5472207  50.7737961   3.2053072
   5.5918164  50.8127785   2.2499416   5.9124398  51.6093178   3.4964204
  55.0118141  54.7029533  73.5500870  54.7004814  55.0020714  74.4043884
  54.6118469  55.3069916  72.9244690  59.2384949  41.4635658  57.3270683
  58.4060936  41.3073502  57.7730865  59.1580086  40.9923325  56.4977951
  70.8553772  12.5029373  29.9263439  70.4933395  11.6416416  30.1345005
  70.1100464  13.0014696  29.5914211  40.9228401   1.9961449  74.6139603
  40.3141174   2.2271678  73.9123077  41.6216583   1.5113384  74.1748123
  30.0963650  41.2519379  13.5036516  30.0324516  42.0848198  13.9710407
  30.6673603  41.4386787  12.7584496  24.5290585   5.7900033  32.3266525
  25.1978931   5.5380507  31.6899338  25.0015068   6.3088164  32.9776993
  27.6482010  65.4840012  20.7601528  27.2864552  65.4844513  19.8739414
  27.6924496  64.5584793  21.0003204  42.5726357  71.1190491  18.9588184
  43.4989777  71.1793365  19.1922321  42.1584511  71.8391418  19.4343796
  34.2806244  58.3675308  23.3156776  34.2308693  57.4141502  23.2462711
  34.5246964  58.5289192  24.2270584  60.5836029  60.3633194  66.0875397
  60.6225967  59.6070518  65.5020752  60.3997726  59.9897423  66.9494400
  53.0860291  21.2073135  14.5234470  53.9459152  20.8770409  14.7837229
  52.5182610  21.0103836  15.2684898  72.5452271  28.7025108  71.4805984
  73.1510544  28.4577446  72.1800919  72.7053375  29.6358070  71.3407516
  25.3820782  49.2670822  73.6366348  26.2350025  49.6250992  73.8827515
  25.4006786  48.3642197  73.9540024  45.9955063  25.5236168   9.4460926
  46.2127266  24.7089348   9.8992376  46.8013649  25.7662392   8.9900665
  48.6755257  59.1048317  24.8072586  48.0690193  58.7442017  25.4540405
  49.1239967  58.3398590  24.4468079   0.7737491  35.7257538  35.5724068
   1.5933790  35.2843056  35.3497810   1.0469614  36.5276146  36.0180588
  12.6500044  38.2232208   4.8521757  12.5855865  39.1496239   4.6200962
  11.7733564  37.9916306   5.1589084  80.7235031  56.7309036  10.7030907
  80.6076813  57.1335640   9.8424606  79.8339081  56.6283951  11.0412378
  30.3525276  20.2223091  79.3564758  30.7735367  19.5368614  78.8376846
  30.9815578  20.4173985  80.0510941  13.9220552  58.4825172  43.5854225
  14.3070984  58.4571571  42.7094460  13.1554680  59.0483627  43.4937973
  57.2716026  26.6478329  29.7541904  58.0217400  26.0968952  29.5305920
  57.4582214  26.9584904  30.6401348  13.2009192  55.8937759  43.5109825
  13.5022011  56.8005028  43.4534492  13.6869850  55.5262604  44.2491608
  22.6388550  65.5422287  79.3151016  22.0509663  65.5918503  80.0688629
  23.3493996  66.1482010  79.5252380   8.5592289  59.0755310  26.0020409
   8.2491121  59.3466873  26.8660622   8.3702021  59.8226929  25.4343719
  50.0894547  64.5555038  80.6925049  49.3345680  64.7802963  80.1485825
  50.1156960  65.2404404  81.3606415  21.2828007  69.6326370  45.5891571
  20.9383278  68.9175949  45.0541077  20.7485466  70.3898849  45.3496132
  24.2888508  53.0674324  56.1132851  24.8239517  53.4659882  56.7996178
  23.4725647  53.5671959  56.1254539   1.4577678  25.3831120   1.2104481
   2.1181009  25.0503139   0.6026341   1.7117584  26.2928905   1.3654410
  83.6709518  22.7919979  17.4232388  84.0197678  22.7198372  16.5347843
  83.3825684  23.7019653  17.4941502  34.6540222   2.5659156  80.3771973
  34.6434097   1.6634263  80.0583954  34.6406555   2.4832754  81.3307266
  40.8335419  14.1727924   7.6438074  41.6817474  14.6077404   7.7309756
  40.2331810  14.8695974   7.3787394  69.2565994  11.5500975   2.3681948
  68.8377151  11.9913664   1.6292408  70.1917191  11.5795422   2.1659465
  51.8723183  44.1191788  56.5441475  50.9930801  43.9384155  56.8765564
  51.9108047  45.0731010  56.4749870   4.8646626  52.7233543  23.2102203
   5.1764483  53.6275406  23.2485676   5.5932660  52.2348022  22.8272266
   4.7729125  20.0777340  58.9319382   4.4974513  20.6912251  59.6131020
   4.3263488  19.2599926  59.1512794  43.7343369   6.2325168  35.1456833
  42.8681870   6.2562084  34.7389259  44.1020470   5.3905115  34.8772621
  51.4836693  52.6473999  32.5297775  50.6540375  52.1866608  32.4046478
  51.9383965  52.1429901  33.2043343  20.3543205  65.8058624  82.8665085
  19.8153858  65.8662415  83.6552658  19.7893333  65.3789520  82.2224884
  57.4361267  20.8717136  20.2355347  56.9209404  21.0619946  19.4515667
  57.8507309  21.7053280  20.4578438   0.6180065  36.1695175  29.5335236
   0.7585528  35.3134232  29.9379749   0.9076516  36.7975159  30.1953030
  29.4985867  17.8034210  18.6586533  29.4708824  17.7003460  19.6098843
  28.7154808  17.3505669  18.3457603  26.9482441   6.8732295  55.9482346
  26.7489262   5.9462004  55.8173828  27.8905201   6.9397717  55.7935715
  72.5469589  11.1232958  22.8620071  72.0008316  11.8955879  23.0087662
  72.1700974  10.4518719  23.4306870  36.2862320  28.4233341  16.2686920
  37.2427750  28.3881855  16.2637997  36.0795784  29.3442116  16.1089745
  62.7733803  48.3509483  38.5435829  62.3700752  49.2125168  38.4373856
  62.3155632  47.9624290  39.2890282  72.5910797  71.5857697  29.9932213
  72.4514847  70.6716080  30.2403355  73.5256424  71.6398468  29.7934628
  51.5640259  57.7299118  24.0047474  52.4645081  57.4534912  24.1748981
  51.0835533  57.4799118  24.7939739  68.6418152   5.1841221  78.2976074
  68.4277573   6.0958076  78.4956970  68.1645355   4.6777711  78.9549026
  17.2330341  33.6477928  13.5586185  17.1534081  34.0102539  14.4409523
  17.1984444  32.6996269  13.6851683  82.3400879  65.3407288  67.0545197
  82.1112976  65.2809296  66.1269913  82.6230316  66.2473907  67.1734467
  75.9443741  60.7699280  84.7139740  76.4763336  59.9759712  84.6602631
  76.3508224  61.2837982  85.4118042  53.6074371  15.0824080  76.4585342
  53.4174957  15.7548618  77.1127243  52.8512421  15.0985842  75.8719025
   7.1567068  67.1707687  68.5894775   6.7922673  67.9136047  69.0707397
   7.5446305  66.6147079  69.2651596  74.1424866  21.7468109  64.2081146
  74.0624161  21.2300491  63.4063797  75.0850372  21.8702202  64.3203964
  35.0413322  55.6252289   5.1573138  35.1992226  56.3744583   4.5828958
  35.8500786  55.5352478   5.6613636  37.4730377  46.3069305  70.1469040
  37.3258095  46.0031433  69.2512131  38.0905838  45.6753082  70.5155792
  38.7197571  31.2311363  60.8734207  39.6364517  31.5027122  60.9198036
  38.5857582  30.7046528  61.6615143  85.4036026  60.6538506  15.3435163
  86.1507568  60.0807037  15.5152359  84.6728668  60.2384796  15.8014822
  77.9412842  67.1625671  74.4513931  77.0404053  66.8771744  74.6037216
  78.4169235  66.3567810  74.2496567  82.2615585  58.1270676  84.9840164
  82.7673950  57.5496445  85.5557938  82.7971954  58.2123566  84.1953125
  39.3569336  68.5225906  34.9222412  40.2198677  68.5161133  35.3364105
  38.7547913  68.2620316  35.6192093  21.4606953  50.5425072  52.7490311
  22.0971508  51.0949860  52.2952385  20.8257008  50.3042488  52.0735703
  58.5618973  66.2037430   2.3244040  57.7095108  66.5700607   2.0888617
  59.1016693  66.3323822   1.5444499  50.5442085  58.6254387  53.7707787
  50.8963737  59.4953423  53.9591331  51.2805977  58.0318985  53.9180069
  61.3704987  32.0766029  84.1780853  61.9729462  32.2181396  84.9083252
  60.5525131  31.8016586  84.5922470  85.7136230  15.2053061  67.3955460
  84.8784637  14.7469854  67.4887466  86.2105713  14.6735649  66.7738342
  49.9761353  44.6882019  22.4556713  50.6822548  44.0432892  22.4142208
  50.0729065  45.0942841  23.3170452  38.9121208  26.5828419  69.0050735
  39.2524338  27.0074253  69.7925644  38.6723366  27.3071537  68.4270477
  15.3625374  71.1628876  73.2422562  15.4704466  71.4067993  72.3229675
  16.2345982  70.8820190  73.5194855  46.3326187  54.9819031  45.2639694
  46.8563919  55.6339951  45.7294464  46.3271446  54.2205849  45.8441353
  57.6368828   5.8649812  68.7947693  56.8307228   6.2060490  69.1820831
  57.3911934   5.6274056  67.9006653   4.9686918  15.3641787  30.2818756
   5.8317542  15.6795559  30.0137482   4.3520670  15.9360132  29.8246994
  40.8102493  26.3450546  87.2710876  40.2870331  26.1521053  86.4931107
  40.7716866  25.5421791  87.7908325  24.0128174  54.4096527  27.9859409
  24.2442913  53.7506752  28.6404667  24.1346741  55.2462311  28.4348450
  20.0322399  40.5038795  15.8763905  19.1775837  40.1278229  15.6657314
  20.0934696  41.2835388  15.3244734  76.5757523  56.2184105  56.7292137
  76.2306137  56.5344887  55.8942223  75.8481827  56.3198051  57.3428917
  12.3762941  42.8752747  66.2493668  12.6248598  42.4221840  65.4436646
  12.0247631  42.1861076  66.8130264  51.8181000  20.2741947  16.8074799
  50.8861542  20.3619843  17.0074730  51.9901619  19.3350239  16.8751869
  65.8259735  69.2107544  34.0417671  65.9271622  68.6560516  33.2682686
  65.8020782  68.5965271  34.7755165  83.3760223   2.9039619  41.0743256
  82.8306198   3.5665188  41.4983330  84.2740860   3.1814160  41.2552605
  60.9035873  53.2063332   3.6221309  61.7299194  52.7800789   3.3947246
  61.1630707  54.0515366   3.9889164  69.1894531  41.3503036  35.7908630
  69.6718063  40.9143715  36.4933739  69.3731918  40.8247490  35.0122337
  49.3651123  44.7198181  78.9662170  49.6823730  45.6037979  78.7813950
  48.5829468  44.6274529  78.4222336  34.1821060  71.1982040  28.1559830
  33.5282669  70.5411453  28.3947353  34.0228920  71.9245605  28.7587109
  18.6413574  53.9814529  33.2784653  18.2709446  53.6023598  32.4813995
  19.5867310  53.9777946  33.1284981  24.7428455  57.5799103  41.5009499
  25.0380116  57.5819855  40.5903969  25.1044502  58.3848686  41.8717842
  77.3455887  51.4831123  73.6843109  77.2506638  50.6384506  74.1245041
  76.4729691  51.6730652  73.3397980  43.5141411  17.4306107  66.8635559
  42.8407707  17.7049770  66.2410355  43.2967834  17.8952160  67.6717148
  46.1369553   4.5674410  43.9751968  46.3290596   3.6482739  44.1608315
  46.4120522   4.6908855  43.0667305  19.3242397  57.2274017  64.6198730
  19.7565594  56.4130402  64.8770599  19.8397083  57.5489693  63.8802032
  55.2836151  25.3700447  58.1163025  55.9036293  25.9176254  57.6346703
  55.0692711  24.6609116  57.5101509  42.1287956  37.7532921   6.5503373
  41.4749527  38.3357201   6.1636901  41.6183739  37.0356140   6.9253554
  66.5394287  19.8965607  77.0129776  66.9129562  20.4888191  76.3603363
  65.7944336  20.3770905  77.3739471  32.1555557  61.1773987  47.8111267
  32.0939674  60.4478455  48.4277229  33.0952682  61.2942200  47.6713905
  27.6140404  47.8074951   1.7709482  27.0678368  48.5395660   1.4846572
  28.1863346  48.1829872   2.4400630  19.2484837   8.6231527  11.6883860
  18.6598549   7.8887181  11.5141611  18.6725578   9.3864288  11.7325306
  83.5302200  58.1621437  82.1254883  84.0248260  58.9401474  81.8679810
  82.9361267  58.0024338  81.3921585   5.0069165  24.9058819  68.5891800
   4.2439709  25.4148560  68.3151474   5.6657076  25.0812016  67.9172516
  30.5045948  48.5583267   2.6235018  30.7823086  49.0784111   3.3775709
  30.5294361  47.6533890   2.9344621  83.6208878  69.4662399  28.6727009
  84.3767700  69.2978745  28.1100845  82.9158936  68.9446335  28.2891159
  19.1777554  50.9845657  42.6095009  19.7554817  50.4036980  43.1045341
  19.7618752  51.4500198  42.0108452  66.8754349  61.1664047  86.9234619
  66.1127930  61.0490303  86.3570404  67.1856003  60.2772217  87.0948639
   5.9022899   2.2555764  37.8465652   6.3909497   3.0018733  38.1936722
   6.0862985   2.2647703  36.9072609  22.9169865  69.3078232  14.3198328
  23.2694397  70.0947952  14.7353783  22.3521881  69.6383209  13.6212587
  17.4481831  67.3133545  39.1270027  17.0923767  67.7976151  39.8720741
  17.4696121  67.9520798  38.4143982  71.2269363  58.4218330  34.9420815
  71.4697266  59.1184959  34.3322029  70.6655197  58.8526535  35.5866241
  66.1858292  32.7416039  50.4780235  67.0719147  32.6330452  50.1326370
  65.6930771  32.0092049  50.1078568  24.0192223  50.5498047  55.5580406
  24.1592216  51.4931030  55.6406364  23.0793247  50.4340553  55.6974106
  80.3913422  42.7161751  18.3870392  81.0242844  42.8348694  17.6788502
  80.5219040  41.8130455  18.6760864  79.8218536  28.5848751   3.6584625
  80.7552719  28.6900578   3.8426085  79.6214981  27.6919460   3.9391129
  75.2075806  39.8570061  36.8175583  76.1090088  39.5576286  36.9360428
  74.7898102  39.1630402  36.3075485  16.9227543  17.7434464   7.3874269
  17.6864395  18.0282879   6.8855495  16.3493805  18.5096741   7.4066291
  23.6240845   8.7178259  87.3234634  24.2204456   9.2285357  87.8709717
  22.7499847   8.9897652  87.6031570  40.2686958  69.3027496  30.0730858
  39.6500397  70.0198288  30.2120094  40.8239098  69.3109894  30.8527660
   0.0168636  44.9549179  77.7101212   0.1356726  44.3802261  78.4663239
   0.8595100  44.9313698  77.2566681   3.7601757  56.4240150  69.5588150
   3.9390674  55.8304710  68.8294830   2.8723917  56.1998825  69.8378067
  54.0165215  11.2518101   7.1759167  53.4837875  10.6999950   7.7485666
  54.1451073  12.0594044   7.6733990  14.7539654  59.7870178  64.0517960
  13.9555073  59.5789604  63.5666046  14.8788986  59.0411377  64.6385574
  22.1959267   7.6690016  65.8239822  22.6859512   7.2374139  66.5238647
  22.8286896   7.7642174  65.1120987  18.5859623  38.5452080  86.2144852
  18.2206192  39.1251488  85.5463333  18.9950294  39.1360550  86.8467789
  52.2079697  15.0676470  36.8956032  51.6076546  15.8100815  36.8274574
  51.6689453  14.3040609  36.6891479  48.9979820  30.5749893  62.6900024
  48.0831528  30.3948021  62.4735413  49.4473801  29.7427998  62.5425758
  74.3784256  43.6959419  45.8921509  73.4746933  43.8573036  46.1631775
  74.3113251  43.4481926  44.9700089  68.0479050  67.4741592  86.0828094
  67.6392288  68.0977554  85.4825211  68.4000397  68.0166016  86.7884903
   2.4951935   2.6297567  15.3628521   1.8663313   2.0339789  15.7700539
   2.2776115   3.4898446  15.7222118  44.1238136  71.3997192  63.7657852
  44.2121773  70.4753876  63.9982414  44.9367294  71.6098709  63.3061829
  29.0895710  69.3246384   8.5168657  28.6388168  70.1007004   8.1840277
  28.7017994  68.5960693   8.0320482  83.4879684  36.4398117  66.1108322
  83.0940018  35.6085510  66.3754730  83.0136261  36.6877785  65.3172684
  54.2332230  37.3223953  37.2499962  55.0623055  37.6417542  36.8938141
  54.1268883  37.7988586  38.0733452  48.4264717  15.5985994  19.3973083
  48.5474510  16.0835781  20.2136364  47.8746414  16.1673012  18.8603802
  34.4035645  57.7694016  66.5386505  33.8779564  56.9716682  66.4787750
  34.0443077  58.2369003  67.2927094  23.7829838  24.4194717  15.0542450
  24.6625366  24.5671806  14.7066803  23.1983643  24.6484661  14.3317404
  22.1585026  30.0631275  14.3048105  21.9438686  29.1445503  14.1423922
  23.1091652  30.1086159  14.2027988  67.6230850  58.9372292  39.0862503
  67.4181900  59.6744957  39.6613083  66.9739380  58.2706184  39.3109322
  11.1107407  21.0079746  78.4952316  10.7066269  20.4938335  79.1942215
  10.8079405  21.9026814  78.6502838  52.3857117  59.4300079  20.7635326
  52.1368103  60.0594406  20.0867062  52.8955803  59.9422493  21.3911285
  50.7002373  53.9656410  66.5534821  51.4520950  54.4077492  66.9477997
  49.9385757  54.3921165  66.9461899  74.1845169  12.1202383  78.4034195
  73.9453506  11.3505163  78.9197083  74.9879913  11.8645315  77.9503403
  83.1714706  57.8501320  63.0213776  84.1134262  58.0089493  63.0824471
  82.8750610  57.8149147  63.9308434  28.4125957   5.1503010   8.9793787
  28.1913624   4.3354330   9.4302416  29.3692245   5.1799726   8.9939184
  46.7715950  42.3846283  80.4229279  46.8238373  42.2216759  79.4811478
  46.6891212  41.5141449  80.8124008  51.4409027  47.4380455  22.6193027
  52.0861473  46.7312660  22.6382751  51.7230110  48.0006065  21.8980732
   3.4939125  69.1883774  67.9758530   2.9998586  68.3767929  68.0919113
   3.5271008  69.3150635  67.0276566  24.9482384  48.4747658  84.5816650
  24.3581352  48.2941093  83.8499680  24.9268780  49.4269562  84.6771164
  33.3874207  57.9620934  77.4719696  34.3429489  58.0088043  77.5038528
  33.1301918  57.7104454  78.3589478  36.3942184  55.6371536  10.7826986
  36.1334763  55.9599686  11.6452732  35.8116951  54.8956070  10.6183481
  82.6951370  25.3077660  55.5979729  82.8640747  26.2007122  55.8985405
  83.4959259  25.0539665  55.1391182   1.3607749  50.8905449  82.8207855
   1.9257725  51.5041275  83.2903900   0.4946098  51.2973480  82.8431778
  24.2061424  49.1711731   8.0834961  23.5516739  49.1431160   7.3855586
  25.0056190  49.4701538   7.6502771  50.4702148  22.5350151  83.7594452
  51.2855492  22.7899075  83.3275986  49.7807503  22.8845749  83.1949310
  74.7031479   8.4972954  38.6044540  73.8275375   8.8408298  38.4268684
  74.5541382   7.7488031  39.1821976  49.2208176  19.4789963  30.7652245
  49.9278107  19.0649281  30.2703114  48.4359970  19.3191319  30.2410736
  75.5962524  51.9049034   3.1220467  76.1566696  52.0085068   3.8910937
  74.7335892  52.2008018   3.4127073  76.7900620   4.1222920  56.1981506
  77.4817429   3.6765852  56.6871910  76.4983444   3.4771674  55.5539894
  38.1042519  63.2017479  25.9076500  38.3060951  64.0910339  26.1986141
  38.5578613  62.6364288  26.5328560  84.7449951  50.7188377  62.3771706
  84.5175705  50.2655716  63.1889954  83.9017105  50.9344025  61.9788895
  25.5060482  11.3932343  23.9741364  25.8252316  12.2951345  23.9436493
  26.1350937  10.9352617  24.5316257  56.3594856  22.7126999  68.4842758
  56.1353607  23.3019428  69.2045441  56.8670158  22.0133438  68.8960342
  32.3577652  10.2285614  59.1089554  32.9064217  10.2419767  58.3247185
  32.0970993   9.3123779  59.2032547  53.1793137  16.3942566  52.8810959
  52.3474808  16.3084812  52.4153366  52.9416771  16.7709332  53.7283707
  82.6327820  39.2566452  47.0386887  83.4369583  39.7273636  46.8197060
  82.4240341  38.7585678  46.2483902  46.5591621  31.6304073  79.1763840
  46.2266273  31.2741699  78.3525238  46.8629112  32.5099030  78.9517593
  18.5890121  48.0731621  77.1426239  18.7207031  47.8501244  76.2211304
  18.0233955  47.3779907  77.4788437  40.9276123  16.9674530  63.1894722
  41.5282135  16.9347858  62.4448624  40.0775871  16.7246876  62.8223839
  60.8351974  31.0522728  88.3448639  60.9896965  30.3975391  87.6639175
  61.6016808  30.9904671  88.9148788  85.2967529  46.3777008  67.4878387
  85.4395294  46.5588150  66.5588379  85.3790131  47.2310333  67.9136276
  83.3004303  26.4202461  29.0990295  84.1847076  26.5975628  29.4197178
  83.3718796  26.4923878  28.1472301  22.4484787  61.9689331  47.0120659
  21.8998718  62.0801735  46.2356071  22.9427757  61.1668282  46.8431664
  27.8266888  32.1828079   9.6654854  27.5556984  31.9827995  10.5614719
  28.5915833  32.7491875   9.7673836  85.0588074  18.8375587   1.8522298
  84.5019073  19.0721035   2.5945787  85.5577927  19.6329937   1.6664125
  48.0497704  55.9686661  70.3769226  47.6503029  56.6152344  70.9588242
  48.1694527  55.1938286  70.9260483  49.8490257   6.9862952  27.6766510
  48.9537392   7.3067813  27.7861099  50.1846466   6.9036503  28.5692654
  70.6026077   5.2285986  20.4766064  71.5202789   5.2010217  20.7474575
  70.4654694   6.1304507  20.1866302  12.2633142  36.2249565  77.4721909
  11.4067650  35.8272057  77.6282272  12.5099955  35.9266930  76.5967407
  54.5614624  54.1355553  83.7083359  55.0130196  54.8146362  84.2095184
  55.2644844  53.5853806  83.3629456  73.9714203  34.5421066  80.0913544
  74.1531677  35.3054237  79.5431366  73.1018982  34.2513161  79.8164062
  38.9396210  13.1670237  59.2574196  38.8228340  13.0194998  58.3188934
  38.9112320  12.2913256  59.6428757  39.4825363  55.2951393  80.8373489
  40.3554001  55.1856041  80.4600677  39.4802666  56.1887856  81.1803131
  20.0960999  34.6141243  19.4147148  20.1141033  35.5710907  19.4037495
  19.9086723  34.3677025  18.5089684  52.1894836  40.8678856  59.2056274
  51.6569710  40.3991699  58.5630035  52.4343987  40.2002792  59.8463707
  43.4295387  62.3863678  18.0487137  43.3992500  61.9484520  18.8993282
  44.3444519  62.3169670  17.7760429  40.9178429  23.1852837  12.8530941
  40.7038498  23.7756596  12.1306696  41.8721161  23.2223320  12.9180498
   4.5083666  34.3817825  68.5370789   5.2772927  34.6703377  69.0287323
   4.5447965  33.4260178  68.5747452  63.5087357  52.4177475  62.6277466
  63.2989311  52.3299713  61.6979561  64.4626389  52.3479919  62.6656609
  72.6398392  54.5731850  53.3295746  71.7961349  54.7401924  53.7496948
  72.6319580  53.6347542  53.1410980  36.7366829  31.0658817   4.6245728
  35.8684769  31.3749752   4.3659048  36.8126640  31.3096046   5.5471010
   5.6097999  48.6990204  81.6778107   4.8292241  49.1711082  81.3878632
   6.2367625  48.8111916  80.9632721  35.0112419  64.2709732  82.5290909
  34.1212730  64.3586655  82.8703995  35.5400810  64.8376465  83.0907288
   9.2283449   0.3994464  71.1000290   9.2051535  -0.5234203  71.3530350
  10.1527424   0.5769991  70.9262619  32.1397896  14.7708397  10.2543926
  31.7036610  14.1659613  10.8545141  32.0598373  15.6262398  10.6764469
  68.6345367   7.6181254  23.5426979  69.0960007   6.8873849  23.9541626
  68.7984314   8.3618641  24.1225433  16.8904152  53.6942787  14.4568996
  17.4576321  54.2364311  15.0051394  17.1600914  52.7959633  14.6480541
  15.9085283  48.3498001  79.8189697  16.1760292  47.8719292  79.0339127
  14.9607468  48.4482422  79.7281265  33.4243393   3.9956086  52.2563057
  33.0816231   3.5310357  51.4927940  34.3743095   3.8997412  52.1884995
  38.4678574  58.3123741   6.0247116  38.6808434  59.1982841   5.7314095
  38.9737778  58.1983147   6.8292389  66.7922974  59.8360634  24.1173191
  67.2364731  60.1127281  23.3158226  66.4407043  60.6455421  24.4879303
   1.6932695   0.4954487  59.6651497   1.2978129  -0.0473142  60.3472443
   0.9849933   1.0709018  59.3763046  55.8244209  68.0751877  84.8128052
  56.3253403  67.2638474  84.8966827  55.5123901  68.2567596  85.6993179
  77.8050232  14.1170292  77.6579361  76.9111099  13.7786255  77.6066360
  77.7035141  15.0146713  77.9744186  62.7377625  70.8375244  73.5985794
  63.3910599  71.4646912  73.9085617  62.1505508  70.7149734  74.3444977
  55.4280663  60.5483513  80.6290283  54.7422600  59.9488335  80.9231033
  55.1378174  61.4098244  80.9287872  11.5763626  10.9534597   0.9846392
  11.1420479  10.6476965   0.1883281  12.4753780  11.1367245   0.7118433
  74.7880402   0.7629734  55.5845299  74.4190445   0.1536329  54.9451752
  74.7745590   0.2802315  56.4109764  52.6152382  45.0091705  88.3755951
  52.1108818  45.8064156  88.5376587  53.3580894  45.2991714  87.8461609
   5.0612664  14.8143511  13.3603830   4.7532611  15.6851377  13.6115713
   4.8369460  14.2568159  14.1054115  53.3406487  30.7654610  85.6643524
  53.9968529  31.2590408  86.1562958  53.1420860  30.0115051  86.2196503
  30.9353714  53.5618134   5.0794778  31.7211151  53.8548965   4.6180272
  31.1871471  53.5585747   6.0029659  58.9447746  70.9024811  35.6313324
  58.7404518  70.2704163  36.3205147  59.7312889  70.5536194  35.2118988
  80.8616638   4.5348353  65.0711899  80.6050339   3.6132643  65.0383224
  81.5666733   4.5642142  65.7179718  84.0476608  20.5360222  39.0811691
  84.7122726  20.1031246  39.6169968  84.5467758  20.9992676  38.4084778
  80.1106720  31.3617516  78.2432861  80.6353302  31.0529270  77.5046387
  80.6299591  31.1386242  79.0158005  45.7751617  22.2517776  15.2158966
  46.7097397  22.4584389  15.2063484  45.4613495  22.6001244  16.0504074
  64.8572998  48.4409866  57.2972832  64.3811722  48.3237419  56.4752197
  64.1976242  48.3056793  57.9775429   8.6515217  70.2269821  84.0064468
   9.5550413  70.3589172  84.2936325   8.5206413  70.8806915  83.3195953
   7.0009971  64.5564804  13.1249552   6.6525836  64.7361679  13.9981985
   7.3474569  65.3977585  12.8275433  22.5039711  44.2892227  79.1110535
  22.6002483  44.7209206  79.9599304  23.0211143  44.8251839  78.5097656
  14.8531876  55.8411179  54.2718239  15.1627855  56.7384186  54.3952446
  14.3097296  55.6674156  55.0404053  52.8771820   4.5681720  51.4313583
  52.5309601   4.9719448  50.6355400  52.8848457   3.6302757  51.2402496
  30.8575001   4.9512792  68.7242889  30.7905293   5.0254283  69.6762619
  30.0085106   5.2520876  68.4003067  68.8243942  61.9862289  18.0464630
  68.4111099  62.0615082  17.1863689  68.9614410  61.0463219  18.1648960
  39.8235321  61.8539238  53.0293236  39.0360451  62.2840157  53.3626709
  39.6572189  60.9195900  53.1541824  84.0565186  20.9394112  42.3280373
  83.5366287  21.7328434  42.4561653  84.9264679  21.1675816  42.6556816
   9.8838816  62.7941017  66.5302582   9.3610487  62.2170944  67.0869827
  10.4048920  63.3116760  67.1441803  32.0567131  48.5921288  14.0416994
  32.0470200  47.9894257  14.7852650  32.9831123  48.7922897  13.9076948
  29.0790997  69.7198639  23.2517223  28.1523418  69.4987411  23.3436699
  29.3383675  70.0307236  24.1191196  61.2640610  23.0122185  29.9518051
  61.6252556  22.3195744  30.5049915  62.0290451  23.4105587  29.5366459
  35.8400497  18.3484631   2.4338963  36.3053436  17.5119991   2.4260712
  36.2812958  18.8616619   3.1107721  51.9298019  19.9192410  80.3045578
  51.5377159  20.1208687  79.4549408  51.1881752  19.8862476  80.9088211
  63.4590073  65.9710846   8.0044498  64.1954575  66.5770264   7.9225698
  62.8537750  66.2346573   7.3113008  15.3079023  42.7829819  78.3602753
  16.1013203  42.3461533  78.0505905  15.6206093  43.4213219  79.0013351
  60.0799446  40.8907356  83.7107239  60.6022606  40.8117218  82.9124908
  59.9646072  39.9894257  84.0116806  24.3014202  30.5327435   1.8920054
  24.8319607  31.2165604   2.3008482  23.4363327  30.9295731   1.7901186
  67.5467911  49.9288292  64.8530273  67.9723740  50.0554771  65.7010117
  66.9008255  49.2400589  65.0097351  25.6100006  44.6589813  23.4622707
  26.5336227  44.4371414  23.5803490  25.1782913  44.3100967  24.2421036
  47.5733833  51.9422569  12.2650890  47.5155449  51.5152702  13.1198215
  46.7939224  52.4960670  12.2207766   6.3294258  18.9488697  21.3953724
   5.9892726  18.7692242  22.2718754   7.1493907  18.4569969  21.3512096
  27.1554165  10.5304651  53.7719955  27.2203331  10.5519495  54.7267494
  26.2193623  10.4321537  53.5977249   3.6328130  36.7926865  12.8902140
   2.7939322  36.7040787  12.4378204   4.1754003  37.3047791  12.2905560
  26.6704483  43.4843826  65.0775528  26.0825882  43.0458870  65.6926727
  26.2796402  44.3484039  64.9472809  74.8331528  35.5628014  10.1494513
  74.1164398  35.5039558  10.7811861  75.3912125  34.8113289  10.3496704
  37.7154388  11.7480440  88.0319443  37.3601456  11.2813826  88.7884064
  37.8056030  11.0758095  87.3565216   8.5325089  63.3149300  86.4433289
   8.4894485  62.6401024  87.1208191   8.1174097  64.0803223  86.8409348
  33.3363647  70.3296432  50.3344955  33.9058762  70.3633652  49.5658951
  33.8639870  70.7036972  51.0401421  30.4677792  35.5552254  11.8299837
  30.1635036  34.9037399  12.4618187  29.7515106  36.1877594  11.7744045
  86.6108322  35.7278214  83.0308914  87.4718857  35.9370918  82.6689072
  86.0150986  36.3424988  82.6025238  32.9488106  41.3229256  63.1867905
  32.6632004  40.5565910  63.6841698  32.4603081  42.0520859  63.5687904
  77.1497803   8.6657658  76.6454391  76.4804535   8.2584438  77.1952820
  77.6024170   7.9294882  76.2340469  65.0691681   4.6996870  88.2766953
  64.3901825   5.1734362  88.7570877  65.8478928   4.7722483  88.8285599
  28.1320534  57.4801674  82.2967148  28.0008430  58.1823196  82.9338989
  27.7545910  56.7053032  82.7130585  24.5702477   6.0583572  84.5477600
  24.0084877   6.8186450  84.3973618  24.0110703   5.4355025  85.0120926
  57.9964142  19.5040760  72.3740463  58.7837868  20.0457821  72.4272232
  58.2860870  18.6331425  72.6456985  62.9108810  28.4140091  56.0410461
  63.0643425  28.2424431  56.9701576  63.3069611  29.2717400  55.8872566
  42.7013245  35.9965401  17.1795769  42.1590691  35.5702972  17.8432827
  43.5994644  35.7754974  17.4259853  81.7659912  14.1100702  16.1492596
  80.8554306  14.4050198  16.1599216  81.7120895  13.1731720  15.9607191
  67.3708572  23.9405460  43.1892776  67.6467743  23.2241230  42.6175804
  66.5625916  24.2656784  42.7927551  19.9781208  64.0388336  65.0063553
  19.9151573  63.2876358  65.5962372  20.5680447  64.6457062  65.4534988
   3.0013955  18.3435574  88.5567474   3.8640590  18.0294056  88.8275833
   2.3855240  17.8455410  89.0942535  60.7885399  41.3498459  23.5916138
  60.7889671  40.9320297  24.4528122  60.1610565  40.8405762  23.0786400
  47.2588005  20.8305645  11.9176769  46.3501663  20.8584099  11.6179457
  47.6396408  21.6509075  11.6042604  22.2425079   3.5419209  38.5268707
  21.5002193   2.9395068  38.4785461  21.8806877   4.3891640  38.2670708
  39.0081711  31.1885910  11.6400213  39.4626427  31.9167957  11.2164593
  39.7050705  30.5767918  11.8772221  75.6488266  33.3042831  73.6319046
  74.9026642  33.3622704  74.2286606  76.4137344  33.4412193  74.1908340
  69.4856644   3.5222843  82.1865463  69.7835464   2.7840428  82.7180557
  70.2712784   4.0519786  82.0506439  42.6382484  56.7255211  42.4251137
  42.5939713  55.8123131  42.1417046  42.1193504  56.7522430  43.2290154
  82.4247589   7.2120399  50.7798042  82.2296295   6.3886518  50.3323784
  81.5740662   7.5248590  51.0875359  54.1699829  56.1700821  75.8667755
  54.7562103  56.1972771  76.6229706  54.3018837  57.0120964  75.4310608
  53.9011993  13.1406488  28.9365616  54.0685577  12.1983232  28.9522591
  52.9709358  13.2151804  28.7237492  42.7126045  36.0907593  75.0944138
  42.6168404  36.9460258  75.5134430  43.5740166  35.7817154  75.3749466
  52.4334106   2.6937821   4.1602421  52.3558006   2.4990785   3.2262726
  52.0732689   1.9216909   4.5965953  57.5314598  69.4210510   6.2935948
  56.7025261  69.5247955   5.8263326  58.1869316  69.7943115   5.7042985
  61.1100464  61.7933197  57.5175934  60.6027794  61.3637047  58.2063179
  61.9950104  61.4425430  57.6177139   7.8048315  47.1291771  85.9161530
   7.5301204  47.6442337  85.1575470   8.3879385  46.4619446  85.5541916
   3.6594887   1.5550063  69.7175064   2.9531560   2.1151001  70.0394135
   4.4184093   1.7979610  70.2478333   3.6587315  31.6334591  34.7793388
   3.8997152  32.0491753  33.9514847   2.9658039  32.1903648  35.1342201
  21.6954842  13.3548412  57.7450714  22.3966999  12.8422575  58.1472969
  21.7547836  13.1508389  56.8117447  29.8550720  31.7097473  86.3739395
  30.6566010  32.2129898  86.2306519  29.4738064  31.6129780  85.5012970
  21.8007641  51.2274170   3.6251585  21.9147053  52.1776581   3.6080675
  21.9517555  50.9517822   2.7210231  58.3959579  16.6879387  72.5691147
  57.6523247  16.1891060  72.9073486  58.5990372  16.2755032  71.7295380
  23.8583260  15.1810646  49.7866631  23.8760128  14.4475403  49.1719589
  24.3677120  14.8765354  50.5376778  23.5718555  58.7024231  25.2352657
  24.3003197  59.2991295  25.4070587  23.9098530  58.0950470  24.5771751
  67.8407669  28.6826725  35.3563271  67.6670151  29.4376240  34.7941055
  67.8899231  27.9410896  34.7531128  20.2818184  52.6220665  28.5835533
  21.1680908  52.4717255  28.9124146  20.3263512  53.4782066  28.1577911
  52.5699730  16.6652222  32.9393349  52.6813736  17.5916061  32.7257118
  51.8603516  16.3713512  32.3681030   0.2661842  43.2732468  41.2034187
   0.5471219  43.7981186  41.9529648  -0.2446038  43.8781357  40.6654282
   1.7005957   6.9749699  55.9769325   2.2583721   6.2261028  55.7664185
   2.3060045   7.6397519  56.3052254  75.8926544  41.5354195  55.4649620
  76.5905380  40.8982658  55.3125725  76.3507767  42.3653984  55.5972023
   2.2646799  38.0465355  66.1509247   2.2489715  37.0903206  66.1913376
   2.8748014  38.2462578  65.4409256  74.7211533  14.0613403  38.0454712
  75.4750824  13.5749359  37.7119522  74.2092896  13.4102383  38.5253639
   2.0663977  21.5659409  36.0598946   2.8147438  20.9696121  36.0353317
   1.5115361  21.2251854  36.7614975   2.6741526  20.0306797  63.1586494
   3.2743289  19.8111897  63.8712807   1.9055314  19.4821281  63.3153152
  67.3880386  39.8130684  71.2949371  68.0342331  39.8155746  70.5887833
  67.0985489  38.9024467  71.3514557  75.2555389   3.4226227  51.4731483
  74.7615204   4.1769314  51.1519051  75.1013641   2.7397163  50.8203850
  18.7242851  31.8760662  16.0003052  18.7329979  32.3662567  16.8224182
  19.6486511  31.7641048  15.7783976   7.8934026  55.6909409  56.5866585
   8.5539980  55.7898941  57.2722626   8.0358896  54.8092957  56.2422256
   9.8701639  60.8298759  36.7714424   9.9499722  61.7836037  36.7550201
   9.0072899  60.6682663  37.1529694  28.2718925  64.9461441   0.9806250
  29.1391602  64.9137497   1.3843955  28.3619061  65.5816040   0.2704650
  64.5433350  50.7394600  48.5298691  65.4381790  50.4185486  48.4180984
  64.2101212  50.2604408  49.2886467  82.4202728  21.8070107  31.3606644
  82.3270340  22.7033138  31.6834335  82.8845062  21.8991318  30.5286617
  53.6887169  33.1780701  54.2723389  52.7644501  33.0063286  54.4525337
  53.7358398  34.1255608  54.1447830  29.3336010  22.5745735   0.1764570
  29.1153049  23.4153404   0.5785608  29.0366859  21.9216557   0.8103117
   4.5328088  25.1238956  84.6202774   4.3416085  25.6564274  85.3923416
   5.4178543  25.3830090  84.3637924  71.5295334  56.9774895  13.0531731
  72.2620316  56.7129898  13.6096992  71.2107849  57.7897072  13.4467850
  56.3622894  54.2560120  26.5661163  55.8436661  53.8309441  25.8830471
  56.2086449  55.1918068  26.4360676  48.3857727  35.5673370  65.2201309
  48.5674019  34.8233070  64.6459656  47.6918564  35.2571144  65.8019180
  54.3472900  25.2977810  10.4236784  54.1295509  25.1978359  11.3504114
  55.1966934  25.7390785  10.4234543  11.5694857  11.7186546  20.0895061
  12.1677732  11.1818113  20.6092014  11.6700315  12.6017494  20.4448433
  27.9684944  19.7881393  89.0376358  27.2426548  19.2007561  88.8269958
  28.4445381  19.8859196  88.2129822  21.6117229  64.3949509   7.8853593
  20.8179226  63.9112663   7.6569667  21.8011017  64.1327438   8.7862549
  73.2758636  26.0305004  68.4467697  73.6535645  25.4696960  67.7692261
  74.0300446  26.4616337  68.8487167  49.8250160  31.5750332  13.7232075
  49.5372391  32.4254265  14.0552378  50.7476578  31.5204582  13.9721718
  68.2390060  46.4667931  28.7753563  68.3263779  45.6449738  29.2582798
  69.0118332  46.4965134  28.2113686  81.6538086   7.6034932  18.7087193
  81.7827530   8.1457510  19.4868965  81.6763611   6.7045498  19.0367794
  70.5996857   0.5719973  36.3024673  70.8062057  -0.1043118  35.6573448
  69.8421555   1.0286463  35.9366112  77.5849075  12.6501608  27.4913597
  77.4025955  13.5897684  27.4798527  78.2462463  12.5261450  26.8105659
  42.2349663  20.6892014  72.0485916  42.6212921  19.8221645  71.9251785
  42.8063889  21.2783413  71.5560226  11.8017082  39.0071297  86.4902649
  12.3639946  39.3844719  85.8137436  11.7333784  39.6927147  87.1547470
  55.5915260  64.2048721  52.7614708  54.8512306  64.0689087  52.1701050
  56.1122818  63.4057693  52.6809654  78.8147354  70.4438400  52.6143990
  79.6755219  70.8472595  52.5024338  78.1982880  71.1015244  52.2924232
  18.1843872  10.6873055  80.5454102  17.7658939  11.4316244  80.1128769
  17.8343048  10.7001104  81.4362030  56.8966255  60.6638527  70.0050507
  57.3169746  59.8310585  70.2195206  56.3256989  60.4601936  69.2642441
  80.0885544  66.8624115  72.0458374  80.6275482  67.4303207  72.5964661
  80.4588013  66.9581146  71.1683426  67.6519852   0.2848755  49.7624474
  68.5035782   0.3805601  50.1889076  67.7331772   0.7851946  48.9504623
  31.3996067   9.2825079  10.3175201  31.3184338   8.3914452   9.9774485
  31.0845013   9.8400154   9.6060944  35.1620293  63.6374817  56.2517815
  34.3908157  63.3313828  56.7290344  35.0292511  64.5811768  56.1621170
  42.3270912  60.2958794  66.7829971  41.5456886  59.7795448  66.5854034
  42.1828270  60.6176872  67.6728592  21.0544529  54.1672897  62.6850281
  20.9038124  53.3952446  62.1396065  20.3432198  54.1506042  63.3254166
   4.9287162  64.6490936  51.8136330   4.3756919  63.8679695  51.7982864
   5.4631829  64.5797424  51.0225792  36.4617310   2.7878010  60.8014183
  36.5203552   1.8334152  60.8454857  37.0802536   3.0965850  61.4634666
  63.9613533  33.4143410  14.4935970  64.0159760  33.4666252  15.4478064
  64.7254181  32.8975677  14.2379074  30.8979607  71.4903107  75.3239594
  31.3458538  70.6459351  75.2723923  31.5834694  72.1359329  75.1522675
  46.1302376  16.7994289  66.8072205  46.4049263  16.8473454  65.8915329
  45.1750450  16.8515739  66.7737808  29.8931503   6.6383691  21.2598572
  29.2093601   5.9708738  21.2040653  30.5722656   6.3365655  20.6565762
  50.8628540   7.4078217  33.2102776  50.6058617   6.5224562  33.4677925
  51.7781334   7.4798412  33.4810371  29.5284824  28.9527187  86.6473312
  29.5617428  29.8495178  86.3143539  28.5939732  28.7573833  86.7164154
  40.0412598  60.8846512  10.8362122  40.8021126  60.4495277  11.2209177
  39.3754349  60.8547058  11.5232449   5.5181651  67.5214691  52.5831642
   5.0484061  66.8418579  52.0997581   6.4321685  67.4143677  52.3198090
  86.8563232  12.4012337  11.3585978  86.2509918  11.7719412  11.7507668
  86.4173279  13.2465887  11.4528885  64.7871933  66.5408859  50.7581558
  64.5668030  66.3838806  49.8399963  64.3599014  67.3712082  50.9684296
  48.4131393   4.1493235  63.5953407  49.2463875   3.7897041  63.8996506
  47.7592316   3.7667959  64.1804123  32.3554649  55.8489723  29.4097595
  31.5932217  55.7402763  29.9784431  32.6790810  56.7276497  29.6083260
  85.3477554  52.2734909  54.9807663  84.5813828  52.7614136  54.6793709
  86.0816193  52.8731155  54.8461151  28.4660225   1.5374209  52.7679672
  29.2780857   1.0306866  52.7705498  28.0605431   1.3357594  51.9246712
  72.6747589  22.7196083   3.4061978  71.9917450  22.5814018   4.0624204
  72.3637924  22.2475300   2.6337504  83.1038132  39.7825661  70.2871857
  83.6725540  40.1731339  69.6236954  82.6839371  39.0476303  69.8401871
  15.2347841  45.4783325  85.2514420  15.2475681  44.6137047  85.6619186
  14.9984198  46.0765305  85.9603348  62.1418533  66.9008789  20.0272903
  61.4103241  67.0499802  20.6263466  61.8560257  67.2871094  19.1994247
  79.7628479  42.8050041  52.6752777  79.6479874  43.3101540  51.8703804
  79.6280136  43.4405518  53.3782234  74.1177444  58.1178665  51.1746750
  73.9557343  58.7656021  50.4888000  73.4552383  57.4427643  51.0278664
  24.4290199  56.1715431  67.0603104  25.3374214  56.4688568  67.0088882
  23.9146862  56.9192886  66.7560654  86.4026794  48.1273384  18.6682587
  86.5601273  47.2334023  18.9721107  85.7001877  48.4516220  19.2317944
   6.0849967   9.0949612  64.6310806   5.8635798   8.6205177  65.4323959
   6.1650238  10.0078516  64.9075928  43.7574997  43.9892044   1.4953867
  43.7540779  43.7114029   0.5793925  44.4628448  44.6341972   1.5474257
  57.3353195  49.5597229  22.8764706  58.2724609  49.6242905  23.0604076
  57.0917702  50.4314232  22.5649338  19.2417545  65.4332581  58.4759789
  18.4770679  65.9927826  58.3402710  18.8898220  64.5431061  58.4782944
  76.5961838  57.9118156  88.0679855  75.9706879  57.3804436  87.5754166
  77.2913818  57.3001480  88.3104630   8.8507509  42.2131157  37.0780640
   8.1427412  41.6037331  37.2868843   8.4180555  42.9367943  36.6249695
  54.0846863  69.4240494  36.5647316  53.9215546  70.2647705  36.9922905
  54.0512581  68.7835236  37.2752533  41.2113609   4.2564077  64.9909363
  41.1787415   3.8973830  65.8776550  41.8038216   3.6722531  64.5176620
  17.2075119  49.1180954   5.8859406  17.8807335  49.0274696   5.2115579
  17.6236801  48.7943878   6.6848469  17.6275787  23.4683723  11.9629602
  18.1505814  23.7248516  11.2034092  17.5161953  22.5223618  11.8686600
  82.7581024   5.9521585  76.4355469  82.8879089   6.1111574  77.3704834
  83.2136536   6.6750684  76.0041428  65.1641235   2.8613787  32.6421890
  65.2773438   2.5159974  33.5276985  65.9541473   2.5883367  32.1757774
  40.2744370  44.3806610   7.4702749  40.8540268  43.7400856   7.8825502
  40.2517624  44.1246147   6.5482340  71.0634384  18.5013580  67.9973679
  71.8303146  19.0346603  67.7882614  70.4442062  18.6849136  67.2909012
  25.6219482  53.5060921  88.3536072  25.3457890  52.5946007  88.4492645
  25.7925930  53.7998352  89.2484970  75.9543610  50.3405991  84.5460358
  75.5490036  49.5820732  84.1258621  75.3159409  50.6207047  85.2019272
   4.1052828  37.8355713  64.2385483   4.6720982  38.6067619  64.2237320
   4.4003253  37.3071861  63.4969368  65.8284683   1.8679688  79.4754562
  66.3640671   2.6506956  79.6047211  65.0809174   1.9899507  80.0607071
   8.6906271  60.8175011  40.7630768   8.5396090  60.5005226  39.8726006
   8.7451210  61.7688599  40.6726418  11.8182478  49.9091530  52.3710251
  12.6015186  49.5837936  52.8147163  12.1548805  50.4265175  51.6394196
  33.5520134  64.7490082  17.9229755  32.9112740  64.8838272  18.6211967
  33.6053619  65.5958939  17.4800587  66.6215515  69.5516129  12.8724976
  66.7390671  70.1815491  12.1614456  65.6758728  69.4089508  12.9122438
  81.9582062  38.9454536   9.6952238  82.8913422  38.9937096   9.4874897
  81.9311523  38.7472878  10.6312952  29.2754898  17.6703396   1.7040488
  28.8107395  18.3004913   1.1534617  29.8213177  17.1752911   1.0931216
  13.3167143  56.7564850  10.6875525  13.0286646  57.3605309  10.0031643
  13.9174118  57.2725525  11.2252007  32.1786461  60.4797897  76.6657867
  32.2695541  60.7062225  75.7402115  32.2980766  59.5304604  76.6929703
  46.9674988  57.6248512  82.3239594  47.2229424  58.4061394  82.8144455
  47.3033752  57.7762222  81.4404984  53.5617599  14.2824087  34.6262207
  52.8372459  14.6407385  34.1134720  53.4433937  14.6540928  35.5003357
  29.3235245  18.3169346  11.6441936  28.6095123  18.7659531  11.1916428
  30.1054478  18.8196297  11.4158831  72.7760849  58.8525543  59.2405930
  71.9059067  59.2398872  59.3354607  73.3690643  59.4990501  59.6235352
  62.5508194  49.0043297  18.3914566  62.0818443  49.5794411  17.7868557
  62.2714996  49.2917480  19.2607098  14.2839470   9.3256102  17.5401497
  14.4645824   9.4725018  16.6116962  14.4183416   8.3860960  17.6645832
  47.3111534  29.9059238   3.1671793  47.4678612  30.3580513   3.9961882
  47.0521088  29.0205154   3.4224846  17.6154060   0.2199393  52.9103050
  17.8885880   0.6264612  53.7327080  16.6590233   0.2186655  52.9498520
   1.7348239   2.8226097  30.1822796   2.3858883   3.4940419  29.9785004
   1.4019991   3.0660584  31.0461044  50.6995697   6.2818608   0.8852531
  50.5826263   6.8798671   1.6234570  50.5971832   5.4093256   1.2652940
  60.7685318  46.3791504  40.0877419  61.2245483  46.1534805  40.8985176
  60.3326111  45.5686340  39.8245544  84.5339890  70.0134735  83.1603470
  85.1591263  69.7894058  83.8497162  85.0431747  70.5264053  82.5327530
  71.9319382  32.8839493  79.2473373  71.7360840  33.4637337  78.5113144
  71.2020416  32.2649574  79.2654495   8.9201775  60.2741508  13.9059429
   9.6959190  60.8285904  13.8219748   8.1856194  60.8613930  13.7276154
  52.0116272  25.7417927  15.5540590  51.0607414  25.7819538  15.4519291
  52.2519417  26.6015434  15.8994694   4.0471759   0.0913979  45.2175407
   4.7878418   0.6844013  45.3440018   3.2810500   0.6087393  45.4658165
  82.1284409  56.6073494  47.7553253  81.9862137  55.7346916  48.1220322
  82.5626450  57.0937767  48.4560966  30.9933033  47.5671997  62.4187927
  31.0004139  48.0563660  63.2415314  31.8434277  47.7551422  62.0210495
  60.6059532   3.0361054  85.0589218  60.0654984   3.1013982  84.2715988
  60.4239159   3.8422103  85.5419235  15.3817196  46.6093712  58.6582298
  15.3543863  46.1017380  59.4692764  14.7049141  46.2166328  58.1069374
   1.1617359  61.4640503  72.0951080   0.7145844  62.2256927  72.4641418
   1.6705312  61.1086617  72.8238449  67.1591415  31.8411217  60.6486740
  66.3719254  32.0069656  61.1673470  67.8742676  32.1907921  61.1802330
  61.5250282  13.2193851  18.3883877  60.8996429  13.6895380  18.9398232
  61.5333176  13.7080765  17.5653782  82.7785034   9.9087620  25.5297394
  82.7180862   8.9988728  25.8207436  83.7115631  10.1156979  25.5826550
  51.5489388  41.2686920  -0.2194794  50.8405571  40.6249580  -0.2136743
  51.7552071  41.4061852   0.7050635  59.3496056  18.8989143  83.1988144
  58.4750404  19.2776966  83.2876740  59.7739716  19.4313107  82.5259857
  16.5906792  68.7003250  41.4977570  15.8792982  69.3165741  41.3233795
  16.5968513  68.6049271  42.4501686  59.5174942  60.2495804  59.5604630
  60.0075226  59.6018944  60.0670280  59.7537727  61.0897522  59.9535522
  11.6357365   7.8953547  77.4955139  11.1800947   7.0552301  77.5485535
  11.0895643   8.4279585  76.9173584  61.8931274  62.8131485  12.3508224
  61.6459656  62.9622078  13.2634687  62.6976776  63.3186226  12.2349491
   3.0057337  51.3606644  40.2198868   2.8789101  52.2500725  40.5501900
   2.6275728  51.3754883  39.3406792   3.7522035   3.7836964   2.5818527
   3.8340979   4.2265325   3.4264953   2.8669815   3.9951653   2.2853818
  66.0921555   9.0261049  60.4283371  66.2796173   8.9986753  59.4900742
  66.5884171   8.2934475  60.7932510  18.9880371  62.0237732  37.6566238
  18.8066311  61.2728043  38.2217522  19.6003590  62.5601234  38.1602287
  86.8275299  19.6001530  44.4645157  86.0677567  19.0194130  44.4230461
  86.9221954  19.9347630  43.5727158  43.8041267  67.9505844  45.4133759
  44.7582550  68.0159149  45.3732948  43.6079102  67.8802185  46.3476028
  13.1682081  44.4388123   9.1467886  12.4274654  44.3109665   9.7393980
  12.7791071  44.4328041   8.2722626  65.4584808  25.8478928  85.4696426
  66.0142822  25.7664566  86.2446823  65.3014603  26.7883492  85.3852615
  17.4883347  25.4618530  58.2110405  16.7696285  25.6285992  58.8208694
  17.3434486  26.0805454  57.4951782  53.5887146  49.4502182  55.4848785
  54.4017181  49.8031960  55.1233978  53.2750740  48.8397865  54.8176193
  86.9272995  35.6637077  15.6918859  86.0351105  35.5675697  16.0250301
  87.0731430  34.8765564  15.1671467  32.8316879  67.2464828  30.0291367
  32.4397316  66.8272247  30.7951832  32.4423218  66.7921677  29.2819920
  54.3802986  30.7277145  60.0560074  53.5638084  30.3802624  59.6970482
  54.2069778  31.6599998  60.1865311  11.2478695  63.6706963  11.3700848
  11.9999228  64.1096573  11.7675238  11.3793621  62.7435493  11.5684404
  28.6883450  62.5403328  17.6679268  28.4669037  61.8481712  17.0449429
  29.5563030  62.8385849  17.3960400  76.0558624  16.2592678  17.0676746
  75.9192047  16.6679077  16.2129421  76.7736511  15.6420498  16.9260464
  39.6046524   1.9207217  38.4581871  38.8738785   1.3360291  38.6590309
  40.1453743   1.4256141  37.8427849  82.9741440  38.4800835  14.1800671
  82.4030991  37.9791908  13.5976200  82.5536194  38.4197807  15.0378313
  13.1875973   4.5154853  73.4515762  13.9738913   5.0500941  73.3412704
  13.4885712   3.7425456  73.9292908  12.9443378  44.6509819  51.0963783
  13.8353806  44.7935257  50.7770691  12.3831177  44.9315186  50.3734894
  40.9008522  13.4247093  10.4989300  41.1889229  13.8560047   9.6944227
  41.7119789  13.1555309  10.9300337  76.0746765  40.5783768  18.2172279
  75.5988922  40.6961403  19.0394135  75.9297409  41.3940163  17.7376862
  75.3896866  57.6986008  13.2193890  75.8488922  57.8241844  12.3889732
  75.2049484  56.7599411  13.2513590   5.2048631  55.2541695  65.9880524
   5.7851305  55.2064552  65.2282867   5.6946330  54.8268013  66.6906967
  84.3322220  25.6983852  66.3824158  83.8198395  26.3569374  66.8514633
  83.7637253  24.9288464  66.3530731  63.7346649  41.7658844  37.2998466
  63.8236160  42.3081131  38.0836220  64.6327362  41.6364441  36.9949684
   6.9085793  64.1013565  17.1555233   6.4314570  64.8384323  16.7743416
   7.7171507  64.0501099  16.6457996  74.1793442  27.0897217  20.4109974
  73.6728897  26.8301067  21.1806278  73.5363998  27.1279221  19.7029057
  10.5324602  13.6864462   0.4294140  10.5091162  12.7687225   0.1583578
  11.4122629  13.8085089   0.7861755  39.1796455  66.3048019  10.8703461
  39.0421333  65.3578949  10.8440399  40.0325508  66.4113541  11.2915726
  24.5509396  40.0865555  72.7502365  25.1356068  40.2956085  73.4787216
  24.7912788  40.7090836  72.0639877  78.0918503   1.9559178  40.7724533
  77.3933868   2.1337571  40.1425667  78.8917542   1.9466704  40.2468224
  82.9785614  34.0280037  77.8457718  83.0845261  33.6535454  78.7202911
  83.8520966  34.3420296  77.6122284  25.8108864   0.2614452  69.7685928
  25.7872620  -0.2615918  70.5699005  26.6701984   0.0787267  69.3885498
  32.6314659   6.3480167  39.6740494  33.5538788   6.1139646  39.5710678
  32.6474838   7.1925740  40.1242714   8.0852547  66.9293060  14.9609737
   7.9345083  67.2650452  14.0773544   7.3802648  67.3094101  15.4851294
  39.0043221  44.7967911  25.9264278  38.5737648  44.4538116  25.1433449
  38.8532333  44.1285820  26.5949345  28.4932060  46.4223557  84.5966110
  28.7129898  46.7220764  85.4787064  28.0176697  45.6030083  84.7335892
  45.3384018  31.8876534  15.8916559  45.4210281  31.7907410  16.8403454
  45.6743011  31.0646210  15.5366631  47.5862503  35.9916306  82.5892639
  48.4653015  36.0917435  82.9546127  47.0182190  36.4617462  83.1996460
  14.9858036  42.3556747  68.9514084  14.2424994  42.3106804  69.5528336
  15.7557020  42.3181000  69.5189285  32.2711372  46.6681213  43.4540634
  32.8927269  47.3934174  43.3923759  32.4334564  46.1460876  42.6683350
  81.7831879  48.2723274  80.1178284  81.6900253  47.7270889  79.3366318
  81.4757614  47.7178535  80.8349609  26.5921173  35.0461235  12.2848482
  26.9777470  35.9218254  12.3106260  26.4218750  34.8322830  13.2021942
  49.2610741  67.2747345  51.4423866  49.7993202  68.0312271  51.6752739
  48.6425819  67.1884079  52.1678162  55.3090973  46.9901009  43.6999054
  55.3637924  46.2462044  44.2997932  54.4334755  47.3493156  43.8430214
  48.8390427  48.8872147   8.0804720  49.4099579  48.1193314   8.1057482
  48.7875786  49.1774902   8.9911442  79.2115860  23.0179577  60.4330635
  80.0540161  23.2327461  60.0325508  78.8199921  23.8671913  60.6372261
  35.1698761  62.0472298  49.7222862  34.9385376  62.9597473  49.8955765
  35.0521049  61.9454918  48.7778244  11.7770958  33.8834610  16.0971375
  11.3790951  33.6149864  15.2690382  11.8070898  34.8390160  16.0497799
  60.5468445  50.4385986  12.9985857  60.3282623  49.8928299  12.2432089
  59.7065926  50.6025925  13.4267406  18.9173203  71.5023422  67.1686096
  19.2435398  70.8595810  66.5387955  19.6222210  72.1458511  67.2409897
  71.8140793  57.9943886  46.6605644  71.4584808  57.4471855  45.9603157
  72.3094025  57.3875275  47.2106590  58.0314713  70.0248489  44.1474533
  57.7018776  69.6009521  43.3550453  58.7994308  69.5090485  44.3932724
  76.7154160  64.5853043  66.9506531  77.1900482  65.4015808  67.1076889
  77.1287308  63.9513664  67.5367661  35.8693008  61.4191742  13.7074614
  36.5100021  60.8514824  14.1357841  35.4841690  61.9271202  14.4215288
  41.8006783  13.1365499  83.2240906  40.9314461  12.7482729  83.1245270
  42.3197784  12.7450314  82.5216064  30.6309547  42.4178162  17.3462162
  30.0367661  42.2780762  18.0835381  31.3430786  42.9445992  17.7090015
  70.1805878  56.6110458  75.8451462  69.6141129  56.9537468  75.1538391
  70.4253540  55.7364998  75.5426788  11.9329681  62.9682083  63.3020020
  11.0547476  62.6443939  63.5022583  12.4608011  62.7124901  64.0584641
  24.1223850  67.2784119  16.0878830  24.0644989  67.6429291  15.2047033
  24.1485119  68.0440521  16.6617641  78.9538803  62.7732544  84.7667084
  78.2792816  62.6723671  85.4382553  78.4839783  63.1102829  84.0039215
  14.7289410  71.3122253  38.1703796  14.6188068  70.8821106  39.0183830
  15.3252449  72.0399628  38.3465881  76.5021286   4.9687214  61.6957855
  76.3454056   4.3916650  62.4432297  75.7123718   5.5065517  61.6386909
   3.4223557  10.7582178  66.2030563   3.6255751   9.8459740  65.9963074
   4.0638270  11.0011215  66.8706970  79.2722321  17.8260860  28.4509659
  78.4214020  18.2559700  28.5376778  79.2887421  17.1825581  29.1593666
  20.6865292   0.1166988  42.1589737  21.2929020  -0.1607794  41.4722786
  21.2259769   0.1692798  42.9479370  30.6443787  55.2924042  31.4704361
  30.1484165  54.4780197  31.5543098  30.2392921  55.8857613  32.1029434
  69.9855194  52.0615883  63.6663361  69.3023529  52.4096336  64.2393875
  70.0736923  52.7163582  62.9737053  65.0832825  27.7844296  35.8844261
  65.6949615  28.4951706  35.6922493  64.8552933  27.4261284  35.0265961
  57.0338211  34.4486351  62.0240898  56.1313934  34.6823196  62.2414627
  57.3929214  34.0966797  62.8385887  30.9959793  48.6308441  73.9146729
  31.8696804  48.5433807  73.5335846  30.4307251  48.1164169  73.3384094
  65.6285400  48.0961914  62.4739876  65.2537766  48.6558838  61.7938957
  66.0831451  47.4053307  61.9920311  74.6945038  16.1104927  83.7663879
  74.6628036  15.9266949  82.8275299  73.8002472  15.9562922  84.0709534
  61.0656776  70.3194733  34.1032219  60.5212631  70.3870316  33.3188248
  61.9618187  70.4199677  33.7821808  64.7708130  66.2216263  24.1765194
  65.5428696  66.7337799  24.4170628  64.7443314  65.5123062  24.8186951
  61.0559883  64.5128098  81.2428513  61.8144493  64.0325928  81.5750656
  61.4224968  65.3212280  80.8845749  34.6632462  51.8231201   2.7015193
  34.6531792  51.1678848   2.0038109  35.0739937  51.3776627   3.4425228
  37.5870018  59.1754303  58.2394180  37.8815689  58.7985954  57.4102859
  38.0135345  58.6418800  58.9099541  28.5588493  57.0940933  87.9225082
  29.5067806  57.2186432  87.9688416  28.1938877  57.9551163  88.1266479
  14.4977446  42.7499771  64.1740036  14.7317495  42.6885223  65.1001205
  15.0262394  43.4752808  63.8410454  58.5434570  65.1568680  66.7071075
  58.4723854  64.2446365  66.4260101  59.4600334  65.2576294  66.9639511
  33.4595871  34.7868958  87.2612534  33.4459076  35.7298317  87.0971909
  32.8018074  34.4303436  86.6642380  49.7880135  53.2095299  86.1469879
  50.4975014  53.8260689  86.3279190  50.2049255  52.3484917  86.1790695
   7.3414211  67.6505432  79.4787903   7.2921877  68.4974976  79.0355301
   6.4403100  67.3276978  79.4792175  65.7966690  11.9138498  10.1543236
  66.5915527  11.8619013  10.6850672  65.0833893  11.7724237  10.7767887
  60.9099045   9.0897350  25.1415215  61.5968819   8.4700851  24.8959064
  61.1766357   9.4145565  26.0015087   5.1027894  12.7369890   1.0616661
   5.0934010  13.1023388   1.9463488   5.3804960  11.8287086   1.1805637
  72.8611679  21.3172302  47.3807487  72.6305313  20.3960781  47.2602577
  73.5438232  21.4803295  46.7298965  18.1639633   2.4892123   0.4478930
  18.1301651   3.1439629  -0.2495245  18.3063812   1.6600711  -0.0086965
  59.7440224  50.3988419   1.5902165  60.6541824  50.5698128   1.3481212
  59.2995224  50.2439957   0.7567456  58.2378960  56.4598618   5.7046361
  58.8201828  55.7008514   5.6718626  57.5326996  56.1954002   6.2953906
  59.3978119  59.7316132  45.8676147  59.9414902  59.7229462  46.6553802
  58.5309334  59.9934731  46.1777496  76.6361542  25.3587151  11.9304180
  76.3660278  24.7162590  11.2742805  76.6011200  26.1983433  11.4721279
  83.4679489  31.8163681  86.0678024  83.6751480  32.4346733  86.7685165
  84.2376022  31.2499256  86.0128708  44.9141350  18.2653313  80.6841660
  43.9902534  18.2303467  80.9320602  45.1174469  17.3768826  80.3916702
  53.8721771  23.2226944  50.7920113  53.0533714  23.7183876  50.7834167
  54.5327759  23.8461571  50.4901237  67.9485092  21.3515892  30.6862278
  68.0352554  20.5160751  30.2272930  68.0085449  21.1227551  31.6137314
   5.3955140  29.3287487  49.0104065   4.4566731  29.1665115  48.9182701
   5.5257406  30.2003880  48.6368866  25.6965675  65.7880936  88.5683823
  25.4168015  65.2821198  87.8055191  24.9987812  66.4301910  88.6989365
  11.9882889  46.0506172  80.4279861  11.5413427  45.4442596  79.8373947
  11.6731930  45.8118820  81.2997360  26.8142700   1.0860960  86.2710800
  26.2224846   1.2248926  87.0105133  26.5544109   1.7467747  85.6290436
  38.1370583  58.8791351  19.4527588  37.7829933  59.6942596  19.0971718
  37.3780022  58.4308929  19.8257828  81.3409882  53.5706558  22.3852406
  81.9550400  52.8386002  22.3280754  81.7042847  54.1352844  23.0674744
  79.6523972   4.0321941   6.9094748  79.0154724   4.2209339   7.5986285
  80.2039261   4.8136544   6.8725185  38.4125175   8.3312054  18.2529297
  38.8772163   9.0775194  17.8743782  39.1005936   7.6958013  18.4505215
  71.8086014  67.9008026  18.9464855  71.5052032  67.5783920  18.0978241
  72.0160751  67.1092834  19.4431629  69.0068512  28.6158028  69.2556229
  69.9052200  28.6070786  69.5859070  68.5742645  29.3074169  69.7563934
  57.4872169  47.2537270  73.3943176  57.3293266  46.3237534  73.2316818
  58.2398949  47.2690849  73.9854736  62.5146713  51.8312187  68.6731949
  63.2940979  51.9474831  69.2165298  62.7252884  52.2782974  67.8534393
  49.6431961  54.5337944  47.7767982  50.5825920  54.4361420  47.9324722
  49.2655373  54.6403236  48.6498718  83.0703430  50.3374939  77.2836685
  82.1321182  50.3240128  77.0944977  83.4885788  50.3133469  76.4230118
  86.0286484   3.4112749  47.8883705  86.6363678   3.8840055  48.4570847
  86.0783081   2.5032077  48.1870041  81.2492218  30.4988956  29.8278217
  81.3926010  30.7614021  28.9185562  81.9256516  30.9633579  30.3207169
  77.0841446  16.0422211  34.4184875  77.4669647  15.2291231  34.0890198
  77.5775681  16.7346497  33.9788170  20.4064045  69.7461166  37.1647758
  19.5428734  69.3335419  37.1467705  20.5920486  69.8726349  38.0952377
  57.3975601  46.1918945  86.5228806  58.2300224  46.3061295  86.9813461
  57.6052780  45.6121368  85.7901001  36.3434410  48.2089081  31.1545753
  36.0368614  47.4568405  31.6611729  35.8467407  48.9499435  31.5015411
  22.0061245   1.4278525   0.5938334  21.8190479   1.9626367   1.3653512
  21.4094982   0.6830520   0.6682729  58.9168549  18.8143539  45.2194252
  58.7673988  19.7182884  44.9423065  58.2786102  18.6693230  45.9178772
  77.9442596  20.6288395  52.1159363  77.8425674  19.8617153  51.5525436
  78.1699829  20.2680798  52.9733353  37.1254082  42.5075073  14.0199537
  37.4723473  42.3058395  13.1509342  37.2520752  41.7019844  14.5212717
  64.9160995  31.3094749   9.0216303  65.1401672  30.5567074   9.5687733
  64.9070587  32.0511284   9.6266937  85.1945496  11.3079481  80.8415070
  85.8792343  11.1288242  80.1970291  85.6586533  11.6994772  81.5814667
   3.9342549   5.3975973  80.9379501   4.1657567   5.7930541  80.0975647
   3.2745547   4.7394023  80.7193069  60.9514465  44.5583763  84.1841202
  61.6838074  44.8547211  84.7245407  61.2982063  44.5547943  83.2919464
  13.6141138  50.6389389   3.7258923  13.1984615  50.2299080   2.9668398
  13.6176405  49.9543533   4.3948956  23.9439793  34.6902237  79.6605530
  24.5955429  35.2747536  80.0478821  23.2813778  34.5842781  80.3431702
  66.6980591  29.3453712  19.1719666  66.7093964  29.9299641  18.4141045
  65.9352341  29.6244831  19.6783600  58.3670616  59.0742836  41.1863518
  57.8261986  59.1962662  41.9666214  58.3136215  58.1365051  41.0020943
  79.7167664  29.7086678  58.4515572  80.1249847  30.0389271  57.6512299
  80.4405518  29.3311367  58.9514008  68.1079254  13.7674379  48.2260551
  68.3216248  14.5404558  48.7485580  68.0271835  14.0979300  47.3313522
  81.0435791   1.9102917   9.5838060  81.7695160   2.0695033  10.1870441
  81.3889389   2.1518757   8.7243900   4.0171633  69.7220688  43.4094582
   3.2242360  69.2394180  43.6430168   4.0205588  70.4765472  43.9985123
  31.8499527  17.1007843  67.4835358  31.6527672  18.0361824  67.5323257
  31.6159992  16.7613106  68.3473969  74.7142715  43.2678986  43.2612648
  73.8132248  43.1807442  42.9502220  75.2524567  43.0646362  42.4962349
   4.6671362  21.4051762  78.8870316   4.7053490  21.5232010  79.8361588
   3.7376227  21.2751427  78.6990814  71.7920380  26.2110672  38.1497269
  70.8626328  26.0367088  38.0012665  72.1152878  25.4261951  38.5921211
  60.9520073  15.3987446  41.5762215  61.6313286  15.9118195  42.0138397
  60.8425179  15.8228216  40.7251053  75.1792679   7.5300264  59.1981316
  74.9268494   8.2272339  58.5928078  74.3831863   7.0105472  59.3105011
  65.0832138  20.1954060  73.1151352  64.9678116  20.4121189  74.0403061
  64.6048431  20.8799114  72.6473236  86.3483276  12.6846247   0.3362156
  87.2241974  12.4363604   0.0404969  86.3848801  12.6019773   1.2891400
  58.6647987  39.2887421  37.1803322  58.2257614  40.0719299  37.5121460
  59.0324135  39.5586433  36.3387604   3.7251666  33.5085335  53.4315720
   4.4399323  33.1738472  52.8899765   4.1621504  33.9215927  54.1763229
  28.5311737  30.7931156  74.1620255  27.6146488  30.9306850  74.4013748
  29.0181770  30.9714012  74.9665527  33.8149109  11.1417551  43.2824287
  33.0699310  10.6500998  43.6281395  34.5370979  10.9295435  43.8737335
  17.2651978  60.8786163  12.1834888  16.6111679  61.5755501  12.1309605
  18.1039963  61.3295441  12.0869913  49.3636513  14.2959881  11.7995081
  49.9163132  13.5175953  11.7295103  49.6217346  14.6992207  12.6283808
  82.4597778  52.2598343  38.3068848  82.0282822  53.1044159  38.1775436
  82.2351151  51.7540092  37.5259247  69.0927734  41.8978691   3.0386517
  68.9639893  41.8804321   2.0903153  68.4608765  41.2639427   3.3778706
  64.0370560  66.9755096  75.3734207  63.3105545  67.3119278  75.8980637
  63.7295799  67.0400696  74.4692535   8.2804441  57.9993973  48.3050880
   8.2965393  57.0801010  48.5713043   7.4805689  58.3486023  48.6981392
  62.7180214  51.9309196  12.2788782  61.9904861  51.4392242  12.6598749
  63.4584923  51.7502213  12.8579130  44.3487434  53.2085152  83.2318878
  45.2347336  52.8462257  83.2318573  43.8921623  52.7248039  82.5435715
  50.6912651  21.8710022  13.5066376  51.6314430  21.8471317  13.6847649
  50.5715675  21.2705269  12.7708836  29.1917324  56.6691132   4.0637097
  29.7298412  55.9869156   4.4653006  29.0743294  56.3798943   3.1588337
  52.4430428  25.3643875  24.6850414  51.7382164  25.5957413  24.0801258
  53.0580864  26.0955467  24.6270466  63.2103653  49.5950394  76.2915573
  63.6392403  49.1494217  75.5609970  63.9001274  50.1304703  76.6837006
  56.7315750   9.9591990  51.8543243  57.2646370   9.2201748  52.1474419
  56.7131386  10.5536108  52.6043663  29.2454720   7.2034183  73.0610352
  29.4055176   7.9329867  72.4624176  30.0831337   7.0691667  73.5043564
  15.6142750  54.6403198  49.5163116  15.1950779  55.1551666  50.2058334
  16.5252285  54.5586014  49.7986565  55.9776306  69.5785980  54.0678635
  56.7557297  69.9219589  53.6286659  55.8480721  68.7119141  53.6827660
  46.5557365   9.6026182  34.2321205  46.9431381   8.8332767  33.8146706
  45.7174034   9.7208080  33.7855110  70.3231735  50.4396629  74.6913528
  69.4581375  50.8493423  74.6812134  70.1531754  49.5164604  74.5041962
  62.5041275  39.2983208  61.5694122  63.1767921  38.7799759  61.1277466
  62.8573151  39.4523430  62.4456367  68.8953781  51.0009308  41.2432938
  69.2468491  51.8351860  41.5542946  69.5868607  50.6421585  40.6870766
  73.8060684   7.9331422  20.0175095  74.0165405   7.8612738  19.0865059
  73.4348755   7.0808501  20.2456360  48.7737122  37.2823257  18.4649925
  49.1349449  37.9574738  17.8906078  48.7644501  37.6860352  19.3328419
  72.3451004  41.0506325  17.2249794  72.5616302  40.3087845  16.6601772
  72.3174820  41.8023148  16.6329975  37.7675247  60.0575790  38.0205231
  37.6074791  59.1156120  37.9629822  36.8959274  60.4438095  38.1064110
  84.8394699  10.6933460  11.9719820  84.2104874  11.1172800  12.5558414
  85.0534668   9.8688154  12.4085426  42.3077393  71.1715622  27.2373505
  41.4940300  71.1431732  27.7406483  42.2625580  71.9973221  26.7553692
  34.0053253  45.3256569  12.1421022  34.1027069  46.1143265  11.6084852
  33.8004837  45.6528931  13.0179958  34.8606453  25.2654552  68.9359970
  35.5837555  25.1028099  68.3302841  34.9356728  26.1943226  69.1546478
  65.6880188  13.4181414  29.2676334  65.9041595  14.3451757  29.3682423
  66.0789795  13.1706209  28.4297104  54.6764870  34.8169098  32.3903160
  54.6938553  35.2797508  31.5526333  53.7489014  34.6402054  32.5471344
  43.5504379  24.2435112  69.9983673  43.0072556  24.1381340  70.7794418
  42.9576492  24.6095734  69.3419876  68.5198288  15.7011433  55.5791931
  67.7415695  15.9520283  55.0815964  69.2520447  15.9040251  54.9970131
   0.1491266  45.7485771  85.2747955   0.8172671  46.0652847  84.6669159
  -0.3864817  46.5188637  85.4645615  78.0364990  52.8537407  67.6900864
  78.6159973  52.1956673  68.0739517  78.2688217  53.6675529  68.1372681
  10.7105656  67.8574066  66.7450562  11.3671408  68.3437576  66.2464523
  10.3626909  68.4949036  67.3685989  76.8777084  32.3396645  55.6040611
  77.1021194  31.5061779  56.0177917  76.5544662  32.0969925  54.7363853
  74.8264160  32.1103821   7.7213755  75.7805710  32.1787605   7.6876979
  74.6421585  31.7573528   8.5918074  50.3322487  64.8164825  66.8724594
  50.4966278  64.1368256  66.2187958  49.8113289  65.4728165  66.4097519
   9.1471529  65.8361130  82.6995621   9.2844906  66.4582062  81.9851608
   8.8992548  66.3804779  83.4468536  77.4094467  20.2994194  20.6403656
  77.5249481  20.2437744  21.5889397  78.3005066  20.3246975  20.2916546
  35.7998352  50.0420303   4.4967890  35.2070808  50.0002098   5.2472057
  36.6024094  50.4288254   4.8467865  62.9579201  66.4365616  34.3823357
  63.7978745  66.8695221  34.5348358  63.0764465  65.9681244  33.5560493
  52.9215698  41.6617279  27.3324051  53.3024750  42.3054962  27.9296551
  53.6623421  41.1203423  27.0596619  49.3871346  25.9797230  63.7942810
  48.6604500  25.7387218  63.2197533  48.9836998  26.5109863  64.4807434
  11.5957584  55.1582413  12.3560352  12.1893339  55.5982780  11.7475386
  11.9171906  54.2574654  12.3949509  83.3695984  12.8305120  27.8399162
  84.2672882  12.8922567  28.1663761  82.9847183  12.1059713  28.3330097
   2.6124284  29.2360706  12.0242348   3.3612065  29.5334225  12.5410957
   2.7025006  29.6924076  11.1876507  63.9796066   2.1182866  12.0162468
  64.2708740   1.9676735  12.9155312  63.3698273   1.4020935  11.8388605
  30.2187710  13.4302530  52.4232788  29.8027554  13.6469250  53.2576752
  30.4154072  12.4957914  52.4892120  70.0916138  41.2020798  23.5603561
  70.1278992  40.9942284  22.6266994  69.2789841  41.6971588  23.6641102
  69.7571716  16.4836483   9.6126480  69.5778503  15.8559418   8.9126043
  69.3380280  17.2934227   9.3214102  65.2651749  26.0132618   3.9290428
  64.8601990  26.2390499   3.0916369  66.0617905  26.5430183   3.9604051
  29.8708229  20.8484726  72.3067398  29.1354332  20.3212891  71.9944763
  29.7821121  20.8425655  73.2598038  38.4395409  15.5963249  10.1233940
  38.2406425  15.8123169  11.0344477  38.9080849  14.7630339  10.1715975
   0.7207592   7.0684505  74.8109589   0.1371773   7.6668725  74.3445358
   0.4333244   7.1157198  75.7227631  84.4704819  59.5387192  35.3609734
  84.1600418  58.7520714  34.9125977  84.3940582  60.2332306  34.7067223
  16.1922970  63.0091476  76.7038879  15.3153152  63.0842247  76.3277283
  16.7221565  63.6281662  76.2015991  50.3777618  43.9062309  66.6018448
  50.7734299  44.7258263  66.3052902  49.5893860  43.8135643  66.0669556
  30.9972401  44.7079468  12.6618023  31.7757664  44.9658012  13.1554003
  30.3791313  44.4086647  13.3285885  27.2913437  35.3776817   9.3729086
  27.3913956  35.1328239  10.2928362  27.3827953  34.5537109   8.8944302
  57.9154587  26.9598961  84.5769272  57.1920395  26.4952068  84.9975891
  58.7018547  26.6018009  84.9887314  84.7682266  40.9619865  16.6423779
  85.3004761  40.5930099  17.3472176  84.8464584  40.3303833  15.9274025
  18.4070663   4.2281995  52.1697693  19.3008900   4.2507715  52.5115356
  18.3330250   3.3715503  51.7491722  35.9186897  51.6024132  69.5735092
  35.0116653  51.9048347  69.6190948  36.4101715  52.3645554  69.2672119
  29.4860039   2.8635015  44.5339890  29.6486931   3.7901826  44.7101326
  30.2762680   2.5626183  44.0854568  39.3193169  55.8355255  64.4614029
  39.2622528  56.5623398  65.0816574  40.1405067  55.9845505  63.9927063
  32.3148270  31.3462658  76.9061661  32.6485214  31.1780472  76.0249252
  32.5192108  32.2672958  77.0679016  53.8012009  65.7168579  39.1637115
  54.6018486  66.1245193  38.8335571  54.0940361  64.8904877  39.5478973
   6.1761765  51.0314331  86.2827606   7.0768232  50.7452431  86.4349594
   6.2625284  51.9182129  85.9329071   7.7188344  27.8751221   1.1741561
   8.5518503  27.4088039   1.1044180   7.2143884  27.3702450   1.8120161
  38.3297119  66.0429688  62.4843864  38.1331673  66.7497864  61.8695602
  39.2285194  65.7877045  62.2764931  43.9321022  40.3270302  71.5506210
  44.0768623  41.1057701  71.0131760  44.6230545  39.7204514  71.2843857
  48.5794868  19.8097687  54.3125534  49.2332764  19.2563992  53.8852654
  48.3187447  19.3157940  55.0898781  78.9482040  60.8942337  66.0225830
  78.4226151  61.4877205  65.4861450  79.7679291  61.3662720  66.1690521
  28.0401649  51.5260887  86.1095276  28.0845375  52.3209801  86.6409531
  27.8579807  50.8275909  86.7381287  75.1038437  10.5685787  67.3067017
  74.8193207   9.7358961  66.9299850  74.6312332  10.6298304  68.1368332
  53.1219864  20.6110668  51.4357414  53.7067223  19.9365807  51.0902214
  53.5894356  21.4328575  51.2861290  11.7091780  19.2286320  73.3362427
  12.4846115  19.1285229  72.7840576  12.0066891  19.7634087  74.0722656
  74.2121429  37.0584908  37.6072083  74.0514297  37.4025955  36.7285767
  74.0999146  36.1120872  37.5180206   3.9207776  13.2129335  11.1873627
   3.1481841  13.7265434  10.9517021   4.4103842  13.7774982  11.7855129
  39.5466194  50.7731552  64.6282196  38.9185829  50.5631447  65.3193741
  40.3789902  50.8860703  65.0871735  37.7072144  18.5011597  77.0507812
  37.6662941  19.4473495  77.1896439  38.4129105  18.3826847  76.4150162
  69.6697083   7.5548949  36.1042519  69.9268494   7.4439707  35.1889343
  68.8519287   8.0507927  36.0648880  47.1994362  41.1692848  62.2611923
  47.4830933  41.8714409  61.6757469  46.6591301  40.6022530  61.7109375
  65.2794266  17.4456501  56.7486954  65.0795593  18.2820892  57.1689987
  65.8290176  17.6788502  56.0004959  53.2183228   1.4066683  12.4018230
  53.4416580   0.4830839  12.2863073  53.7187042   1.8606997  11.7238083
  64.3051224  10.0899334  51.8495750  64.8642731  10.8173761  51.5767937
  63.9586906  10.3599720  52.7000427  17.4174500  58.0880547  12.5813408
  17.2225914  57.6871948  11.7342434  17.7398338  58.9627151  12.3639231
  80.5975494  57.3538742   3.9829190  81.0383606  58.0550575   3.5030680
  79.8525009  57.7831192   4.4034925   0.5354931  10.7010775  66.2224960
  -0.0158132  10.9719057  65.4883652   1.4308714  10.7995987  65.8987274
  76.9611282  62.9700851  69.1480865  76.4821930  62.1767960  69.3879623
  76.7946777  63.5775337  69.8688736   4.5241747  70.9532166  16.2577000
   3.7529471  70.7558975  15.7261868   4.6778898  70.1545944  16.7624760
  14.3374949  11.1064939   0.3944638  14.8985796  10.4263172   0.7669889
  14.6673765  11.9221478   0.7714491  24.9070282  22.9485073   4.6054535
  25.0360146  23.2582092   5.5019355  24.0493603  23.2915916   4.3545971
  28.8237324  47.0421906  87.2713318  29.6444511  47.1962852  87.7392044
  28.3371754  46.4392242  87.8334045  66.4375381  17.3675098  52.1310616
  66.4697037  17.0758495  51.2199478  65.7799911  18.0630856  52.1368141
  63.0268021  44.4249153  24.4953976  63.9664955  44.6069527  24.5038395
  62.6751976  44.9470634  25.2164860  71.9111633  43.5244331  63.7703934
  70.9769897  43.3379326  63.8640518  71.9486694  44.2570229  63.1554642
  45.8786659  38.3528442  71.5179062  46.1598778  38.1854706  70.6183853
  45.9843178  37.5116730  71.9623184  22.2592583  52.1073532  30.3294506
  21.7224045  51.7841530  31.0530262  23.1559086  51.8816605  30.5770626
  61.4567451  61.0216942   3.3922737  61.3170815  61.6147346   2.6540117
  61.7044106  61.5957451   4.1170907  84.2058945  15.0507689   3.9001224
  83.5768433  14.3331938   3.8252096  84.0517960  15.5865822   3.1220558
  20.1147785  33.0120087  86.9824677  19.6584282  33.6194954  87.5646515
  20.6440125  33.5742912  86.4168015  41.8460350  67.3250732  73.1429672
  42.1004639  66.4402084  73.4047012  42.4529877  67.5501251  72.4378510
  38.8171387  38.8046608  12.9037743  38.7697144  38.5342560  13.8207617
  39.2896614  38.0948524  12.4688864  67.5804138  63.9533997  12.2912598
  66.7181091  63.7458878  11.9312601  67.9146042  63.1152611  12.6107454
   2.8144629  36.1836205  43.9869537   3.2043056  36.6803207  44.7063599
   2.0024910  36.6492996  43.7867584  79.3769913  43.5074921  49.7797318
  79.3556595  42.7687836  49.1713829  79.9160690  44.1647110  49.3396301
  78.2496185  57.2347412  15.3963089  78.7628479  58.0413132  15.3486300
  78.2230225  57.0225792  16.3293209  65.4496155  28.9462719   2.4117258
  66.2853088  29.2504959   2.0577478  65.6333237  28.7591991   3.3323169
  25.3356438  45.6554298  76.4450836  24.8669548  46.4899559  76.4566574
  25.9239788  45.7215652  75.6929398  78.9703522  66.1525269  49.7558670
  78.6178970  66.0863571  48.8683815  78.2480087  66.5064926  50.2746735
  10.1540174  34.4411469  72.8224564  10.2431021  34.5517235  71.8758469
  10.5756302  35.2156372  73.1947937  13.8987446  21.5396175  65.0753479
  13.4069386  22.1469326  65.6280899  13.4434528  20.7034531  65.1741943
  27.1345673   2.4776492   0.7090075  27.7979412   1.8153079   0.5154307
  27.3101463   2.7351286   1.6140534  80.1961060  50.2616882  76.5214233
  79.4633179  49.7178459  76.2324677  79.9324265  51.1552467  76.3017502
  27.6537132  63.9884644  78.8779831  27.8639202  64.1685867  77.9616852
  28.2192955  63.2529755  79.1133575  69.3319626  26.0872631  62.6807709
  68.9828568  26.9477882  62.4487038  69.7393265  25.7688637  61.8752213
  23.8709908  53.5174255  71.1094360  24.4827824  54.0105209  70.5628128
  24.1349106  52.6038475  71.0001144  67.0500946  10.5866604  31.9080963
  66.7888718  11.4461288  32.2387161  66.2272415  10.1076126  31.8098469
  75.5478745  47.5959854  28.1772213  74.8661270  47.4497757  28.8330193
  75.1453857  48.1871452  27.5410099  16.8985329  22.4948483  82.2296143
  16.1465912  22.8372345  82.7129211  16.5224686  22.1302910  81.4284286
  48.5442963  70.3631134  67.5565643  48.2600174  70.2236557  68.4598694
  47.9839363  71.0696106  67.2354889  19.9869289  23.1718178  70.9067078
  20.6595821  22.5027752  71.0337982  19.7541504  23.4487953  71.7929001
  56.0227165  25.7833576  23.2741547  55.9738846  26.6131496  22.7995052
  55.4961548  25.9259834  24.0606785  71.2070541  65.5074463  20.7776089
  71.5933762  65.2912598  21.6262836  70.9777451  64.6600800  20.3960056
  63.1208687   5.2224579  11.6778727  62.9566383   5.1924758  10.7353439
  62.9655228   4.3264608  11.9766836  18.1178684  65.8958282  55.2314873
  18.9260197  65.6234436  54.7968254  18.3402252  66.7265854  55.6517525
  45.1333961  62.3476524  45.6306610  45.5352020  63.1808739  45.8766785
  44.9745979  62.4268036  44.6900482  50.0077362  66.9992218  29.7373981
  50.9148407  66.7690811  29.9384689  50.0411034  67.9284973  29.5103073
  44.3540993  23.4225140  74.6714020  44.3461533  24.2854862  75.0854645
  44.1804733  22.8116245  75.3875732  65.6754761  54.4705353  39.3260117
  65.5037613  55.4115219  39.2900352  65.6444550  54.1863098  38.4125099
  85.3905106   9.7609911  46.0262871  84.7731705   9.5824738  45.3168869
  85.5073395   8.9159527  46.4604416  34.9304771  39.0439415  69.4171982
  34.3942184  39.2809029  68.6605606  35.7333527  38.6854591  69.0389023
  36.4179649  66.7371902  78.6960602  36.1864357  66.1370773  77.9871902
  35.7626152  66.5715179  79.3737793  54.6050568  11.3332262  67.4844742
  53.6682930  11.4338226  67.3153915  55.0177345  12.0225563  66.9641342
   7.8735828   9.2488813  30.7687035   7.2649441   9.4789619  30.0666676
   7.7715030   9.9491320  31.4132652  48.2007103  35.1108589  16.9838238
  48.3591766  35.7314186  17.6951771  48.5984001  34.2941017  17.2854538
  61.8994141   1.5212396  14.8703308  62.2816238   1.7447358  15.7189751
  60.9841576   1.3200144  15.0653868  77.7110138  46.1557083  48.7959824
  77.0187073  46.5183754  48.2433319  78.3512039  45.8034401  48.1776810
   1.6999457  22.7979469  30.6955929   2.2047718  22.2425632  30.1015129
   2.3604455  23.2448044  31.2250175  27.5183449  70.2161179  46.4335823
  27.7574081  69.4075546  46.8866882  27.5772839  70.8942261  47.1065826
  16.1880245  33.4964104  67.6012039  16.7109566  34.1798363  68.0203705
  15.2820320  33.7819786  67.7189331  72.4689407   3.2895944  81.3612976
  71.7608337   2.8107457  80.9305878  73.1681976   3.3215661  80.7084274
  44.9807243  54.9430847  67.8396683  44.7006645  55.6150246  68.4611969
  45.1284866  55.4192734  67.0225677  42.4586639  36.0074959  72.3763199
  42.6748123  35.1153488  72.1050415  42.8456573  36.0933113  73.2475815
  34.0007057   3.0582590  17.6257019  34.4233475   2.2036116  17.5409546
  33.8088913   3.1390073  18.5600033  10.7334957  55.6036911  53.9360466
  10.5247726  54.7012482  54.1774216  11.2093077  55.9496460  54.6911316
  62.5749016   9.8516178  87.8257141  62.6783829  10.7418318  87.4894943
  63.0615044   9.3046246  87.2090683  22.9721069  56.8157082  81.0545273
  23.6184063  57.3868217  80.6393661  23.1013279  55.9642868  80.6366501
  76.2440720   8.8902502  51.2836647  75.7694626   8.1187620  51.5931435
  76.4301529   9.3914461  52.0776482  70.2787018  -0.0450584  69.1898880
  70.0589218  -0.4371871  70.0349731  70.1454544   0.8939006  69.3196411
  42.5776329  48.8859024  33.6499138  42.5241699  47.9657860  33.3915367
  42.9675865  49.3247147  32.8938637  17.0322075  31.2218590  86.2373657
  16.4094276  30.8855858  86.8818054  16.8722267  30.6969242  85.4530945
  54.4030228  66.1721268  70.3225174  53.5808830  66.2959061  69.8481750
  54.1790276  65.5784225  71.0391464  10.0591412  21.4525623  60.7888718
  10.6616964  21.3832245  61.5293808   9.1890688  21.4586849  61.1878319
  12.3319511  40.1047020  16.4908295  11.5655546  39.7869186  16.0134602
  12.7102289  39.3194733  16.8865013  13.5535154  43.2979584  12.4368753
  12.8414764  42.8634491  12.9063778  13.1123695  43.8835716  11.8215075
  69.7868042   4.3889151  41.7489281  69.2225800   3.7696128  42.2118988
  69.6945572   4.1530752  40.8258324  71.4996109  12.3104410  42.3286705
  72.0514679  13.0698261  42.5157928  71.1853180  12.4567890  41.4364624
  86.1824722  26.4913750   9.2886734  86.4573441  27.0209351   8.5401802
  86.7233963  26.8031750  10.0142164  22.2361965  59.1269073  63.1175079
  22.7180576  58.3104286  62.9855843  22.8707714  59.8147125  62.9163322
  67.6925659  63.0552139  29.7499218  68.5089874  63.5196037  29.5654411
  67.0855255  63.3610039  29.0759583  41.9652557  33.1691322  83.3064423
  41.3227310  32.7207870  82.7565536  42.6144676  32.4967537  83.5130081
  23.4089451  56.3280563  84.2114105  23.3662186  56.3606339  83.2557220
  23.8472710  57.1420441  84.4594498  78.7145157  53.4530907  22.8088627
  79.6379852  53.7006569  22.8551579  78.4879150  53.5453415  21.8834572
  21.9011841  28.3101654  77.9716110  21.7585030  28.8837776  77.2187195
  22.7961388  28.5013752  78.2521896  66.4598999  37.1689835  72.0919342
  65.7696609  36.5202370  71.9543381  67.0633240  37.0353813  71.3610001
  80.4561462   4.2129107  69.4202271  80.9884567   3.4593000  69.6750641
  79.5717850   3.9909737  69.7115631  11.9678259  12.2462559  47.1411591
  11.5794296  12.5262756  47.9699936  11.3880396  11.5522938  46.8273163
  62.4238091  46.1703682  65.2023163  62.5416946  45.2553368  64.9472656
  61.9680710  46.5688705  64.4608841  25.8852444  15.0317335  19.4848061
  25.8833351  14.1425285  19.1304874  24.9624500  15.2262535  19.6486492
  53.4642715  30.0001888  34.3235283  52.7088470  29.9457932  33.7382011
  53.5152359  29.1350021  34.7298317  83.8227844  11.0349483  18.8074608
  84.6139221  11.0536079  18.2689648  83.1046524  11.1271477  18.1813431
   8.8174381  23.6278152  71.6107254   8.6803122  22.8305244  72.1223450
   7.9586463  23.8221626  71.2353058  22.0532284  34.5234375   0.1626563
  21.9615612  34.9714279   1.0035673  21.2756958  34.7816696  -0.3323086
  11.9744091  44.2918663  35.6556740  12.7909212  44.5280151  35.2154808
  12.2537460  43.8565025  36.4610710  59.2346039   4.5090694  15.0453453
  58.3356667   4.3325977  15.3228350  59.6083412   5.0262942  15.7588110
  14.2433739  45.6666527   3.2518163  13.7345943  46.4754143   3.3090749
  13.6176071  44.9744263   3.4650495  72.4071655  14.6434031   7.6746464
  72.5406494  15.5564022   7.9292951  72.3622665  14.6654711   6.7187543
  50.4014702  54.8069725  13.3796215  50.2174034  55.7199059  13.6007595
  49.5532837  54.3684959  13.4470778  73.4691162  55.8539963  29.6452560
  73.1306686  56.4478874  28.9751987  73.1405792  56.2114639  30.4701881
  54.0182343  27.3196259   0.8026201  53.7354240  27.4573555   1.7066561
  53.4210548  26.6526775   0.4638173  76.5993729  36.6039124  59.2766533
  77.5035172  36.7373466  58.9921417  76.1254578  36.3857918  58.4741173
  46.2086143  45.4314156   1.7344738  46.5551758  45.2065506   2.5979331
  45.9934311  46.3619728   1.7976646  84.4790344  55.1922379  45.9950638
  84.0540237  54.3548775  46.1806068  83.7854233  55.8425636  46.1055565
  39.6058693  41.6116676  86.5275726  39.5215416  40.6633453  86.6266022
  39.9593010  41.9095192  87.3657913  81.5737228  67.5826492  85.1935883
  81.0792007  67.1143417  84.5210037  82.4809418  67.3092728  85.0577545
  51.6132278  66.2100830  33.1680107  51.7619972  67.0097046  33.6726990
  51.0788422  65.6608047  33.7415504  14.8711405  57.6850395  68.1404266
  15.3095875  57.0489044  68.7055206  14.2003555  58.0787277  68.6983566
  17.3204498  41.4208488  72.4167633  17.1947842  40.5766792  71.9833908
  18.2695427  41.5034447  72.5096817  34.0537300  71.6177597  64.2106171
  34.0097122  71.9929199  65.0901260  34.7172775  70.9309921  64.2761002
  49.5075302  50.3603172  17.1564903  49.8276329  49.4793396  17.3505192
  50.2747612  50.8260498  16.8238010  78.7897339  31.0127087  74.9572525
  78.7000656  30.1928902  75.4431381  79.3353577  30.7862911  74.2040787
   2.4532399  29.6953754  73.7946091   3.2831168  29.2663612  74.0031357
   2.2606792  29.4214287  72.8978882  27.6039467   3.8530607  22.7062874
  27.7341175   2.9301209  22.9241600  26.7278728   4.0554032  23.0345917
  -0.1323846  71.1030807  14.6493998   0.5668696  70.4524536  14.7123098
  -0.1473050  71.5225906  15.5096436   9.8498535  39.9328957  58.3407784
   9.0534763  39.4024315  58.3657608  10.5632172  39.2948456  58.3562088
  79.1963577  66.8430786  87.0472107  79.7706299  66.5031509  86.3610001
  78.8315887  67.6472168  86.6776962  63.5847397  29.1214447  30.1003189
  63.5858231  30.0783882  30.1223812  63.6834831  28.9031219  29.1735935
  64.0026093  55.7086563  68.5038605  63.0825996  55.9234543  68.6577301
  63.9824600  54.8352737  68.1126709  44.0710373  48.1991272  76.9218903
  43.6048241  48.1273270  77.7547913  44.9675064  48.4270859  77.1680832
  57.6692352  42.6760178  40.8448105  56.9029961  42.1823997  41.1371231
  57.7081947  43.4291115  41.4343529  82.4975204  25.4823303  41.1820641
  82.0186996  26.1828442  40.7390747  82.1704941  24.6774387  40.7802734
  28.9939537  69.6956024  59.7924881  29.5271988  69.7225647  58.9980354
  29.6188679  69.8295746  60.5050621  77.3358459  27.1016521  81.4954605
  76.6370316  26.5787621  81.1024246  77.3752594  26.8042011  82.4044189
  29.1926937  47.3559036  72.1219940  28.6369114  47.9264030  71.5910797
  29.2199326  46.5303917  71.6382370  85.9188461  31.6412811  58.3371010
  86.4827652  32.3756218  58.0942650  86.3926926  31.1978817  59.0407333
  76.0276337  53.8146896  63.8291512  75.8076706  54.7154961  63.5916672
  76.8326416  53.6292763  63.3456039  62.1009521  24.1670952  45.4042892
  63.0399323  24.2994232  45.5348244  62.0259132  23.8574543  44.5016670
  30.8132782  41.2666550  83.1089935  31.1550903  42.0930481  83.4502640
  29.8864021  41.2739410  83.3479004   8.8872433   3.2434835  53.9783783
   8.4810715   2.4376223  54.2975082   9.4195337   3.5503540  54.7123604
   4.7241836  24.0488338  17.0770664   5.5372143  24.2138557  16.5995922
   4.5566659  23.1151104  16.9492664  27.0372906  24.5656910  88.5639954
  26.5908585  23.8165436  88.9585953  27.1152725  25.2004070  89.2762375
  55.4849663  13.2877893  65.4451599  55.3773537  14.0691109  64.9027710
  54.7231140  12.7462463  65.2388992  21.1318150  41.0704002   7.7345204
  20.7303410  40.6979179   6.9494691  20.4725285  40.9544601   8.4187222
  69.4732132  61.3608055  40.9328117  69.5849915  60.4371109  40.7080307
  68.8728180  61.3549385  41.6782799  67.5568008  33.8500786  34.6735802
  66.9385223  33.7422485  33.9508553  68.1156998  34.5788841  34.4039345
  79.7000351  31.1689758  34.1298866  80.4054413  31.0777435  33.4893341
  79.1926498  31.9200058  33.8220711  65.7527161   9.4070282  41.8834343
  65.6063919  10.2721357  41.5007935  65.5176468   9.5101280  42.8055763
  64.5554123  44.9597282  45.8397865  65.3792267  44.8437805  46.3131981
  63.9222488  45.2001305  46.5162048  84.3221893  46.6883507  24.8114967
  83.6602097  46.0822220  25.1440811  85.1422424  46.3844795  25.2006130
  20.4223843   5.7568688  38.1845436  20.1691704   5.5189018  37.2926407
  20.5265350   6.7080221  38.1582451  58.6448669  65.8561172  39.1117783
  59.0569916  65.2835693  39.7587471  59.2803307  65.9071350  38.3977699
  12.2859716  19.3009872  64.9345245  11.5467930  18.8083363  64.5779572
  11.9259109  19.7552776  65.6962433  85.9355392  12.7949734  28.9790859
  86.7506561  12.6647148  28.4944668  86.1662598  12.6110258  29.8896694
   7.2084188  50.9026756  37.2659836   7.5498662  51.5440102  36.6428185
   7.1705303  50.0843239  36.7709084  36.0974693  45.1147079  82.6141586
  35.5262222  45.4581680  83.3011475  36.0419540  44.1639023  82.7096405
   5.7966213  45.2747421  26.8361359   5.2173781  45.5819778  27.5335007
   5.4803128  45.7184410  26.0491734  71.7916641  23.2347507  64.8681335
  72.4578094  22.6670341  64.4805984  71.3122330  22.6652718  65.4698563
  29.5234680  66.8062515  22.8429680  29.5232792  67.3218079  23.6494617
  28.6281681  66.4756088  22.7698555   7.7552481  12.6745024  29.6902351
   8.2589788  12.3445044  30.4342709   8.3474245  13.2859163  29.2523613
  74.2917404  63.5067940  86.3107529  73.9282990  63.6870079  85.4437637
  74.3400345  64.3643723  86.7332001  58.6499748  18.9169636  69.5235214
  59.0173225  19.7867451  69.6808929  58.3997803  18.6018963  70.3920670
  74.4797287  20.0345440  16.0072575  75.2228699  19.6644955  16.4837322
  74.8388748  20.8019753  15.5619564  57.4679451  27.6028137  47.8689003
  57.4499893  26.6495285  47.7843056  58.1284752  27.7712326  48.5408859
  62.6882858   7.1356149  77.2725525  63.4632988   7.5780668  76.9263992
  63.0248795   6.5743256  77.9710388  14.3316126   6.5424185  37.1719704
  14.0547333   5.6980457  37.5277863  15.2223864   6.3890877  36.8569412
  23.2131519   7.9903450  31.5304146  23.5972843   7.1402245  31.7448215
  23.8327999   8.6289768  31.8831425  83.8797684  40.7362061  26.7258492
  83.5640335  41.0423203  27.5760460  84.8334579  40.7814255  26.7940865
  74.5636826  53.6474075   8.7818422  74.0340500  52.9588966   8.3797512
  73.9323807  54.1901398   9.2542162  77.3042679  64.6178284  33.9635010
  76.8567505  63.8391380  34.2945786  78.1423798  64.2913589  33.6360588
  74.6378021  26.9886456  74.3007126  74.9548950  27.6200409  73.6549377
  74.3263626  26.2487450  73.7793808  45.7074661  56.1477013  37.1212234
  45.8083420  56.8545494  37.7587395  45.3730659  55.4104385  37.6319618
  66.1117783   4.1037474  26.1649742  66.6182480   4.4738059  25.4419403
  65.9108658   3.2109299  25.8843632  50.1732788  12.4626408  59.4003830
  50.6319542  13.2784767  59.1997337  49.6245918  12.3013306  58.6328201
  57.0316963  36.5479126  38.6758003  56.1671333  36.1907349  38.8787346
  57.4964714  35.8251610  38.2540855   2.9562559  63.9489784  27.3981285
   2.1745036  64.4411240  27.1473503   3.4183114  64.5266495  28.0056114
  34.8998756  24.7579975  11.0522203  34.8842087  24.0016594  11.6386843
  33.9775581  24.9756641  10.9173737  59.1402969   4.3448529  28.2281113
  58.9907341   4.8099842  27.4049969  60.0907135   4.3575802  28.3411350
  55.1943626  56.7844391  84.6020966  55.4004936  57.7140198  84.7001648
  54.4771652  56.7636833  83.9685135  85.0838165  10.1278524  27.0383415
  85.0275879  10.0735760  27.9923458  85.7477493  10.7977972  26.8752747
  78.2327805  36.3505554   5.7962308  77.7298813  35.6766281   5.3389044
  78.4797974  35.9430656   6.6263928  73.1261368  59.9573402   4.3913422
  72.6777420  60.8026390   4.4167376  73.1777267  59.7414665   3.4602311
  31.3983326  22.9068279  10.1293802  31.8821220  22.2191029  10.5867777
  31.8043098  22.9499683   9.2636127  86.1224289  28.0480518  27.5363045
  86.8444977  28.1947269  26.9253006  85.8698654  27.1357956  27.3940620
   1.2226712  68.7794724  71.6005096   1.5862465  69.6348953  71.8292007
   0.9719221  68.8639755  70.6806030   5.1826038   2.2194321  67.2940521
   4.5484662   2.3644080  66.5918503   4.6479368   2.0140700  68.0609818
  63.3693619  19.7030373  46.5860786  62.9945412  18.8869400  46.2548294
  63.2176666  19.6702538  47.5306129  52.6682854  61.2231026  14.5382576
  51.9343147  61.1842194  13.9250641  53.4453125  61.2537804  13.9801178
   3.9388394  45.9697800  86.4386978   4.1492925  46.6589470  85.8086243
   4.7823210  45.7309227  86.8230362  64.8053284  70.4111710  43.7062645
  64.6819382  70.5069733  42.7618942  63.9366379  70.5641251  44.0780411
   8.3798323  58.5749626  31.2505417   8.7847652  59.0957184  30.5569477
   9.1171255  58.2478867  31.7659550   1.0505114   6.1773787  31.6454220
   0.9014826   7.0704875  31.3349724   1.9317281   5.9616361  31.3402271
  44.8700218  53.8381081  48.2361069  44.0704308  53.4321785  47.9012833
  45.0617523  53.3598404  49.0427856   9.2842512  49.0336723  58.6631088
  10.0759001  49.4308167  59.0261536   8.5686769  49.4241867  59.1647873
  64.1901321  56.8904457  49.2599907  63.2929840  57.0681686  48.9775543
  64.4473343  56.1124763  48.7651787   0.9445316   3.9000845  52.7278290
   1.1624432   3.0309389  53.0644760   0.1357655   4.1369066  53.1817474
  76.9679794  67.5522461   3.4444687  77.0378952  68.4598312   3.1484487
  77.8586502  67.2084961   3.3753922   6.3108592  31.8969250   5.6567807
   6.9163895  31.1796932   5.4693170   6.0638170  32.2331696   4.7953043
  43.4302254  58.9901772  38.0212364  42.6718979  58.5848198  37.6006927
  43.6466141  58.4011002  38.7440033  54.8695946   5.8919649  36.3920021
  55.4347916   5.3053474  35.8893471  55.4699554   6.3736496  36.9610176
  51.3632545  13.5133104  52.8813286  52.1135101  14.0818129  52.7076836
  50.6455193  13.9053078  52.3839073   1.4503537   4.7905211  16.5699806
   0.4990261   4.7138124  16.4970188   1.6017251   5.7150140  16.7665291
  38.3989525   4.1841302  46.0598564  38.3396606   3.6960866  46.8811531
  38.1792908   5.0843563  46.2997971   7.0269856  51.4223289  21.9776993
   7.2503514  51.7976608  21.1259575   7.0390863  50.4761887  21.8331089
  67.2411499   4.1337318  44.1861000  66.4687500   4.5896840  43.8518448
  66.8989563   3.5432549  44.8572731  71.2259979  14.7486153  48.1388206
  71.8226471  14.4690132  47.4445114  70.6278915  15.3598785  47.7088776
  55.4901848  47.3691177  47.5890999  55.3453026  46.5785942  47.0691833
  54.8289719  47.9863091  47.2758827  10.3232193  47.8800964  77.1215973
   9.8072243  47.2165413  76.6636963  11.2273750  47.5753517  77.0450211
  84.6371307  60.5646973  78.5003204  83.9171371  61.1451263  78.2534409
  85.3259430  61.1544914  78.8067703  41.1440315  45.9690132   4.3033066
  41.1789513  46.7695312   4.8269334  40.9424210  46.2707863   3.4175746
  61.6195412   2.5302629  34.5878716  60.6650581   2.5458932  34.5175095
  61.9208603   3.1085408  33.8871346  14.8737240  57.2686386   2.8369308
  15.4126282  57.4540672   3.6059752  15.5036755  57.1488686   2.1262631
  75.0442963  57.4774857  79.5361938  74.9272614  57.3221054  78.5989685
  75.8728943  57.0478783  79.7485657  79.3703384  30.8502121  17.4773998
  80.0592270  30.8106060  16.8140087  78.6039810  30.4677563  17.0500107
   6.5218201  43.1511650  72.6929550   6.5872574  43.1296005  73.6476746
   6.1678810  42.2934875  72.4577026  57.2433510  15.2264280   1.5584857
  57.5657387  14.9652386   0.6958866  57.3498840  14.4448595   2.1007342
  19.1859779  47.4191437  37.5038643  19.0802269  46.6315689  36.9702225
  18.2956810  47.6502838  37.7687836  31.9420719  50.1441231  66.3902740
  32.1377678  51.0669861  66.2282257  31.0322762  50.0397110  66.1117020
   8.2042112  60.6427727  74.3386383   7.4661398  60.4316521  74.9104004
   7.8155894  61.1420517  73.6203613  15.5728931  62.0987968  88.5811768
  15.5697584  63.0243530  88.8252411  15.1718760  61.6529961  89.3272858
  48.0560188  58.4282036  74.9547806  48.9295464  58.5235138  75.3343811
  47.5639343  57.9309006  75.6080627  54.0092354  28.1537323  20.8836288
  53.8111610  28.8525791  21.5070152  53.3381996  27.4907093  21.0459290
   4.1092658   0.2018079   1.4404563   4.0535564   0.6868052   0.6171058
   4.5091600   0.8175831   2.0545714  11.5587406  47.6729889   2.0696640
  10.8501682  48.2738533   1.8391870  11.7519226  47.2071724   1.2560730
  43.3705139  55.8467445  59.2598572  42.7983284  55.1128540  59.0357094
  43.6835403  56.1727867  58.4160881  76.1545639  64.6229706  71.2077713
  76.6475143  65.2995834  71.6719131  75.5611420  64.2639465  71.8674469
   0.3023883  13.6523857  65.4803619   0.3898322  13.8837881  64.5556793
  -0.3554296  12.9571381  65.4921036  13.0522985   2.2057178  17.8087597
  12.8522491   2.7122815  17.0216084  12.9929104   2.8399234  18.5232449
  58.7368469  42.1664963   3.6196969  59.2668686  42.0816956   2.8271573
  58.2850418  43.0041122   3.5171952  53.2019234  62.9952660  27.5726986
  52.6145172  63.3951530  28.2140045  53.5153084  62.1978493  27.9994831
  74.6998215  12.9538126   1.7962995  74.1205063  13.6437302   1.4728230
  74.2547150  12.6111422   2.5713387  62.1894913  64.2345734  18.0864563
  61.7107391  64.9245453  17.6271458  62.0041275  63.4402313  17.5855579
  75.0975418  67.0495529  38.2834892  75.2108078  67.7465973  38.9296532
  74.2718124  66.6303253  38.5256653  67.1300507  16.0185509  41.9952087
  66.7480392  15.1415615  41.9607620  67.9908752  15.9209871  41.5881462
  71.4492264   5.5842228  82.2382812  72.0176620   5.0283980  81.7052002
  71.9799271   5.8054571  83.0035629  10.9525232  10.1426258  80.3665543
  10.6675777  10.9458294  80.8023300  11.1234312  10.4080887  79.4629211
   6.2274222  64.0708237  69.2695847   7.0408220  64.5681686  69.3548279
   5.8691282  64.3407593  68.4240112  29.8475533  65.2291031  50.9684563
  30.6257267  65.7143784  51.2426491  30.1826401  64.5504074  50.3825111
  20.3194313  22.5299034  65.8290329  19.8161125  23.0837803  65.2322693
  20.2783909  22.9849377  66.6701584  27.0446243  53.6509590   7.9909964
  27.5011425  53.2689819   7.2413859  26.1881084  53.2236328   7.9929638
  28.3206120  64.8805847   7.9486904  28.3379517  63.9849129   7.6114860
  27.6713734  64.8592987   8.6517334  63.0166473  39.8807106  48.2998276
  63.5611763  39.4033089  48.9257736  63.1946793  40.8033257  48.4823570
  24.1879177  21.7881203  87.0074463  24.5962467  22.0558491  86.1841431
  24.8866425  21.8642845  87.6572189  44.6773071   2.7665555  61.8594894
  44.2313576   3.6028352  61.7253304  44.4787979   2.2601960  61.0718193
  19.9428234   6.8569102  68.4252625  20.6553612   7.2831326  68.9015579
  19.4380913   6.4062366  69.1022873  82.8210297  60.9066010  74.7066803
  83.1006088  61.7884941  74.9523163  83.5514526  60.5572891  74.1960983
  54.3910484  71.4299164  65.9153290  53.5248871  71.0441132  65.7843552
  54.7350540  70.9882660  66.6917572  71.6299210  16.8218136  41.8260345
  71.0203476  17.2773724  42.4066582  71.9716644  17.5073814  41.2520714
  68.9690628  39.2251587  86.6906891  68.1719818  38.7576523  86.9403534
  69.5657730  39.0914497  87.4270859  28.6046104  48.6025772  23.2426586
  28.0622692  48.4151878  22.4765110  27.9868355  48.6262016  23.9734306
  70.6900330  33.8946304  15.7193136  69.8764648  33.4153900  15.8763857
  70.9856491  33.5899773  14.8613939  74.5602646   8.1925039  44.7901535
  74.1840210   7.5446014  44.1944237  74.7127457   7.7104707  45.6029434
  26.1607895  46.4155769  66.8178711  26.2975349  47.3584442  66.9102402
  25.8778973  46.3023491  65.9104614   5.7410040  10.6547823  24.1314430
   5.1894135  10.8241196  23.3676987   6.2854805  11.4379072  24.2120247
  15.3652525   9.4277525  65.0423126  16.2899284   9.4299345  64.7949219
  15.2776613  10.1636419  65.6481400  74.4404144  19.2717304  51.5770950
  74.1396027  19.8958855  50.9166603  73.8430862  18.5284328  51.4938354
  52.2733345   3.3143518  71.7368317  52.8796234   3.7599623  72.3285065
  51.9556923   2.5643666  72.2396851  74.8313751  55.7256432  39.2014351
  74.3769836  56.5541382  39.3542709  75.2881393  55.8528290  38.3699188
  29.1705170  67.3036499  88.7238922  29.3100090  68.1011658  89.2345276
  28.8216572  67.6125565  87.8877716  11.7626009  51.3639412  44.1174812
  11.1138420  51.1843758  43.4369659  12.5610399  51.5805817  43.6360321
  22.8419228  15.7035646  79.1186295  23.0751343  14.7894430  78.9566803
  23.6257153  16.1971073  78.8771362  47.1685600   7.7459788  19.9306240
  46.2601128   7.5197420  19.7311974  47.1313324   8.6597662  20.2131805
   6.9324536  20.2976818  81.8615341   6.1110559  20.4103451  81.3831558
   7.1076074  19.3576221  81.8186417  27.2227802  56.0642204  55.6473236
  27.4793530  56.6872635  56.3271904  27.4603977  55.2085686  56.0045738
  84.0316849  26.0354347  23.9342213  83.6193085  25.4827251  23.2703781
  84.6509781  25.4556599  24.3775864  41.2054253  59.2846413  12.9050808
  40.3884048  59.7012749  13.1791697  41.0627785  58.3512650  13.0622129
  18.4257107   1.8852329  50.8863678  19.3261604   1.5778232  50.7818642
  17.9770603   1.1658182  51.3306503  30.6653252  10.7329531  86.9886627
  30.4248543  11.0345440  86.1126175  31.3606224  11.3299551  87.2650375
   4.0775218  61.9958153  11.4960957   3.8938305  62.7695045  12.0289097
   4.5879798  62.3289452  10.7580652  70.3824692  34.0907364  68.5023117
  70.0227737  33.6864662  69.2918777  71.2096176  33.6323891  68.3540802
  25.0565510   3.2714372  66.8807220  25.6105537   4.0003552  66.6014557
  24.1628513   3.5754392  66.7222366  42.2472305  56.6895180   2.3687248
  41.3654938  56.3213234   2.3121088  42.7340622  56.2539215   1.6690917
  20.4399986  19.3171082  85.0919571  21.0032101  19.8245583  85.6763535
  20.0872002  19.9624252  84.4793091  31.6783142  49.7826843  33.4528656
  31.9529190  50.4345894  34.0977287  32.1293755  48.9805374  33.7161751
   2.8051097  10.3618851  61.5414047   2.9316645  10.2246532  60.6025848
   1.8566409  10.4361115  61.6469002  49.4861641  50.4832535  72.5209427
  50.3789520  50.8282394  72.5087967  49.1511955  50.6545753  71.6407852
  24.2714577  48.0954018  26.0815830  24.2735748  48.1508408  27.0371742
  23.7118778  48.8195038  25.8008995  66.5085907  47.4239731  51.6911049
  66.4031067  46.4746704  51.7537651  65.7362366  47.7802811  52.1301346
  58.1347313  20.5664597  37.5429382  57.3978233  21.1271915  37.3004990
  58.6855965  21.1205978  38.0958481  84.2259598   6.6708422  11.0480986
  84.2392197   6.2988095  10.1662550  83.3619461   7.0756822  11.1242952
   6.6344452  58.1750145  68.6188736   6.0749917  58.6459999  68.0012894
   6.9108477  57.3920670  68.1426163  38.6191101  39.8476982  64.5248108
  38.0265083  39.7302094  63.7823486  38.1554222  40.4479408  65.1087036
   1.5485255  17.0005016  41.9006157   2.4252131  16.6562004  42.0712242
   1.5567528  17.2264271  40.9704971  62.6263618  65.2486954  39.9213600
  62.7784195  66.0157318  40.4734116  62.9675865  65.4999008  39.0630493
  43.3435135  28.9878101  66.5460739  43.2339745  29.5687637  65.7932663
  42.5837479  28.4065475  66.5125961  62.2799225  12.8545570  88.2649536
  61.4576797  13.1235647  87.8553391  62.8509216  12.6292591  87.5304947
   3.0447567  30.3371868  61.0089645   3.8884063  30.7354507  61.2231445
   3.2547126  29.4253998  60.8069916  19.8730564  37.5666618  28.5053062
  19.9728508  37.7987175  27.5820370  20.3778172  38.2305832  28.9750481
  66.8483124  22.4731140  45.7004356  66.5021820  22.8743401  46.4975853
  67.4851151  23.1069393  45.3703194  20.4678783  60.5700455   4.4615912
  19.7394867  60.6523857   3.8460450  20.2332268  59.8227119   5.0117402
  20.2065086  52.4076805  88.6495361  19.4828491  52.5019493  89.2689362
  19.9470158  52.9373207  87.8956299  31.6496143   8.8279963  75.6885986
  31.5322437   9.7125311  75.3421097  32.5985413   8.7194853  75.7518158
  63.4060440  32.1806488  80.5212479  64.1639175  32.5267487  80.0500031
  63.7503204  31.9326229  81.3792648  16.3320618  63.2742958  84.4890594
  16.7532845  62.8032684  85.2080460  16.6035271  62.8022041  83.7018661
   3.0835705  11.8121662   6.2643676   3.6159439  11.7623558   7.0583005
   2.2907453  12.2744932   6.5362382  43.2934265  44.3912201   4.2424445
  42.5433388  44.9853668   4.2667203  43.3653145  44.1336632   3.3233533
  34.4691544  20.2954540  64.9309845  33.5664711  20.5908260  64.8120346
  34.7720070  20.0887470  64.0467987  23.4987869  58.0458641  14.3583145
  22.6804256  57.8127403  14.7966881  23.8364964  57.2149811  14.0239182
  23.6870022  62.6771698  50.9026451  23.5935516  61.7547302  51.1405563
  22.7904797  62.9786224  50.7556572  77.1461182  58.9680099   7.9763269
  77.4565430  59.8200302   8.2828064  76.2821808  59.1471977   7.6051846
  21.1246738  63.6046257  75.7203293  21.9372807  64.0371628  75.9826508
  20.5377254  63.7245178  76.4668808  79.7806473  36.2474480  84.1090393
  79.0213089  36.8070030  84.2719574  79.6865005  35.9758110  83.1960297
  18.6832161  55.9158058  42.5294075  19.4028244  56.4850388  42.2567024
  18.5953693  56.0743752  43.4692841  61.3286629  50.5557785  44.4917030
  61.6392441  49.6998940  44.1963463  61.6723747  51.1716805  43.8445854
  57.8956718  13.2927866  56.3483315  58.0410767  12.3969049  56.6524429
  58.2086601  13.8431778  57.0662003  73.3346939  39.0606842  43.3833733
  73.0320435  38.1879082  43.1325722  72.5490036  39.6062241  43.3471451
  20.3348293  56.4415092  78.7929688  20.6149273  55.5458069  78.6045685
  19.9149361  56.7361412  77.9848175  50.9679794   0.8197842  43.7799263
  50.1060066   0.9605845  44.1716003  51.3161125   1.7010038  43.6439590
  84.6730576  59.6570587  56.6033745  84.8730774  58.7550507  56.3531685
  84.9899139  59.7317963  57.5035133  43.7994461   4.3818760  58.8569489
  43.6401062   5.1267362  59.4366264  42.9389458   3.9782467  58.7435684
  46.2950706  16.2290726  22.3468895  46.4094391  16.4571590  21.4243221
  47.0858002  16.5576878  22.7746620  37.7293091  15.2687187  86.8227768
  38.5286255  15.5818567  87.2461853  37.9791946  14.4337091  86.4271164
  62.4145393   3.4710989  87.3259201  63.2873878   3.2740932  87.6658478
  62.2821236   2.8351166  86.6229095  58.4422951  39.2597466   4.8267164
  58.8369637  40.1124687   4.6441379  59.0749588  38.6257668   4.4890227
  84.4483261   0.6261877  18.3371334  83.6510010   1.0335492  18.6755905
  84.7013397  -0.0028076  19.0128422  36.5290565   1.2610047   3.0080545
  35.6425133   1.1809770   3.3600013  36.4666977   0.9099378   2.1197441
  45.6765137  13.5754976  79.1642990  45.2271690  13.6391058  78.3215179
  46.4411507  13.0275612  78.9872894  78.8565445  10.6693306  74.5826416
  77.9745102  10.6660299  74.2108383  78.8348160   9.9902134  75.2568512
  77.2403488  25.0580254  56.4011345  77.7953262  24.2888813  56.5301819
  76.4422379  24.8625927  56.8921051  32.3544617  61.9362335  85.6279526
  32.9723701  62.2917862  86.2667084  32.8853874  61.3640099  85.0739594
  28.4770164  34.0396004  68.0937347  29.2729340  34.3173981  68.5471420
  28.7901821  33.4916382  67.3740845   2.6991732  29.6272602  23.4167652
   2.8117704  29.5171280  22.4726124   1.9634906  29.0564156  23.6384373
  23.5304508  66.8764725  20.7510166  22.5925026  66.8371124  20.5640984
  23.6030254  66.6139603  21.6686516  72.3781815  18.7732582  46.5730972
  71.6105957  18.4573288  46.0964165  73.1052475  18.2566261  46.2256775
  68.4201889  38.0748253  75.7174377  67.8197861  37.4283524  75.3461990
  68.0236511  38.9197273  75.5050125   1.7461268   3.1544893  70.6524658
   1.7326757   3.4178090  71.5726318   1.4483641   3.9300671  70.1770172
  27.2742462  22.6028938  43.5410004  28.0176582  22.0130329  43.4159660
  26.8279533  22.2645454  44.3172569  43.3698425  13.9323120  62.9236145
  43.2165909  13.0167761  62.6900749  43.9473305  13.8916092  63.6859016
  69.8543777  38.6113472  11.8878641  69.8166351  37.7987938  12.3924046
  70.3850632  39.2012634  12.4232235   0.7685852  47.8500786  44.5934143
   0.8517788  47.6104431  43.6704407   0.2823148  48.6745071  44.5839310
  47.3084793   0.1298840  52.3021698  47.3484802   0.6218508  53.1222916
  47.3791122   0.7967559  51.6191444  42.7854004  13.4600382  72.3551407
  42.8006363  13.4325895  73.3118286  42.0956421  12.8437700  72.1088028
  55.5822296  61.4260216  77.9743118  55.7392197  61.1756935  78.8847656
  54.7946205  60.9423752  77.7253342  25.7466259  65.7511215  84.7441177
  25.0137005  65.6695557  84.1338730  26.3445148  65.0460129  84.4959641
   4.1179781  34.2160416   6.7237592   3.9415793  34.8253288   6.0069036
   4.8482318  33.6824379   6.4103441   2.6798096  64.4816132   1.2248595
   3.2103517  64.7128448   1.9872811   2.0984483  63.7890015   1.5387710
  50.5179443  50.4335747  62.8286819  49.7776909  50.6714058  62.2703819
  51.1477928  50.0292778  62.2319717  67.9124527  19.0781994  39.0746536
  68.6799774  18.6053467  39.3964348  68.2243423  19.5394650  38.2960739
  47.4494286  59.0852814  54.0676765  48.3120689  59.0870590  53.6528549
  47.5234261  58.4407425  54.7714691   9.9266920  12.5455542   7.9491353
  10.6450968  12.8726082   8.4905806  10.2552948  11.7228327   7.5866685
  15.6319895  63.0167809  57.6266937  15.2053967  63.8317833  57.8913078
  16.2219486  63.2742920  56.9182663  37.0086403  68.4636612  38.7736664
  37.5005875  67.8453903  38.2333374  36.1875191  68.0115967  38.9676476
   8.4413586   9.5376873  50.2648048   8.1043587   9.1669950  49.4491768
   8.1128531   8.9526739  50.9475021   9.1403923  17.5022373  75.6554947
   8.9684629  18.4423809  75.7084274   9.4106731  17.3588772  74.7485046
  78.9155807  68.5212326  11.1656713  78.7676620  69.1339417  11.8860416
  79.8655472  68.5142593  11.0484066  49.2716103  61.2875023  30.2380733
  49.6530724  61.4827766  29.3821602  49.6053925  61.9770164  30.8119984
  14.3908987  70.2837601   3.2447443  14.0349884  69.6377258   2.6346641
  15.1264877  69.8373642   3.6641102  80.7171021  63.8896980  75.7823410
  80.2782669  64.3666306  76.4867477  80.1386795  63.9928360  75.0266876
  17.2430134   5.0417271  80.0079346  16.3518829   5.3895750  79.9744644
  17.8036766   5.8063231  79.8764648   3.2053890   4.5372281   7.7912459
   3.4146662   3.7516918   7.2859068   3.9961927   5.0739231   7.7381415
  36.0051575  44.9840546  22.0524292  36.2697105  45.9031982  22.0147400
  36.2617455  44.6259270  21.2026424  18.3884144  65.4778976   4.8095865
  19.1372547  65.9570084   5.1644506  18.0443611  64.9852600   5.5546808
   4.3205214  70.1095886  26.4327393   4.2878609  71.0573349  26.5629177
   4.8599472  69.7871094  27.1547203  51.6028290   1.6977619  56.6609459
  52.3333893   1.3797870  56.1304703  51.9983521   1.9224582  57.5031471
  52.5908165  48.2456551   2.5842400  52.3699303  47.6129150   3.2676728
  52.6850014  49.0771217   3.0490212   1.4594895  61.9989586  88.2738266
   1.7793741  61.8757896  87.3801041   0.6386046  62.4802513  88.1702042
  77.1460876  41.6910210  59.5322533  76.8285446  40.8994141  59.9667130
  76.5276184  41.8357086  58.8161583   2.5667005  33.8889427  17.3606892
   2.8958383  34.1944466  16.5153675   1.6215245  34.0334702  17.3161144
  32.8055000   9.9078493  28.0285339  33.2607498  10.6790438  28.3665314
  33.3309555   9.6290703  27.2785931  72.4362793  61.7683716  73.8963242
  73.1176529  62.3672867  73.5909424  72.7785110  61.4148788  74.7173920
  76.9873352  25.5264015  64.3928604  77.0536575  24.6026573  64.1509247
  77.8903961  25.7952480  64.5615234  43.5831184  64.5464401  58.0570602
  43.4557114  64.8862152  57.1713104  44.4643135  64.1728134  58.0458221
  55.1947975  54.0979080   6.1152134  55.4988289  54.5981140   5.3578558
  55.8796272  54.2191162   6.7728968  52.5795937  45.1294174  75.2203064
  52.0211105  44.4434738  75.5860977  52.3545303  45.1508789  74.2901840
  24.9117584  37.5220985  71.4384460  24.4445457  36.8078613  71.8718185
  24.7634354  38.2817879  72.0015717  55.6336021  22.2437134  74.4860458
  55.7364693  23.1622658  74.7348709  55.2606010  21.8256607  75.2621460
   8.5707245  50.9622192  83.5782471   9.3379250  51.1003380  83.0227661
   7.8327546  51.2582512  83.0453339  59.1429291  40.0638428  42.2434578
  58.5238647  39.6544724  41.6389694  60.0037231  39.8703537  41.8722076
  81.3188095  67.5696716  53.4257889  81.4357986  67.8969803  52.5339279
  81.7247086  66.7028351  53.4179611  79.5048599  65.8216248  80.5580826
  80.1215591  66.3341904  81.0807571  79.2654343  65.0866776  81.1226730
  12.9127674   5.2956147  28.9784832  13.1411114   6.1980424  28.7555141
  11.9593172   5.3036385  29.0627422  23.9699135  26.8773193  74.4529877
  24.7313709  27.4561157  74.4905090  24.3403492  26.0003262  74.3535385
  35.7347946   4.4437079  55.6420593  34.7992516   4.4454198  55.8445129
  35.8172455   3.8501270  54.8956680  21.0530281  20.9018345  74.0408478
  20.2836151  21.2761173  73.6117172  21.7243977  21.5795918  73.9624786
   9.0403786  66.2040939  19.6183281   9.4175224  65.3436661  19.4348679
   9.6966715  66.6427841  20.1596832   1.0963172  33.2777557  57.1904526
   1.1919737  32.7544212  56.3947144   1.8684636  33.0618896  57.7133522
  22.8595734  61.7802963  19.8446999  23.7284927  61.7714691  20.2461166
  22.8440323  62.5839043  19.3248863  64.5686569  22.2655296  18.2571220
  65.0779343  21.4575939  18.1929989  64.7866516  22.7499027  17.4608231
  36.5262566   1.5638714  73.7295685  36.2987976   0.9126267  74.3931732
  37.0789185   1.0897734  73.1082535  32.3698578   1.9044652  84.2032623
  31.5208950   2.3245623  84.0653687  32.4615555   1.3018079  83.4652786
  53.4329338  63.1779709  67.2013702  53.0013046  63.1229362  66.3487854
  53.9184151  64.0023727  67.1712723  73.8887177  22.3233051  72.1276093
  73.5770569  22.1909008  71.2323074  73.9717941  21.4394169  72.4854813
   2.1814535   9.4837961  27.6457062   2.0252156   9.2215891  26.7384739
   2.0924046   8.6737680  28.1478577  67.0921707  11.8450880  62.7373009
  67.8269348  12.2708435  62.2956161  66.4598846  11.6737690  62.0393753
  35.2731514  61.4453278  21.1412849  34.5610008  60.9902115  20.6919022
  35.1530342  61.2249489  22.0649929   9.2653923  37.8785439  75.9045258
   8.3146553  37.8048744  75.8214417   9.5602856  36.9852638  76.0814972
  34.6025658  14.9225168   9.5105362  34.9102936  14.0416250   9.2970800
  33.6854744  14.8026466   9.7571268  69.7614975  65.6136017  69.3217621
  69.8519440  66.5664597  69.3115692  68.9624405  65.4435120  68.8229523
  26.9421673  63.9060631  32.3410072  26.2058125  63.7697678  31.7448196
  27.3211346  63.0347214  32.4566803  74.0017395  17.3864746  23.9381237
  73.0666428  17.5386028  24.0747833  74.0417252  16.8122196  23.1733570
  60.5231056  -0.0467568  41.9918556  60.9623489  -0.2969253  42.8046989
  59.7086449   0.3672327  42.2773399  74.8067093  43.7173309  78.1663818
  75.6763077  44.0202751  78.4276276  74.3175507  43.6570702  78.9869461
  56.1911392  24.9758415  74.6428604  55.9662704  25.6523514  74.0041122
  57.1118050  25.1375351  74.8489227  16.6727009  53.1342316  24.1601009
  17.2372932  52.5134201  24.6205997  16.8189526  52.9485016  23.2325516
  12.0768318  47.6191063  16.1535950  11.1203899  47.6547737  16.1402340
  12.2987490  47.4874611  17.0753613  11.3065329  55.5728416  39.3931007
  10.5927401  55.0013771  39.1099701  10.8835478  56.2264595  39.9499626
  61.1450577  23.2969131  15.3140602  61.0205307  22.9645939  16.2030430
  60.4981117  23.9970284  15.2272625   5.7032046  65.5389862  26.2644672
   6.2801852  66.1365433  25.7888145   5.0084538  66.1002274  26.6087952
  23.6022587  55.5587807  11.4626799  22.8599091  56.1522217  11.5765791
  23.8734684  55.3405800  12.3543453  67.6293182  62.6846390  74.1856155
  66.6753540  62.6579323  74.2595291  67.8022232  63.4003830  73.5740280
  45.2253380  33.8462753  73.1708069  45.9828377  33.2776031  73.0328293
  45.0470200  33.7842178  74.1091995  77.8176346   6.0756621  14.8872814
  76.9924774   5.9668655  14.4145212  77.5730591   6.0230527  15.8112116
  42.1774635  52.2701645  81.8894196  41.5308189  51.9382095  82.5122299
  41.9057121  51.9079514  81.0461044  50.5137253  32.0674362  61.2321739
  49.9576797  31.7837086  61.9578056  50.8619652  31.2547951  60.8653297
  63.9399605  28.3531590  80.4331818  63.2761230  29.0034008  80.2035294
  63.8931046  27.7046509  79.7307053  62.2320900  17.0820789  64.3814850
  63.0264206  16.5519028  64.4461517  62.3739967  17.6332359  63.6118622
  38.4942627  44.8905144  18.3368931  38.2970467  44.8299942  17.4021873
  37.7746696  44.4258385  18.7640858  79.1559296  35.1267014  64.7549515
  79.2183838  34.2225418  64.4470062  78.6928482  35.5867271  64.0548325
   4.7096419  66.6745911  34.7474289   4.2513838  66.4981308  35.5690689
   4.2143202  67.3882217  34.3454094  28.1931801  48.7614555  55.5099983
  27.3792324  48.7154274  56.0116005  27.9752731  49.2991982  54.7486916
  83.9161835  50.0008545  64.8950043  83.0822449  49.6161766  65.1648331
  84.5784683  49.3976440  65.2322693  62.2137756  14.4784956  81.0193253
  62.5998917  13.6034050  80.9824066  61.2848129  14.3383274  80.8359833
  60.9735107  56.2439346  78.9355087  61.3661346  56.8586388  78.3156509
  61.3769264  55.4016533  78.7256165  27.8230553   7.8509750   5.0458226
  27.0335426   8.3864012   5.1247034  28.4026070   8.3607674   4.4797263
  25.8474579  37.9760857  65.6191406  25.2097225  38.0426521  64.9084396
  25.8279839  37.0533028  65.8727646  70.8833389  20.7703724  42.5974998
  71.2337494  21.6609859  42.6134300  70.8138351  20.5569458  41.6669884
  42.1374359  52.2938461  29.3940277  41.5537987  52.7980537  28.8271275
  42.3171463  52.8766556  30.1317749  17.6894112  58.0135765  50.0660477
  16.9264355  58.1793289  49.5123100  18.3375854  58.6570358  49.7795830
  80.8322449  18.6266994  50.0859299  81.3950958  19.3992310  50.0346985
  81.4369049  17.8990250  50.2312202  82.4041977  64.2178497  33.1630135
  83.1158752  64.3754501  33.7834244  82.8159103  64.2928696  32.3021469
  77.5120773  33.9787369  46.5296440  77.7227936  34.4597588  47.3299217
  76.6854477  33.5378075  46.7258415  74.8200455   4.7524390  73.4989471
  75.2721481   5.1575713  72.7588730  73.8939438   4.7810411  73.2586441
  11.5846815  48.3498268  49.7892456  10.9725170  49.0392914  49.5321007
  11.6979418  48.4695358  50.7321510  57.5211258  15.8767872  35.2347488
  58.2296562  16.0253010  34.6085205  57.4090157  16.7198620  35.6739388
  68.1754150  63.9256363  82.3489838  68.9989166  64.4001007  82.2351151
  68.1363373  63.3305779  81.6002426   4.1166210  40.9619713   6.3879046
   4.7235608  41.5401039   5.9257193   3.5337710  40.6310005   5.7045465
   1.4779023  70.3874130  46.3556671   2.2274754  69.8634033  46.6381226
   1.0353950  69.8415833  45.7056770  80.6608429  12.4104776  19.5700130
  81.2663803  12.8003378  20.2005348  79.8143616  12.4144888  20.0168762
  26.6157379  11.8974304  85.0491333  26.9932156  12.1259947  84.1997223
  25.7823315  11.4777527  84.8357468  20.3488331  38.0844498  67.9551392
  20.0579262  37.3559456  68.5036697  20.7950935  37.6664429  67.2186890
  86.0113754   3.4327712  41.7267838  86.0521927   2.9077246  42.5260925
  86.8762360   3.3315296  41.3292961  83.9776154  39.0421371  80.5271912
  84.3169708  38.5291748  81.2606354  83.5818024  39.8118057  80.9360504
  70.1087646  59.7468109  83.1593094  69.9776611  58.8545036  83.4799805
  71.0581131  59.8685379  83.1712265  59.9475212   8.8339472  85.1974487
  59.8483887   9.6361847  84.6847916  60.8940887   8.7126875  85.2718582
  11.5323200  11.5747232  63.3893547  11.1591530  11.4182119  62.5218964
  11.3487720  10.7720251  63.8774300  48.6523170  68.9943237  32.0746536
  49.2344284  68.9865952  32.8344688  48.4542542  68.0715027  31.9152737
  28.3401546  29.8366299  80.8461609  28.7740307  29.5127811  81.6355286
  28.0966301  30.7374935  81.0591660  13.0412006  48.4991302  79.8545990
  12.8056231  47.7878418  80.4502563  12.7553101  48.1948242  78.9932632
  37.1338272  13.9335184  80.1327438  36.2193604  14.0003252  80.4075394
  37.3357925  14.7924681  79.7617340  76.7092743  70.0769806   2.2186382
  75.8945541  70.3775787   2.6212561  77.3575974  70.7348022   2.4699998
  38.5928497  54.5016174  48.9654770  39.1452675  53.7233810  49.0390663
  39.1229362  55.1255913  48.4695969  76.5486145  21.3630447  32.3423843
  76.2646179  21.2081509  31.4415035  76.0846863  22.1575527  32.6065140
  62.5950165  53.8879166  66.8203430  62.8976288  54.4126244  66.0791702
  61.7315216  54.2441864  67.0293350  28.2465954  24.0735111  72.6212769
  28.4887009  24.9874382  72.4717712  27.7389011  23.8304958  71.8470535
  53.0013123  38.2532425  78.9311600  53.9113503  37.9766388  79.0386658
  52.9268341  38.4764442  78.0033340  80.8364868  69.0063248  67.8644714
  81.6875076  68.7763290  67.4915161  80.2015305  68.5531540  67.3097763
  20.7327709  11.6062803   8.4805202  19.9263935  11.1520710   8.2362223
  20.9886951  11.2089682   9.3129129  32.2137184  27.9176159  86.3141174
  32.3163643  28.8183899  86.0070419  31.2798557  27.7344475  86.2112579
  37.6759834  34.0147514   5.3181424  36.9849663  34.0622711   4.6574831
  37.3306160  33.4196625   5.9835925  70.2169418  37.9501038  82.7837906
  70.7453613  38.3523903  83.4731216  70.8530960  37.5081177  82.2214890
  62.8488464  23.3225956   6.2603254  62.7543488  23.9612503   6.9670243
  62.5409317  22.4991341   6.6389160  32.1271019  40.2711487  80.7275696
  31.8039551  40.5297394  81.5906677  31.7975254  40.9475594  80.1358948
  47.6115875  30.6370335  11.8044033  48.4304695  30.8143158  12.2672634
  47.3363419  29.7781487  12.1250114  10.9289179   3.1812818  73.9725647
  11.6886349   3.4762459  73.4705124  11.2760191   2.9948525  74.8449173
  23.6716423  61.5956230  43.0951691  23.2400169  62.2634697  42.5623360
  22.9978504  61.3086014  43.7114944  50.4871826  23.3363495  34.1005821
  50.6471825  22.5616398  33.5616417  51.3499832  23.7372627  34.2058182
  56.6011391  32.0034561  72.3476715  55.6598358  32.0410957  72.5172729
  56.7012253  32.3715057  71.4697418  50.6542702  55.4176979  83.9505997
  50.5796432  55.5070610  83.0005035  49.9202843  54.8546906  84.1966019
  36.1229439  10.8104744  18.1975670  36.5487976  10.1861687  17.6100941
  35.8356514  11.5211611  17.6243153  54.9547806   3.7000499  67.8163757
  55.4996834   2.9993205  67.4581985  55.3416138   4.5045900  67.4709702
  78.0489120   1.7939427  86.7926102  78.7250671   1.5928361  86.1456146
  77.9021530   2.7353747  86.7009583  29.8916264  26.5669422  88.6831131
  30.4053020  27.3158092  88.3805161  29.5829277  26.1479321  87.8797684
  35.3601799  48.8812599  35.4990311  35.7615089  48.0150070  35.4299469
  35.3531036  49.2142067  34.6016312  67.3299942  51.6462212  71.3651962
  68.2068710  51.2638550  71.3317184  67.3628311  52.2566147  72.1017914
  65.1913452  21.5672398  30.0680580  66.1244659  21.5249996  30.2771893
  65.0873642  20.9822292  29.3176041   7.3011475   0.4073953  43.8759727
   7.9594612   0.9020838  43.3879776   7.4962106   0.5909021  44.7949448
  75.4027634  17.5506248  14.5890474  75.2382050  17.0422916  13.7948503
  74.5356140  17.6848011  14.9715109  42.8698120  61.0823784  54.5919495
  43.2163925  61.5106087  53.8091774  42.6643181  60.1920509  54.3067780
  78.5401077  22.3799610  27.0495281  78.6465759  22.9097099  27.8396301
  77.6016617  22.1957455  27.0093365  72.2262039  43.9189034   8.8359127
  72.0592270  43.9792824   7.8953247  73.1323471  44.2101364   8.9374905
  73.6169815  40.8571281  62.8431091  73.2239609  40.4637642  62.0639877
  73.0350647  41.5844078  63.0637131  64.4847107  13.2356424  75.5453949
  65.3735733  13.4147291  75.8521271  64.5962753  12.5787201  74.8582001
  29.5556259   3.1817374  38.2397919  29.3392715   2.5420496  37.5613937
  28.8265400   3.8017888  38.2255859  10.2445002   0.9504298  56.7430763
  10.8850870   1.1972092  57.4101448   9.4041185   1.2376127  57.1001701
   7.1211901   8.3073978  48.0135956   7.7223258   7.6468315  47.6693268
   6.2531581   7.9164815  47.9139099  71.3890610   1.7114379  61.8378601
  70.7104492   1.8462265  61.1763840  71.6979141   0.8183203  61.6856003
  18.8181114  63.5080719  41.6538773  18.8660221  63.5182190  40.6979294
  18.0545444  62.9650612  41.8496704  60.9664040  70.4856415  80.2963562
  60.9984436  70.7362366  81.2196198  61.8412781  70.1448059  80.1101913
   9.4412823   0.4799989  40.8572006   9.1986380   1.3944731  40.7119675
   9.2181225   0.0398285  40.0370293  53.4338760   7.7584524  30.9683609
  54.1288223   7.4085021  30.4108505  53.7527771   7.6248779  31.8609390
   3.1432972  19.4373798  42.0727730   3.4627523  19.2721596  41.1857071
   2.1902859  19.3901405  41.9968147  57.8532104  51.2526016  68.1725845
  57.5127411  52.1259995  67.9789658  57.2098808  50.6548805  67.7916794
   7.1699610  33.5291862  40.8325233   6.9437776  32.9693680  40.0897751
   7.4899373  32.9229965  41.5006409  20.1379433   6.9382024  56.0896339
  19.9438953   7.5300403  55.3627853  19.3168087   6.8817220  56.5782814
  69.3222351  55.3804359  86.7273712  70.0312805  55.7496796  86.2009277
  69.6850967  55.3229752  87.6112671  54.2067986  39.7753563  23.0056515
  54.0089417  40.2975998  22.2282543  54.7539444  39.0602341  22.6808968
  14.1851330  41.5359077  51.7808838  13.9993925  42.4334869  51.5050468
  13.9492159  41.5166893  52.7083588  65.1805267   9.2384615  70.4665070
  65.7092819   8.6495571  69.9281311  65.0451202   8.7590008  71.2838287
  29.1010494   0.6058080  66.9438705  29.1858025   1.1717649  67.7111664
  29.7068501  -0.1162609  67.1107635  15.7632170  24.0845242   5.9935637
  15.0409832  23.5805244   5.6186042  15.7880812  23.8196983   6.9130640
  17.7756729  56.5394325  21.9102955  18.1978664  56.6369362  22.7638054
  17.5367661  57.4313316  21.6579704  24.6645622  48.8421745  53.5438843
  24.7749424  48.0718269  54.1012077  24.7059536  49.5831146  54.1484718
   9.0723648  69.9198456  58.3572731   8.7092628  69.6503983  59.2009506
   8.5264215  70.6579132  58.0862885  77.9143524  48.8917923  28.3815002
  77.0453796  48.5127640  28.2493706  78.4968338  48.3450317  27.8542461
  20.6022663  45.3596382  41.3934975  20.1228981  44.7304268  41.9325066
  20.5302315  45.0160408  40.5030022  53.8252754  45.3641663  84.7951050
  54.3796310  45.7217369  85.4886932  54.4418640  45.0484161  84.1345367
  81.4439240  11.6643496  54.4778175  80.6127243  12.0910473  54.6858292
  81.2019653  10.7665958  54.2503853  76.6413727   9.4262886   8.7269211
  77.1198273  10.0412731   9.2828922  77.2850037   8.7534828   8.5048847
  76.4519348  10.8095293   1.0844682  75.8490219  11.4395494   1.4791871
  75.9590149  10.4295492   0.3572303  37.5426216  47.2463799  21.1897984
  38.2506065  46.6038017  21.1441383  37.6537247  47.7814140  20.4039078
  63.1078682  21.9238377  22.1919174  63.5968208  21.8677769  23.0129032
  63.6277084  22.5110950  21.6431694  83.1217575  27.5227280   7.6062841
  83.5446167  27.7750187   8.4271221  82.2998428  27.1131096   7.8762913
  58.0317116  14.9073610  54.1235847  57.9109764  15.7884970  54.4774971
  57.8508339  14.3257923  54.8620224  54.9711685  62.5285378  37.8488045
  55.6987915  63.1207085  37.6587181  54.6595917  62.8012543  38.7118073
  26.5708046  51.3431664  81.9762573  26.6253719  50.3889122  82.0277328
  26.2118664  51.6085625  82.8229904  56.7934227  11.8035908  79.8353043
  57.3300629  11.0171032  79.7368927  56.1383553  11.5660028  80.4915619
  56.2770348  42.4371300  35.2274132  56.6527481  42.4518013  34.3471527
  56.9949532  42.7097321  35.7988281  35.5252686  25.2770767  65.1103745
  35.9330063  24.7964382  64.3899841  36.2377777  25.4273071  65.7316589
  38.9538879   6.8270583  21.8764992  39.6046715   7.2224450  22.4564857
  39.4272690   6.6650882  21.0604668   0.4981107  30.9482918  44.6429558
   0.1488488  30.3698730  43.9649582   0.7243978  31.7535400  44.1775513
  64.4043579   0.2666084  14.3509579  64.3542023  -0.6249602  14.0062532
  63.5079155   0.4713960  14.6168175  20.9053154  43.1997261  76.7548904
  21.5528202  43.5228920  76.1283722  21.2239647  43.5012207  77.6056519
  76.2697449  27.4171772  26.5229435  75.3615341  27.6738338  26.6826973
  76.7614365  27.8174648  27.2400532  22.4390583  17.6384525  43.6738930
  21.9406185  16.8426552  43.4881554  23.1089325  17.3611069  44.2988548
  13.9621506  42.1428108  19.2677956  13.3452120  42.3773422  18.5745335
  13.6995049  42.6812134  20.0143681  36.9031372  67.0608978   4.1333604
  37.2907867  67.9028931   4.3721290  36.0190544  67.0919724   4.4989572
  33.1086235  55.1950722  73.4488983  32.7997513  54.8224678  74.2747269
  32.9190063  54.5210342  72.7962494  57.3287964  70.3727417  49.4544792
  57.0860825  70.3335037  48.5293961  58.2656593  70.1767426  49.4648132
  63.0513039  51.5633507   3.0720050  62.9103279  50.8468132   3.6908188
  62.9295158  51.1635666   2.2108586  62.5598450  53.8884621  17.8630486
  62.8550644  53.1671600  18.4187489  63.2323227  54.5616570  17.9670353
  76.4298553  17.8538017  72.7355881  75.5086212  18.0334492  72.5477448
  76.4562225  17.7004318  73.6800537  83.0709686  59.3648529  60.2882156
  83.4039383  59.7141647  61.1148605  82.1916580  59.0501747  60.4980316
  27.2995682  10.5117664  61.5279121  27.8935089   9.7686892  61.6342125
  27.8529625  11.2815256  61.6600380  77.4390564  25.8125095  83.9464188
  76.6075134  25.3792381  83.7539368  78.0752411  25.0989857  83.9952240
  46.7842331  14.6454935  12.1776323  47.0416718  15.1830645  12.9266148
  47.6101837  14.4192781  11.7500057  16.2455063  42.6429482  47.1221771
  16.0460796  42.2570000  47.9751129  17.1247120  42.3259087  46.9154968
  58.8390808  29.1155205  56.9402428  59.6758537  29.0548611  56.4794159
  59.0464020  29.5755692  57.7536354  45.6896706  32.9207802  63.3682060
  45.6062241  33.8558159  63.1811829  45.6567535  32.5007401  62.5087242
  28.9830399  30.8434601  83.8127747  29.3791084  29.9934616  83.6207809
  28.1736870  30.6310558  84.2776031  50.3182373  42.6893082  35.4496613
  50.0143852  43.5187416  35.8183670  50.5572395  42.1616974  36.2117233
  51.8780327  59.8173294  32.3038635  52.2014351  60.2289505  31.5024815
  52.6476517  59.3920441  32.6820793   4.6267033  44.6502533  20.8854694
   4.3982463  44.5723572  21.8117371   3.9020910  44.2283630  20.4237595
   1.5492053  60.5618858  41.7714691   2.2473383  61.1324425  42.0928802
   1.5441076  60.6998749  40.8242836  84.4122620   9.5147448   1.2892838
  84.3157806  10.0318785   0.4895981  84.6435852  10.1550531   1.9621338
  80.7214127  27.5606346  40.4185181  80.5993652  27.1028423  39.5867958
  80.4845886  28.4685440  40.2291908  13.3798695  29.8805676  19.2605648
  13.9953623  29.8984470  18.5277061  13.9140759  30.0885201  20.0271225
  85.6659470   4.7326083  75.3649292  85.4044952   4.1308551  76.0618973
  85.8263626   5.5630322  75.8131409   2.4756465  14.5060053  15.4224138
   2.7587709  13.8133507  16.0193233   2.5081694  14.1027145  14.5549288
  83.1820526   5.3660240  59.7126236  82.9727554   5.8520007  60.5102768
  82.6062393   5.7404976  59.0459633  67.9203262   1.3204567  47.0634499
  67.5143661   0.6065497  46.5717545  68.8591461   1.1395997  47.0171928
   2.0927999   9.4804192   8.3367643   1.2204115   9.5820475   7.9561830
   2.3982894  10.3764715   8.4781780  66.1559296  54.5816460  12.6975746
  65.4532547  54.5941429  12.0477123  66.9332504  54.3186111  12.2048082
  47.5428314   9.0233917  58.4512367  47.2821884   8.1711206  58.8004227
  46.8961563   9.2114725  57.7710381  15.3645687  66.0859146  81.3718491
  14.4360666  65.8566895  81.4114990  15.7033491  65.5854034  80.6295929
  51.0546417  59.3014374  36.3414917  51.6486549  60.0113297  36.5852776
  50.2614632  59.7452774  36.0413170  29.1805973  62.3949623  38.3425369
  28.5093479  62.8550339  38.8465118  28.6990089  61.7239456  37.8587608
  10.1268082  32.1519394  64.1801300   9.9494400  33.0925598  64.1823349
  10.2540007  31.9300308  65.1025238  81.5436478  67.6261444  62.7424126
  81.5420685  68.0897446  63.5798531  81.2183533  66.7508011  62.9526138
   0.9988768  47.7228088  80.5650482   0.8286592  46.7915764  80.7067108
   0.5315574  48.1624756  81.2753525  70.4234695  15.0151396  35.3816147
  70.7778168  14.1276894  35.3259277  71.1476822  15.5413857  35.7204552
  19.2290688  61.2372589  46.9263382  19.0067253  60.6572876  47.6546440
  20.1705055  61.3848877  47.0165176  16.4043808  44.4886475  63.3306389
  16.8441811  45.1679306  63.8418922  17.1172676  43.9662476  62.9630470
  58.0782127   1.6808220  83.3562012  57.3327904   1.7126709  82.7565613
  58.1965942   0.7492989  83.5418930  59.0693245   6.9279685  44.5428009
  59.6734200   6.2042508  44.3768692  59.5111427   7.4622169  45.2028084
  86.2421265  57.4475479  10.1363420  86.5607071  56.5828552   9.8774147
  85.2892609  57.3798141  10.0755711  80.3263016  23.5841198  72.0835037
  79.6026688  23.3479061  71.5031662  80.3352127  22.8950958  72.7478867
  26.6201038   5.1528144  82.5073242  26.3965855   5.4875793  83.3757706
  26.3137798   5.8295398  81.9036331   9.0113697   2.4975481  64.1357880
   9.8707809   2.2769866  64.4949493   8.7182293   3.2445328  64.6576233
  21.5512047  32.4552002  68.7557983  22.1141472  33.2281227  68.7995453
  22.1563568  31.7252617  68.6245880  73.0501785  21.4638824  22.7395344
  73.4183197  21.7993526  21.9221210  73.7944183  21.4278431  23.3403988
  86.2237015  20.6818123  76.3029709  86.9603424  20.1528797  75.9966736
  86.5028076  21.5863075  76.1607742   8.9238405  39.7303238  64.2459488
   9.6420574  39.7875214  64.8761215   8.2733173  40.3548775  64.5668564
  83.7735977   5.6670465  25.1936131  83.5798264   6.2880912  24.4914799
  82.9147491   5.3719497  25.4961376  23.0314178  30.9472885  30.1439381
  23.0212555  31.8774319  29.9181919  23.0903320  30.4969559  29.3013458
   2.0819230  59.0946121  26.3903389   2.5506263  59.6215477  27.0375538
   2.5466123  59.2549934  25.5690136  11.6803246  68.3551331  62.6657715
  11.4742823  68.6866379  61.7917671  10.9879827  68.7075424  63.2249680
  18.6356449  43.9840965  33.5277214  18.6643429  44.8737793  33.1757660
  18.0425415  44.0418739  34.2768021  30.2451000  48.5436630  43.9154663
  30.6558666  49.3595047  44.2016602  30.9481773  47.8952408  43.9537125
  66.1530762  23.3983746  12.8383961  66.5770416  23.0686054  13.6306953
  65.9938202  22.6169510  12.3090105  75.0502777   0.6776789  29.2055645
  75.8166580   0.1232012  29.3520470  75.4030838   1.5662214  29.1580524
  77.6595078  11.8868322  79.5092545  78.1889954  12.6706161  79.6560745
  77.2457352  12.0331984  78.6586075  48.6601982  69.5016479  74.3026123
  48.1665192  69.4133377  75.1179123  49.4829521  69.0419159  74.4698105
   5.5609045  44.6402550  76.0226517   5.0677085  43.8484726  75.8080063
   5.4527364  44.7408028  76.9683914  26.8403301  54.2117424  58.9943161
  26.9718761  55.0047531  59.5139923  25.8902054  54.1402321  58.9027786
  13.9789295  60.8297195  58.1680756  14.1191483  60.6115532  59.0894737
  14.6545534  61.4781990  57.9699860  66.5745697  39.6208229  82.9393921
  66.3409805  39.8955307  82.0527115  66.7480240  38.6826897  82.8616104
  58.3176231  24.8771191  82.2553177  58.6537437  24.4783268  81.4526901
  59.0992050  25.0644073  82.7752075  60.4819908  19.6995296  12.8393183
  60.6568565  19.1946869  12.0450964  61.1038437  19.3580894  13.4819279
  44.7461090  52.1811371  60.3929443  44.5823631  52.0178070  59.4641037
  44.9916992  51.3263206  60.7467880  58.6183090  44.0231781  13.5444012
  58.2712746  44.6749878  12.9353466  59.3799973  43.6570282  13.0949640
   6.6422701  54.0381241  68.0448380   7.0818348  54.6044312  68.6791153
   6.6380486  53.1744308  68.4574585  39.5851364  62.3759079  84.5832825
  39.2368927  62.7909737  85.3723831  38.8204155  61.9844017  84.1612015
  50.8521118  13.4411688   1.4236181  50.9036484  12.5712156   1.0276933
  50.1388359  13.8753881   0.9557291  86.7886047  58.3929176  72.1353455
  86.4398117  59.2387810  72.4165802  86.0313263  57.8074951  72.1417236
  13.7578850  62.4921188  65.2809677  13.8778028  61.5890350  64.9872055
  14.4890041  62.9703102  64.8897781  73.7089005  68.7338257  54.4709892
  73.1603088  69.1028748  55.1631432  73.8430023  69.4582062  53.8598213
  28.2145596  68.8057098  83.9224625  28.1698723  69.6831818  83.5426102
  28.3856354  68.2303772  83.1768341  80.5864182  65.5733032  16.3661098
  79.9455719  66.2582550  16.5568714  80.8818054  65.7629700  15.4756012
  74.7759933  44.5899010   8.9809017  75.4106140  43.9109573   9.2100801
  75.2534332  45.4118500   9.0934715  53.2263336  20.8070965  25.9943562
  53.0276031  19.9271812  25.6742191  52.8022270  21.3919067  25.3663750
   1.5264360   7.0203967  14.6423082   2.0690777   7.7948456  14.7906342
   1.5797812   6.8676777  13.6988773  63.1957703  36.1030426  88.3923950
  62.4934807  35.4594078  88.2988281  63.3355598  36.4356041  87.5057755
   6.3680062   3.0119443  35.1221695   7.1928878   3.3547435  34.7782364
   5.8631239   3.7912443  35.3545876  56.3760872  51.0128632  20.7266331
  55.6832657  50.3815804  20.5324268  55.9341354  51.7135315  21.2061920
  62.0272217   6.0556121  34.2930603  61.1286774   6.3611155  34.1684990
  62.2130394   5.5334954  33.5126114  84.5076370  12.3208542  40.9676361
  85.2330704  12.0261955  40.4170380  84.5842972  11.7972393  41.7652435
  40.8162422   5.8375311  41.5034637  40.6155319   4.9018426  41.4826050
  40.8821259   6.0476513  42.4349899  40.7540321  56.5883751  23.5193729
  40.3665123  55.7358856  23.3210812  40.1552124  57.2215881  23.1235390
  53.1422539  37.7178574   7.6335025  53.7507286  37.3612823   8.2806873
  52.8812752  36.9615974   7.1079617  39.2997818  47.7117920   9.5054712
  38.8713303  46.9092484   9.2078419  39.6437569  47.4926720  10.3714390
  44.2451553  29.4381676  82.5912247  44.8128357  30.1664753  82.8432922
  43.9624863  29.6514950  81.7019424  69.5617828  47.4170341   3.6031229
  69.7695999  47.3225060   4.5326972  70.2547531  47.9805183   3.2588716
   1.7620637  59.2262497  88.2730103   1.4301510  60.0333519  88.6662674
   1.2215075  58.5342522  88.6540146  77.1659851  46.1244354  10.8105955
  77.5242310  46.1823845   9.9248552  77.5968246  45.3603439  11.1936979
  78.2243500   2.5535374  70.3768234  78.9999924   2.0246551  70.1900177
  77.5656662   2.2398927  69.7571564  75.0136490  31.8093815  79.8626175
  74.7261658  32.6820526  80.1310043  75.4783783  31.9532928  79.0382690
  12.0548391   1.5411563  39.8741722  12.3133936   0.8038073  40.4270744
  11.0982580   1.5084996  39.8633003  24.6112595  42.7547874  66.6735458
  23.6556797  42.7746735  66.6215439  24.8229179  41.8365440  66.8416672
  81.6459045   8.5224552   1.1233544  81.4250107   7.6665683   1.4906342
  82.4529114   8.7746105   1.5721172  76.0535355  68.0703735   0.0753993
  76.5309753  68.8356857   0.3956707  75.9152908  67.5311737   0.8541083
  73.9311447  30.1221905  68.3083725  73.6443100  29.6798458  67.5094376
  74.5207520  29.4969234  68.7298431  26.5928154  69.4094391  58.7610855
  27.3933220  69.6213150  59.2412186  26.8241673  69.5378952  57.8411865
   7.0613418  48.1723862  60.8391075   7.3891931  48.1406364  61.7378502
   6.2314854  48.6450691  60.9034386  16.7477226  35.6571083  81.5092926
  17.7027206  35.6838455  81.5684052  16.4894142  36.5711327  81.3906555
  21.5022526  25.9454060   0.4403223  22.1540051  26.6448421   0.4876358
  21.4326134  25.7456665  -0.4932122  72.5374146  35.5778122  19.3408394
  72.5451431  34.8739624  19.9895020  71.6220474  35.8544540  19.2984848
  52.4419594   1.1193472  32.8719139  51.5136185   1.2531146  33.0630035
  52.5742416   0.1769017  32.9745293  28.2823639   9.7897930   9.3992691
  28.8870354  10.3929224   8.9670200  27.5775032  10.3496408   9.7248058
  17.7590218  67.2656860  74.2572327  17.0910473  66.7247467  73.8360138
  18.5642242  66.7535782  74.1822815  36.7618904  44.9929581  64.7380905
  36.6003876  44.0972977  64.4415436  35.9199257  45.4358063  64.6321869
  68.2806854  12.3729162   6.8428893  68.7998505  11.6411276   6.5094423
  67.3726807  12.1126490   6.6878991   3.3445432  60.2111511  60.2518120
   4.0852180  60.1373100  59.6499977   2.6169496  59.7965927  59.7881546
   8.7592745  12.0255470  51.0600586   8.0193262  12.6085415  51.2298393
   8.3683462  11.2573576  50.6437759  77.5717010  28.9336033  76.3449326
  76.8234482  29.4712772  76.6042709  77.1835709  28.1876202  75.8876648
  31.0784893  46.3043861   0.0792969  30.4150791  46.6255150   0.6900293
  31.9027710  46.3787384   0.5601950  65.7912292  41.1858864  40.4388695
  65.3280945  42.0076141  40.2760773  65.5450745  40.9450912  41.3319855
  71.5878067  62.0204048  61.5270996  71.1719894  62.8813133  61.4805984
  70.8598328  61.4083176  61.6349602  70.0996323  65.7844849  85.3335648
  69.3614731  66.3239746  85.6169510  69.7132416  64.9288406  85.1470108
  40.8477020   7.7886586  23.6636505  40.2286034   8.4869308  23.8766441
  41.7076569   8.1667242  23.8474293   9.9878187  17.2088356  73.0309677
  10.6730022  16.6718998  72.6329041  10.4190474  18.0405293  73.2273254
  52.4200211  18.1285439  35.4412651  51.7127419  17.9615746  36.0642471
  52.2699432  17.5006123  34.7345734  17.7852802  43.4615974  68.9945831
  17.8730812  42.8445930  68.2680664  17.9193668  44.3215027  68.5960617
  46.8108101  40.8410492  64.8869934  47.0665474  39.9311409  65.0383072
  46.9412193  40.9735146  63.9480171  57.2519493  61.1386070  46.7037468
  57.4718056  61.8526077  47.3021584  56.7565041  61.5591087  46.0009308
  65.3350983  50.7334862  14.2953739  64.8060150  50.6248856  15.0856333
  66.0575638  51.2997246  14.5667715  35.6651459  34.0871010   8.4091463
  35.3290215  34.9491043   8.1637897  35.2999458  33.9263878   9.2792225
  47.2626076   9.5379515  73.1953430  48.2056198   9.6990252  73.1634521
  47.0265427   9.6781960  74.1123123   4.3021545   0.4027583  77.8183594
   4.9177794   1.0551726  77.4842987   3.7610202   0.8829087  78.4451447
  66.8345108  25.5776825  -0.2628376  65.9824066  25.2914371   0.0661271
  67.4692078  25.0681763   0.2409387  63.5192566  58.5725784  20.5315056
  64.2258377  58.4966736  21.1727676  62.7686996  58.8833542  21.0377827
  36.3303642  49.5490417  49.6930809  37.2395020  49.7084312  49.4395180
  36.3060074  49.7409477  50.6305313  16.9069519  39.0156860  71.1321793
  17.4340706  39.4333458  70.4510498  16.1690445  38.6291389  70.6606827
  66.4816132  50.3929176  45.1536446  67.0689087  50.4304504  44.3987274
  65.8056335  51.0434875  44.9637909   2.5649140  15.8872185  62.6531448
   1.8700494  15.3748741  63.0665436   2.5133705  16.7449284  63.0749359
  63.4421310  68.8399353  67.9169693  62.5230598  69.0686874  68.0555954
  63.7194748  69.3941116  67.1874542  52.6856728   2.2818217  62.5169754
  52.8351440   2.5515134  63.4231529  52.8288651   3.0769844  62.0037079
  71.2685547  32.1291466  -0.1749393  72.1919327  31.9319286  -0.3321576
  71.0936508  31.7770004   0.6977761  21.8010368  70.4232178  63.8229370
  21.1501236  69.8875809  63.3694572  21.5643902  71.3244171  63.6037025
  62.1800575  62.4146118  15.9589367  61.3177452  62.0492592  16.1568375
  62.7952690  61.7246933  16.2074528  85.8909531  30.8354034  26.0974350
  85.4333496  31.0100708  25.2750454  86.1804047  29.9261379  26.0220299
  50.3434486  13.0681591  63.1661339  50.7738800  12.5791979  63.8674736
  49.9244232  12.3964577  62.6281166  30.4454155  28.6684494  82.6463165
  30.6877518  27.7573299  82.8117447  31.2604408  29.0863667  82.3682632
  44.8310280  68.1227951  36.8883095  45.7526627  68.1457748  37.1457825
  44.8505898  68.0119781  35.9377480  74.6627045  59.8152657  31.4304333
  75.4948273  59.7297020  30.9651604  74.4084320  60.7288704  31.3004131
  33.0887413  39.9542809  88.7174530  33.6952705  40.6387100  88.4347610
  33.1421051  39.2887383  88.0315704   4.0402918  16.3048954  41.3590088
   4.4897275  15.4600611  41.3812752   3.7385001  16.3918858  40.4548035
  75.3538055  68.7206650  12.0577135  76.1632156  68.2435608  12.2406130
  74.9190750  68.7895126  12.9077129   7.8962102  39.5415611   3.4365883
   8.2083063  38.7034378   3.0954459   8.3045416  40.1972504   2.8712838
  57.8912086  25.8995514  88.1484680  57.1019173  26.3710175  87.8820648
  58.2091064  25.4906292  87.3435135  40.4605484  29.9309692   1.7272804
  41.0849838  29.5725441   2.3580298  39.7447662  29.2956486   1.7114019
  20.6695805  65.7291641  60.6420021  20.1663017  65.4908371  59.8634491
  20.0124474  65.8283997  61.3308830  -0.3073833   2.0888166  86.4574509
   0.3291502   1.3803973  86.3615417   0.2142828   2.8891859  86.3982468
  48.1958389  65.0633087  85.9728088  47.2996750  64.7592316  85.8290863
  48.5114479  64.5391693  86.7089462  69.3954544  36.9241257  14.4318447
  69.3621750  37.6683388  15.0329037  69.9163971  36.2668114  14.8931313
  17.7229233  27.3633690  83.4968872  17.9405384  26.6367416  84.0807419
  17.2580166  26.9535160  82.7674255  41.4962502  53.1643257  67.9315720
  42.0281639  52.6437569  67.3296509  40.7596474  52.5949478  68.1539536
  79.0703354  37.0344200  50.5263023  79.5752106  37.0765991  51.3384323
  79.6647491  37.3732109  49.8568802  65.1914520  67.9252930  58.4845428
  64.3817825  68.3192062  58.8093414  64.9219284  67.4236908  57.7151375
  12.8955202  46.6944466  77.6700821  13.1985302  46.3116455  76.8467484
  13.3896618  46.2306252  78.3460464  67.5073166  27.5073528   4.2884717
  67.5676575  28.4514828   4.4341059  68.2136154  27.3144913   3.6718888
  86.1737518  34.3134727  44.1187134  86.1487885  35.2692032  44.0719528
  85.3666611  34.0314522  43.6882477  74.1360779   7.5334382  63.1993294
  74.5991821   8.3148804  62.8974724  73.3031998   7.5515523  62.7279358
  24.0013828  70.5841599  33.7421188  23.9498138  70.2879257  34.6508636
  24.9209747  70.8194351  33.6187172  21.4387875  17.3790798  21.0628281
  21.1839466  17.9871712  20.3689175  21.4900227  17.9215641  21.8497963
  54.3074951   4.4964767  13.2973185  53.3936081   4.3634686  13.5490236
  54.3675117   4.1346240  12.4131851   5.3470583  53.9436607  56.6445084
   5.7530379  53.8466911  57.5059090   5.7194819  53.2327690  56.1228104
  14.5148029  62.5876541  72.6198654  14.0584345  61.9915619  73.2136917
  15.2812939  62.0943527  72.3276749  57.9102592  54.4906464  76.9490433
  58.7561378  54.7642097  77.3038483  57.2658043  54.8720589  77.5452347
  11.7776594   2.9957221   5.1803341  12.6753531   3.1347039   4.8785672
  11.5995302   2.0754697   4.9863315   8.3805666  14.8552742  87.7194824
   8.6578131  15.2546253  86.8949280   9.1819983  14.4817066  88.0860672
  66.6060486   2.6994588  22.4897537  67.1192474   3.2000473  21.8555069
  67.0256195   1.8393977  22.5118980  30.8385830  17.8295536  63.3140030
  31.7647667  17.6173801  63.4297523  30.4257240  16.9923382  63.1022263
  14.5696363  64.7724609  88.1568069  14.4180403  65.7081451  88.2900238
  13.7243137  64.3639374  88.3432770  31.4323330  70.5311203   4.0458636
  30.5190525  70.2450562   4.0280471  31.9215336  69.7934494   3.6815147
  72.4075317  26.0484295  81.4020996  71.6817017  26.6436672  81.5894318
  72.4344330  25.4588871  82.1557236  71.2110825  22.2867851   5.5762720
  71.1727753  21.5671825   6.2063003  71.7464294  22.9535351   6.0064821
  34.9246025  46.9337120  19.9445820  35.7952423  47.2336006  20.2058926
  35.0779572  46.4081993  19.1593761  60.3932762  59.8536186  35.8491211
  60.3450127  59.5033989  36.7386398  61.2639313  60.2474709  35.7936935
  36.4713631  44.0563660   7.1002297  36.7006340  44.7068443   6.4364934
  36.0566788  43.3478432   6.6080270  83.9856262   0.2573899   3.5789742
  84.1656265   1.0997547   3.1615381  84.6028061  -0.3493096   3.1700306
  11.1689043  15.2740469   8.6006823  10.7346535  15.0698338   9.4289064
  11.8305817  14.5894470   8.5020008  11.3935070  20.9712658  45.1386642
  10.4541845  21.1460514  45.1965904  11.6193581  21.1741848  44.2308960
  71.9750137  63.1423340  18.6813736  71.7658234  64.0683212  18.5588589
  71.4648819  62.8809319  19.4479694  81.2046509  41.7436714  23.8488007
  81.5564499  41.1368752  24.5001602  81.5241623  41.4077797  23.0113506
  12.9497757  12.0015059  73.6623688  12.0928793  11.8782692  74.0707474
  13.4436436  12.5234365  74.2947540  85.1587753  39.3960152  38.4955673
  85.9622955  39.9095955  38.5782051  84.4912643  40.0344009  38.2443199
  66.0324020   6.3888369   9.5366020  66.6568298   7.1122136   9.5918493
  65.2023315   6.8060369   9.3060379  79.2227707  21.8028755  35.8666458
  79.1167297  20.9010983  36.1696053  79.7949066  21.7330856  35.1024361
   0.5563259  10.1052103  68.8624802   0.4772085  10.6605301  68.0868530
   1.4495012  10.2534733  69.1731033   4.2950926  19.6583366  65.2211914
   4.3984303  18.7161446  65.3547058   5.1792431  20.0122623  65.3173447
  39.4346962  63.5896645   5.7525802  39.1492119  64.4463577   6.0700769
  40.1311684  63.3305473   6.3559146  70.2154770  18.1603565  48.9352608
  71.1092453  18.0866756  48.6006393  69.8617935  18.9384785  48.5043678
  63.8668098  14.1465015  62.1707878  63.9842567  14.5813084  63.0154076
  64.1710892  13.2509785  62.3180542  74.0131073  68.9617996  14.8396883
  74.8959122  68.7256622  15.1245184  73.4384155  68.5938644  15.5109453
  69.2925339  33.5593681  43.5796814  68.8696213  33.3120575  42.7573547
  70.0361023  34.1001472  43.3134308  15.6750450  59.7940941  71.0402603
  15.5559721  59.7630768  71.9895172  16.4808941  59.3018112  70.8837433
  10.2874479   6.5988822  84.5292358  10.8499727   7.3629889  84.4029846
   9.7981205   6.7912393  85.3291016  40.0102539   5.8186803  18.8909454
  40.5049019   5.4925466  19.6427383  40.6191864   5.7501259  18.1556015
   4.2806506  53.5484924  37.2568932   4.4817104  53.2737617  36.3622818
   4.4628139  54.4881592  37.2655334  29.4115219   5.2336197  84.5655518
  28.6278915   5.6619277  84.2210159  29.6334209   5.7353244  85.3499527
  24.2557812   8.7384014  57.6144447  24.9539776   8.5253067  58.2335930
  23.5769176   9.1480570  58.1506882  78.3070908  14.2563944  33.1022186
  78.9684677  13.6339617  32.7999115  77.4853210  13.9292765  32.7362671
  56.0515709  37.2252045  53.4979172  56.0260696  38.1736183  53.6247787
  55.3027840  36.8967667  53.9955902  52.2774734  66.9379578  53.6650505
  52.3406906  67.8109970  54.0523911  51.9170113  67.0891113  52.7912941
   7.9952254  62.9341583  22.5230179   8.6857119  63.5701408  22.7100658
   7.8660016  62.9923897  21.5763702  30.8696766  55.7878647  60.0293159
  30.9611092  56.7388649  59.9704094  31.4984169  55.4469376  59.3931656
  71.3747330  50.1890221  68.6892395  71.8232574  49.3936958  68.9764938
  72.0562973  50.7069588  68.2609329  48.8775482  14.1007795  51.5968437
  49.4069099  14.8823719  51.7553482  48.3103104  14.3402615  50.8639603
  19.7098560   0.4236084  29.3210239  19.6108913  -0.5282857  29.3393402
  18.9270344   0.7371267  28.8681145  13.8200693  25.9756794  13.5694466
  12.9414539  25.8418102  13.9249001  14.3163404  25.2118111  13.8634720
  67.6773529  51.5423393  20.7406464  67.3309326  50.8177223  20.2199173
  67.5023956  52.3215637  20.2129803  49.5712624  32.1422844  83.5214310
  49.5693436  31.2872543  83.0911331  50.1613846  32.0337677  84.2672272
  56.8143997  51.3087349   8.8744478  57.2250175  51.5153656   9.7140493
  57.4650040  51.5639763   8.2203865   1.4412118  18.1699238  14.2501106
   2.0333633  17.4797859  14.5489407   0.5938308  17.9401474  14.6313982
  55.2265091  20.3943443  78.9528275  54.4057884  20.8471737  79.1467209
  54.9803009  19.7067642  78.3340836  79.1766968  10.5361452   1.0087974
  78.2587662  10.4789400   0.7435281  79.5231857  11.2786436   0.5139520
  53.1981583   9.2782526  86.7138138  52.2633896   9.1211567  86.8470917
  53.2338905   9.9350576  86.0184326  43.4966431  59.8133049  43.4400978
  44.3637390  59.6538734  43.0673294  43.0431099  58.9742775  43.3590088
  25.0822029  27.2165051   7.0910721  25.2381020  27.3616238   8.0242748
  25.0046749  28.0961018   6.7215700  79.9177170  66.5577316  30.7298660
  79.4500198  66.8430786  31.5147686  80.8401718  66.7174377  30.9293785
  81.0908890  13.5629930  85.0818329  81.4666901  14.3620291  85.4513550
  80.1937485  13.5439291  85.4150009  85.5668335   6.7435846  85.5080490
  85.9674759   6.9406471  86.3547440  84.6261597   6.8310242  85.6620407
  18.7381477   5.2071857  44.7942505  19.6600151   5.4394341  44.6826553
  18.7199135   4.6744390  45.5892868  60.0513496  23.0327396  17.7168846
  60.7758064  22.5378571  18.0996189  59.3118324  22.8652287  18.3010807
  69.7010345  54.1280174  54.0918579  69.4848480  55.0573425  54.1683159
  69.1522446  53.6996117  54.7487679   5.0996203  49.5829887  27.4531116
   5.5793171  48.8373871  27.0922794   5.6273408  50.3452415  27.2149658
  63.9071388  55.2993774  25.7883244  64.4915009  55.2676163  26.5457802
  64.4939651  55.3782997  25.0362358  39.2372437  12.4137831  68.0163269
  40.1048584  12.8139505  67.9585190  38.6443291  13.1488972  68.1721878
  78.5815353  69.8346786  88.6229248  79.2839050  69.5517731  89.2084808
  78.7968750  69.4352493  87.7801208  49.6676712   6.8605976  84.8489151
  50.0406113   7.7328525  84.9766541  50.2027397   6.4701891  84.1578903
  78.1918182  23.5477695  47.3840218  77.4819031  24.0949478  47.7199554
  78.1524277  23.6607285  46.4343262  58.8785744  58.3775978  54.8915367
  58.5314369  58.9871330  55.5428352  58.3924141  57.5664444  55.0395508
  27.0089855  20.2993832  72.4198685  26.4118614  20.0773506  71.7054596
  27.1810379  19.4650173  72.8562851  82.7036209  10.7619524  73.5862274
  82.3971024   9.8559332  73.5486984  81.9970703  11.2358541  74.0249023
  37.5685158  28.2448673  13.0636139  37.1923637  28.9801712  12.5798073
  36.8715172  27.9678173  13.6583157  24.0998135  45.1402435  73.1594009
  23.9351940  44.7356262  72.3076859  25.0512581  45.2374992  73.1984787
   4.3736639   4.5237689  72.3949814   3.8032579   3.8877673  72.8266907
   5.0273757   4.7475886  73.0574036   7.7750292  48.4470787  83.5089645
   7.8774953  49.3890038  83.6450195   7.0481505  48.3720627  82.8906937
  67.9481583  35.3547134  60.2703705  68.6934967  35.7208977  59.7943268
  67.9874802  34.4153061  60.0909271  31.3663044  46.6897240  54.2129936
  32.2630043  46.3977203  54.3769836  31.3354912  47.5787392  54.5664520
  61.4474907   9.9306049   7.8873701  61.3135605  10.6665716   7.2901711
  61.4923439  10.3315954   8.7553711  53.4067230   9.5276051  55.7647781
  53.2082825  10.4301949  55.5154114  53.0342941   8.9971218  55.0604248
  11.5534792  45.5400581  48.8620872  11.5904608  46.4861336  48.7213631
  11.7709742  45.1624565  48.0098305  54.4113274  60.8407516  59.7306786
  54.0014191  60.9756203  60.5850868  55.3512459  60.8530426  59.9113426
  68.0326233  31.2304764  44.9660759  68.1233902  31.4479752  45.8938103
  68.4290543  31.9707298  44.5066261  65.1110153  58.0815659  69.1539764
  64.8940430  57.1536751  69.0635605  64.3229675  58.4765549  69.5270767
  44.2096596   5.1923141  14.8721581  43.9326630   5.8873873  14.2751837
  45.1595955   5.2931619  14.9328423  27.1343231  53.9188385  71.1682053
  28.0220852  54.2355614  71.3349228  26.6424141  54.1607399  71.9529037
  42.7523193  49.5091095  19.8564053  41.8015900  49.5898056  19.9327736
  42.8826523  48.8122368  19.2132778   1.4792736  51.9772148  70.9049377
   1.8813597  51.1093826  70.8672104   0.6686026  51.8444328  71.3962784
  61.9235001   7.9369636  56.6932144  61.3849945   7.3966908  56.1149826
  61.7252312   8.8367157  56.4336586  82.1084671  16.0563660  85.9542847
  82.9600754  16.4933491  85.9601822  81.5779266  16.5738392  85.3484955
  31.2775612   4.7641578  54.0004883  31.7191181   5.3971519  54.5666847
  31.9706478   4.4253068  53.4338837  21.8515224  28.7325878  83.3069305
  20.9318676  28.5812206  83.0888672  21.8755436  29.6324596  83.6323318
  40.0504417  58.6955261  21.4962692  40.3802376  57.8123169  21.3307209
  39.3360023  58.8059235  20.8688812   8.1877098   1.0441972  26.8648148
   7.7123704   1.1187083  27.6923008   7.8575301   1.7682621  26.3328915
  18.2752762  40.8618126  46.9802361  18.9540176  41.0914230  46.3455544
  17.4672546  40.8353157  46.4677582  60.0903702  51.3619728  32.6159782
  59.7334175  51.1101456  31.7642746  60.3142776  50.5318871  33.0367508
  38.3554764   5.6184974   6.5120583  38.4760132   5.6545100   7.4609556
  37.7807541   6.3582573   6.3153811  12.0670824  26.6701298  29.7699509
  11.2478981  26.2849083  30.0810318  12.6416416  26.6616535  30.5354843
  46.6789093  31.0321636  81.9340820  46.7774734  31.3814278  81.0483398
  47.2637253  30.2748108  81.9593506  29.5101128  55.4256248  27.3914852
  30.3091965  55.8947105  27.1513729  29.1008663  55.9758720  28.0593014
  41.6002846  50.0575218  27.5731354  42.3589134  50.3848953  27.0898762
  41.5281677  50.6402435  28.3290863  40.5690117  37.3465233  51.9816055
  41.4310570  37.7101974  51.7794991  39.9788322  38.0996132  51.9537888
  62.9318085  28.5284863  51.4854507  62.2927055  29.1230812  51.8781776
  62.5022774  27.6731586  51.4976654  21.2771816  59.1083641  22.9536648
  21.8077774  59.6177483  22.3411026  21.3978310  58.1999817  22.6770573
  76.3634720  45.6218491  52.6381645  77.3014221  45.4849854  52.5049438
  76.2978287  45.9889603  53.5197296  47.0007057  63.2092705  82.2493286
  46.8341522  63.8739738  81.5810089  46.1490746  62.7971954  82.3947678
  30.5323486   3.2464790  57.1343193  30.0314541   2.8718290  56.4097672
  29.8679905   3.5713272  57.7420464  12.6060791  51.4149551  50.2078629
  12.8472433  52.2265167  50.6544533  13.4199877  51.1121483  49.8052521
  64.3325653  45.6585236  16.5730305  63.5415459  45.6865845  16.0347595
  64.3173141  44.7904663  16.9761124   8.3385382  37.2459869  48.3297272
   7.4480138  36.9106941  48.2259254   8.4120274  37.9380264  47.6725273
  27.3379116  66.5569305  65.5537109  27.5623798  67.4855194  65.6135254
  26.3808365  66.5414352  65.5531616  62.6761703  42.7948952  41.4575043
  62.0537148  43.2825928  41.9968872  63.4484024  42.6947670  42.0141602
  23.2433052  67.4144974  71.6360245  23.4549351  68.1487808  72.2124481
  22.6856823  67.7954941  70.9576950  29.4639645  65.1969986  47.4599609
  28.8211098  64.5021591  47.6019554  30.1645508  64.7768326  46.9610901
  16.7415714  67.7087631  31.5288105  15.9525280  67.7310410  32.0702400
  16.6803360  68.4933014  30.9838524  76.4039688  18.0241966  58.7054710
  76.6188965  18.6459599  59.4007721  76.4393005  18.5423851  57.9014397
  57.3999863   8.9994354  34.4367905  56.6094551   9.1684141  33.9242096
  57.1802292   9.2948246  35.3203545  63.6951599   2.9640315  22.1986351
  64.5834732   2.6074882  22.1998634  63.8127403   3.8994193  22.0329361
  83.2771301  10.6187153  57.8883591  83.6167526  11.0090265  57.0830383
  82.9211121   9.7737999  57.6133995  70.7933884   8.2083645  60.4408569
  71.4286423   7.5023270  60.3217163  71.2244644   8.8202524  61.0375137
  53.2656517  10.8162088  13.6152449  53.2335205  11.0568047  12.6893330
  53.3605423   9.8637295  13.6120577  71.4263840  67.4984589  24.4111309
  70.8776703  67.8115768  23.6920300  71.9648285  68.2536087  24.6478996
   4.3926497  41.7147827   2.7078383   3.4428265  41.6071663   2.7577090
   4.7448311  40.8806152   3.0182707  33.3211975   9.2700367  24.2955608
  32.8677292  10.0602093  24.5892010  32.6398506   8.7448654  23.8758106
  27.5455608  57.5891266  57.7403107  27.8671112  58.4905090  57.7589111
  27.3218784  57.3957901  58.6507072  49.9296188  64.7536087  34.7587433
  49.1288681  64.4995422  35.2175255  50.5768242  64.1016312  35.0275955
  35.5814438   0.4544207  85.7231064  34.9386978  -0.1590142  86.0792084
  35.5416794   0.3201372  84.7762070  69.5348129  20.8704472   8.7414923
  69.0537415  20.3349705   9.3724174  68.9512863  21.6067123   8.5580721
   0.5330244  13.5979357  42.5857048   0.7789036  13.7843781  41.6796074
   0.4169652  12.6481562  42.6118011  47.4661217  53.0579491  84.2977524
  46.7605438  53.2260971  84.9223480  48.1942635  52.7485313  84.8365555
  44.1886520  39.4975510  77.4269485  44.4057312  39.3486404  76.5066528
  44.6961021  38.8396416  77.9022141   3.8513861  60.8614273  77.9948044
   3.6412230  61.6646118  78.4711990   4.5124469  61.1279259  77.3558884
   1.1442686  64.4431305  18.0767555   0.4188348  63.8889046  18.3645172
   1.0190842  65.2660446  18.5493927  73.8919373  67.4930801  59.7181931
  74.6349564  68.0192795  60.0135994  73.2500687  67.5672684  60.4244003
  49.0504189  52.3960762  19.7752552  48.1831093  52.5204849  19.3898544
  49.0500336  52.9558792  20.5516911  27.8273067  44.1442299  53.9902878
  28.2018948  44.4758224  54.8063507  28.5817795  43.8360672  53.4882545
  64.4659119  34.4667435  58.7152367  65.1803894  34.1066589  59.2406845
  64.8776016  35.1519508  58.1887016  50.8279266  55.1317215  80.8812637
  51.5576439  54.5230980  80.9966965  50.1986084  54.6517677  80.3429031
  35.9770355   6.6795006  11.9224539  36.5349045   6.8789043  12.6742878
  35.3355675   6.0540195  12.2593861  81.2324142  21.4971828  74.0112228
  81.2004242  22.3205490  74.4983368  82.1625595  21.3619785  73.8301926
  59.6360168  29.0432663  39.3470306  58.9333839  28.6024017  39.8247070
  59.4935646  28.7993813  38.4324493  11.0583553  63.1372528  75.6757050
  10.3942585  62.5498352  76.0364532  10.5579853  63.8563423  75.2899933
  65.8164520  43.6624336  85.9285736  66.6802902  43.6979065  85.5177765
  65.9968262  43.4751434  86.8497849  43.1462936  33.1137619  80.2999496
  42.2279167  33.0439301  80.5606003  43.4075470  32.2148666  80.1000519
  73.6687851  18.4660606  10.7287388  73.8451385  19.2057323  11.3101330
  72.9092407  18.0319233  11.1171274  19.9774208  27.3714409  71.9141464
  19.6251163  26.9810772  72.7139816  20.0912132  28.2971497  72.1294327
  70.0071564  43.1114082  72.4370499  70.9561844  43.1891479  72.3394547
  69.6732712  43.1120262  71.5399704  29.6725636  34.4670563   1.4709424
  30.2236328  35.1817856   1.1520135  30.2532902  33.7063446   1.4884340
  69.9855652   2.2275951  59.2506943  70.2301407   2.9676418  58.6950493
  70.3506165   1.4628924  58.8055038  78.5775604  60.7925949  76.5137711
  79.5225983  60.7153244  76.3827515  78.4326630  60.4756966  77.4052963
  56.1423874  31.5537224  66.5075760  55.6350441  30.7420654  66.5145264
  55.5023308  32.2344856  66.2999268  77.1568604  11.8100014  34.6445274
  76.7010651  12.2591257  33.9326553  78.0672379  12.0942621  34.5630226
  79.7544556  47.8770638  42.6585350  79.7884140  47.2833786  41.9084549
  80.6719894  48.0334511  42.8819389  31.1490917  69.7374725  81.8477173
  31.4888287  70.6303406  81.7877960  31.1351738  69.4252777  80.9429703
   2.1605895  14.1155596  51.2274895   2.6888316  13.7419834  50.5220566
   2.5313368  14.9866562  51.3687973  55.9762421   0.9528106  18.7631321
  55.1627197   1.4570621  18.7511806  56.3851128   1.1776129  19.5989056
  25.0852013  25.9635563  85.5660324  24.7605553  25.0684166  85.6638184
  24.2951508  26.4962788  85.4751511  79.7533569  57.6313324   7.9418492
  78.8746490  57.9617882   7.7550087  80.3212814  58.3964996   7.8512545
  53.6047859  39.5603333  30.6169529  53.6654015  39.7826691  31.5459995
  53.0823021  40.2658081  30.2354412  34.3098297  33.5744476  11.0700502
  34.8047562  34.1292839  11.6729097  33.7455444  33.0486526  11.6369295
  74.4458084  40.6117897  85.0305252  73.7354126  40.0723915  85.3778305
  75.2443237  40.1515694  85.2889709  76.2060013  69.1603088  72.7278976
  76.7517319  68.7054901  73.3694229  75.5163116  69.5716248  73.2488327
  75.8965607  52.6938095  81.4441147  75.3252335  52.2218246  80.8382721
  75.5190125  52.5278053  82.3078995  35.3050842   4.5316157  33.1279907
  34.7718353   4.8919210  32.4194298  35.2257996   5.1706834  33.8361816
  23.7320328   1.9467701  51.6571312  23.9939594   1.7080511  50.7679520
  22.9332581   2.4613798  51.5415115   2.3281651  58.5566940  77.6030731
   1.8715410  59.0921478  76.9542160   2.8351796  59.1845970  78.1177597
  38.6628418  65.1558228  59.1819191  39.2536163  64.5032959  59.5579834
  38.6672211  64.9699860  58.2429428   5.8473563  29.6433945  59.7568054
   5.6056933  28.8247604  60.1900139   6.5453725  30.0060272  60.3022461
  81.5038300  25.2506180  11.8661060  81.1703033  25.8968124  12.4885406
  81.0366669  24.4442387  12.0846109  46.2867012  27.2241497   1.7226543
  47.0463753  26.9934483   2.2573559  46.3927612  26.7108250   0.9217296
  79.5285797  49.1756096  85.6005020  79.1432266  48.3027153  85.6765747
  78.8406143  49.7070541  85.1998749   6.2693133  43.7845879   2.4940693
   5.8383589  44.4375420   3.0455768   5.6189399  43.0895805   2.3930106
  82.0467224  22.4605026  59.7359428  81.8858261  22.5867710  58.8008461
  82.8356628  22.9722862  59.9144783  13.2200737  58.6568680  51.0645676
  12.3551855  58.6919289  51.4731865  13.1823511  59.3117485  50.3674736
  28.1397591  54.2260513  87.2994766  27.3472214  54.0879250  87.8181686
  28.3124084  55.1648102  87.3712616  38.6130714  58.2757645  78.3404770
  39.4460030  58.7150879  78.1688690  38.8354187  57.3453407  78.3737106
  70.4415359  45.6779175  65.6672440  71.2380524  46.1796379  65.8406677
  69.8944321  46.2685127  65.1494598   9.5173149  56.8123932  71.4188538
   8.8233957  57.4710808  71.4478149  10.3288593  57.3198166  71.4067688
  41.1840439   9.4238453  11.6604071  42.0427475   9.4341230  11.2376146
  40.7118797  10.1546860  11.2614508  55.5318413   6.7385421  41.4484100
  56.4438782   6.8584418  41.1837425  55.0496864   7.4006791  40.9531021
  75.7218094   7.6764984   3.8591380  76.3703918   7.0121021   3.6264379
  76.1830597   8.5086308   3.7540863  75.4599533   5.4013262  35.7179031
  75.9286118   4.7735753  35.1678810  74.5346222   5.2150149  35.5589180
   4.8504610  66.9017181  10.8040352   4.9813952  67.8130417  10.5421658
   4.9152579  66.4062424   9.9876175  47.5648727  38.3403435  65.2412262
  47.6920547  38.4571342  66.1827240  47.5532455  37.3913078  65.1170197
  56.3369064  60.9219666  72.7392654  55.5244484  61.1578102  72.2914810
  56.9759445  60.8138771  72.0348663  17.0425625  23.2147369  71.6199265
  17.3958988  24.1001987  71.5342178  17.6971283  22.6542854  71.2031937
  78.9185028  33.6508751  18.0796757  79.0824051  32.7275314  17.8878288
  78.7112503  34.0390015  17.2295952   2.2104187  53.6993790   3.5290482
   1.4189903  53.9059334   3.0318484   1.8974113  53.1907578   4.2770877
  10.4137497  44.6081085  33.5908470  10.9311152  44.6134987  34.3961639
  10.4198933  43.6935692  33.3083382  33.5510292  22.2079868  67.7925644
  33.6338844  22.8561840  68.4919968  34.4498024  21.9301300  67.6158218
  69.4357224  23.9279652  13.5161314  69.1798325  24.4361954  14.2858419
  68.9259872  24.3057079  12.7993956  13.6320219  15.3561888   9.8280840
  13.3294249  15.2028799   8.9330072  14.2950659  16.0412579   9.7427263
   3.5606465  33.3841629  63.2059364   4.1051250  33.0695610  62.4842720
   3.1313601  34.1661301  62.8588486   5.7743273  23.4157047  61.6990433
   4.9453325  23.0139866  61.4390030   6.4324017  22.7438927  61.5206108
   7.5159822  63.2612915  78.7786484   8.1822557  62.7135468  78.3635788
   7.8706503  63.4534683  79.6466980  58.1622276  14.7788591  51.3259926
  58.1516342  14.7931938  52.2830276  58.1456375  13.8488226  51.1001854
  46.6307678  58.6917038  33.9791336  45.8967628  59.0618629  33.4887772
  47.3250961  58.5873299  33.3285561  60.7533035  57.0372276  34.6035652
  59.9790154  56.5547104  34.3139305  60.5146599  57.9582520  34.4987068
  15.9683905  44.6683617  80.4520111  15.4722881  45.3283539  80.9362946
  16.2203197  44.0245743  81.1140594  11.6172466  69.3002167  59.9200821
  11.8550043  68.9332733  59.0685768  10.6835403  69.4967422  59.8439217
  69.7458878  21.5609283  44.9416733  69.9112320  21.5021667  44.0006943
  70.1147537  22.4063892  45.1973305  35.3717155   5.4195423  62.4505196
  36.2285805   5.0664334  62.2110901  35.1706619   5.0102696  63.2921295
  33.0569038  22.4720097  80.4365082  33.2640610  22.4267654  79.5030899
  33.1052628  23.4043751  80.6476593  35.6424484  11.4720869  71.4540329
  35.4028397  11.1389065  70.5892715  36.3953476  12.0403996  71.2915726
  82.3189697  63.2268715   3.2806208  82.3629074  63.1504097   2.3274920
  81.5775146  63.8108597   3.4401233  80.5159988  53.9027863   0.3085613
  79.8544769  53.2459297   0.0914008  80.5185623  53.9329300   1.2652831
  60.4848938  33.1901627   8.5945950  61.2177734  32.7823715   8.1332684
  60.8425331  33.4270973   9.4502754  31.7972736  56.5527306  39.2977257
  32.3322601  55.8749352  39.7107811  30.9158134  56.4037437  39.6398773
  68.4412537  33.0456543  30.2278709  68.1539764  33.2957115  29.3497028
  68.2295609  33.8028717  30.7738018  26.9227867  42.6709709  14.7796030
  26.1192665  43.1795349  14.8889236  26.7724953  41.8735733  15.2873449
  55.5394707  61.6263695  16.4512329  55.8918495  60.7365875  16.4699955
  55.1177750  61.7350006  17.3036423  62.2485428  34.2186203  56.5845413
  62.8380089  34.0556641  57.3208885  61.4035950  34.4094353  56.9918289
  53.0544701  59.0817261  12.5091114  53.4998436  59.4305458  11.7369728
  52.3217659  58.5773697  12.1555529  46.4367981  16.0546532  79.5865479
  45.8404732  15.3125381  79.4870758  47.0956993  15.7504654  80.2106857
   3.1272657  19.5506706  23.6658077   3.7398987  18.8394508  23.4785156
   3.1521230  19.6436386  24.6181583  43.7701569  53.9011497  52.1027641
  44.2688484  53.1773262  51.7237854  44.4340286  54.4753571  52.4845886
  51.3942871  37.7946129  13.3842916  51.0796013  38.5190697  13.9250040
  51.8681602  38.2181892  12.6685696  20.8824806  43.5498276  66.8877029
  20.0409641  43.9972839  66.9763641  20.8721600  42.8821564  67.5735168
  13.8091097  56.7185860  84.9333649  13.6834726  56.8047295  85.8783646
  13.7181835  57.6102638  84.5973892  59.1125755  65.9866638   4.9412227
  58.1899490  66.1936646   4.7924128  59.4585762  65.7947235   4.0696306
  64.0439148  15.7374792  85.5169601  63.7773285  16.3340435  84.8174744
  64.3777466  16.3110962  86.2067032  39.3424454  63.4426804  14.5707598
  39.7395363  63.9070892  15.3075619  39.9067955  62.6815186  14.4352160
   4.9136395  53.7466812   4.5581803   4.5129890  53.6195488   5.4181504
   4.1751146  53.9108810   3.9717925  34.4815216  34.2400703  69.2620392
  35.0368652  34.2288780  70.0415878  35.0880814  34.3956261  68.5380783
  56.2691193  70.5509186   9.2937374  56.5798187  71.0965652  10.0162086
  56.8923874  70.7133865   8.5856619  19.5276871  33.5938835   4.7144651
  19.7415123  34.2198792   4.0226264  18.6430073  33.8341751   4.9898415
  44.9496880  48.8080635  44.3095245  45.4683495  48.9903870  43.5259590
  45.5146408  48.2527924  44.8468628  38.0418968  -0.0559404  14.3069096
  37.1723557  -0.2087909  13.9370918  38.5264664   0.3813376  13.6067572
   9.3978405   3.5644910  59.9641571  10.1953154   3.0372188  60.0115929
   9.1873484   3.7630224  60.8765755  76.7644501  38.7842674  50.8934746
  76.6409378  39.1864777  50.0337029  77.3748169  38.0640335  50.7355118
  48.2276230  44.9482040  37.1635628  48.4865570  44.6529045  38.0364761
  48.7698402  45.7201385  37.0012245  74.5630493  25.9313202  34.9006729
  75.4491730  25.6582069  35.1381989  74.5035172  25.7601776  33.9607811
  77.7247925  41.7319145  39.2584076  78.3458786  41.0041695  39.2878342
  78.0332108  42.3374214  39.9325523  52.5489845  10.5210056  44.1283569
  53.2318497  11.1020584  43.7932396  52.3086281   9.9765434  43.3786774
  56.7650795   2.6395624  28.9267693  56.5920143   1.7346479  28.6671333
  57.3582268   2.9726779  28.2533875  10.1552296  49.3545723  35.6967201
   9.2616777  49.2280540  36.0157661  10.3304577  48.5803185  35.1618690
  59.5164413  63.1571808   0.4042956  59.8837891  63.8111038   0.9990013
  59.2146721  63.6625748  -0.3505194  54.6914482  53.8079414  79.6664658
  54.0353699  53.6117706  80.3352814  54.7580223  53.0029488  79.1528702
  64.7985382  -0.1091935  84.0638046  64.8393478  -0.4509207  83.1706161
  65.1985016   0.7585644  84.0067596  62.8774757  10.5762949  54.1729240
  62.0952415  10.3581238  54.6796188  63.2411766  11.3447075  54.6128044
  46.9565582  41.2632790  77.5940704  46.5625076  40.4379578  77.8765640
  47.8815918  41.0547142  77.4635086  22.5936909  25.2607269  84.2949142
  21.9383698  24.5642395  84.2537689  22.6857586  25.5567646  83.3893127
  73.9491196  48.4943848  58.0192223  74.3475418  48.0412560  57.2761421
  74.5611572  48.3537941  58.7416344   1.6574223  24.6476307  71.5358047
   1.6531026  23.8745079  70.9714508   1.2127274  25.3217487  71.0219498
  67.3401947  27.1866245  41.5378532  67.9236374  27.7116833  42.0857086
  67.1379776  27.7522812  40.7926216  54.8847237  68.4367371   8.8039761
  53.9645042  68.5000000   9.0597639  55.2271652  69.3229675   8.9204702
  28.6165943  25.4430599  86.4711380  28.1506748  25.0444489  87.2061615
  28.1680775  25.1095638  85.6940613  71.1087570  71.3224945  58.6823425
  71.4158478  71.1417999  59.5707550  70.9547653  70.4578629  58.3016548
  82.7401733  13.6904020  12.9306908  81.9365082  14.1772470  13.1132727
  82.4399033  12.8136358  12.6912079   4.9881997  66.2126999  78.9007950
   4.8151832  66.1587906  79.8406830   5.1339707  65.3057480  78.6316910
  79.4959030  44.5198822   5.1353664  79.1392136  43.7746277   4.6520438
  78.9952011  44.5382118   5.9509602  78.8253250  47.3911552  59.8300476
  78.5633240  48.0875664  59.2278862  78.7902832  47.7975235  60.6959991
  62.7481155  24.2521858  36.7436180  63.6635857  24.1679192  36.4770699
  62.7897034  24.5410423  37.6552429   8.4162073   0.5970778  81.8715286
   7.8302379   1.0255848  81.2476273   9.2939644   0.8618709  81.5964661
  79.0161896   6.6591868  35.5541153  78.6623306   6.4054818  34.7016792
  78.2436447   6.8171368  36.0967484  66.9978180  67.9922333  15.1235752
  67.4988480  67.2306747  14.8316154  66.8585052  68.5064850  14.3283606
  59.1267014  42.5342636  81.1641083  59.2554855  43.4710007  81.0152130
  58.7987099  42.4772644  82.0615540  58.9808807  20.9302711  79.6866379
  58.3782425  20.2113667  79.8769913  59.3817253  20.6918316  78.8507538
  83.3470612  68.9341888  47.9372978  83.2000198  69.1808929  48.8503952
  82.7955246  69.5342026  47.4352837  15.6352472  47.4291191  14.6962357
  15.8740406  47.7447128  15.5677919  14.8345470  47.9067993  14.4795980
  40.8469315  25.9600906   1.9567871  40.1158562  25.5961590   2.4561036
  40.8131638  25.5041065   1.1158521  52.2516365  48.5814743  66.6955032
  51.5119972  48.9210510  66.1916656  52.8272667  49.3369102  66.8146515
  74.4267273  58.7686577  68.0979080  73.8286819  58.3206062  67.4997253
  74.2904282  58.3365593  68.9410858  22.0865669  38.1036072  31.1955280
  21.3503265  37.6311951  31.5841274  21.6891842  38.8735275  30.7886600
  76.1927338  51.2371559  41.2435837  76.3373642  51.7928505  40.4777374
  76.6887054  50.4397774  41.0580292   9.6398201   4.1588516   6.3979020
   9.8363819   5.0904880   6.4961314  10.3907871   3.8045311   5.9217324
  58.7890778  54.5739632  61.8795128  59.3392715  54.6865082  62.6546593
  58.9390030  53.6681519  61.6088486  21.7687359   2.5387666  45.1792068
  21.9639072   1.8445822  44.5497246  22.5246735   2.5491834  45.7663040
  31.3009129  46.7530441  77.2078400  31.4158840  47.3845940  77.9178848
  32.1401634  46.2956696  77.1558838  39.8472404  61.7468147   3.8509743
  39.6588135  62.4217148   4.5030761  39.0215607  61.6308670   3.3808205
  56.6614304  13.6477337  20.7449474  56.0363770  14.0878544  21.3209972
  56.2431908  13.6596537  19.8840370  38.4573784   1.3221297  42.4198189
  39.2154961   1.0958587  42.9586067  37.8757820   0.5656039  42.4949493
  57.2284660  54.7422867   7.7151923  57.8752708  54.0743599   7.9426780
  57.4704056  55.5007935   8.2465715  10.5365314  63.9417534  84.9005737
  10.7856321  63.2019348  84.3466339   9.8407154  63.5978966  85.4607849
  44.3856468  65.2836838  38.5028992  44.6355209  65.4599686  37.5958633
  43.7868729  64.5390625  38.4459877  75.2133865  13.5886526  71.2854309
  74.5106354  13.5903006  70.6355209  76.0115814  13.7266169  70.7754440
  20.5111008   1.5168151  13.0514402  20.0126686   1.9079908  12.3339596
  20.0641537   1.8145472  13.8437948  64.7307663  51.3051491  74.1973801
  63.8848038  51.1022530  73.7981110  65.2377243  51.7082710  73.4925919
  70.1350021  15.2079268  25.5971832  69.6761703  15.7146797  24.9271774
  70.8559799  14.7880211  25.1280327  49.9489059  66.3371048  60.8802681
  49.0189438  66.5589981  60.9267387  50.3754807  67.1490326  60.6063347
  56.7841911  70.6427002  22.5974140  57.0784645  69.7933426  22.9263992
  57.4062920  70.8591461  21.9028816  37.7663612   7.9819260  59.8891335
  37.8558121   7.7686357  60.8179703  37.0082550   7.4747343  59.5988503
  84.3624039  29.4779053  69.7221069  84.2467041  30.2193966  70.3162689
  83.6498795  28.8788815  69.9450531   0.0035864   9.3730173  84.3726349
   0.0620543   8.5515919  83.8847046   0.6239160   9.2677889  85.0939865
  43.7510300  46.0041504  64.4311905  43.7901344  46.3581619  63.5427246
  44.6320915  45.6671867  64.5937500  57.4774132  45.7530556  11.9474649
  58.0145569  45.8171005  11.1577787  56.6842461  46.2463722  11.7382812
  31.0048981  22.7945194  55.6810646  31.3064766  22.5389271  54.8093109
  30.1543121  23.2063770  55.5290451  11.9223919  20.3017693  54.0594330
  12.8244505  20.3217278  53.7398643  11.4281054  19.8819809  53.3553810
  69.6390762   6.7733259  51.1293106  69.8470688   7.4971371  50.5384903
  69.8898621   7.0921988  51.9962883  45.2779045  53.7672195  23.0749264
  44.6896744  54.5223465  23.0757465  45.7703857  53.8481369  22.2581387
  49.4096031  49.2682915  88.6923523  49.6611099  49.6454430  89.5354004
  49.9690208  49.7121506  88.0549545  40.9539032  27.1509972  63.4749527
  41.1975250  26.4122601  62.9171448  41.5612526  27.8483067  63.2277260
  32.3837662  67.1251984  63.6652985  31.4447498  67.2941437  63.5882645
  32.6588516  67.6423187  64.4223633  68.8423080  10.6782026  42.6421928
  69.6608505  11.1453953  42.8093796  68.9049759   9.8864803  43.1764946
  22.6106529   3.9128354   2.1681118  22.6241798   4.1695952   1.2460905
  21.6818008   3.8973570   2.3988247  36.6768494  70.7865295  42.4333305
  36.6031799  69.8426895  42.5746574  36.4125557  70.9136276  41.5221596
  49.8485565  44.9948387   4.5109253  48.9185448  44.7818527   4.5880370
  49.9760323  45.1775818   3.5800190  60.4095650  15.3491840  70.4328308
  60.7454185  15.4556837  69.5428314  60.9843178  14.6942167  70.8289413
  42.4743729  61.3001328  45.8384628  42.4173050  62.2540321  45.7832260
  42.9453850  61.0420876  45.0461273  52.0375633  15.2630882  29.8530464
  51.6003494  14.6263371  30.4184017  52.8575478  14.8375931  29.6024265
  49.9835358  35.7744942  41.8088646  50.0189056  36.6073608  42.2793007
  50.0496292  35.1093903  42.4940643   5.2792792  12.5280323  69.9359970
   5.5907307  12.0656738  69.1578903   4.4201589  12.1453915  70.1141281
  17.5418205   7.4713097  67.0118484  17.7134171   8.3033409  66.5708084
  18.4105625   7.1114049  67.1907043  10.4527807  13.5522728   4.0549245
  11.1337385  12.9718227   4.3949351   9.6321602  13.1564398   4.3484020
  68.5640030  28.7326412  21.8149834  69.1129227  27.9487476  21.7942238
  69.1790161  29.4585533  21.7099266  58.6556740  60.6536636   3.1924756
  59.5590477  60.9010277   3.3898401  58.5410805  59.8046684   3.6194520
  75.6419373  31.2196560  88.8482056  75.2027283  31.3922272  89.6809998
  75.3576126  30.3384552  88.6055603  10.6903000  34.0615921  60.3421555
  11.1838732  34.7662315  60.7617989  10.6344938  34.3227425  59.4229622
  27.8924332  60.1034164  16.6656590  28.5540295  59.5279274  17.0494995
  27.0639687  59.6467094  16.8115959  30.9581070  53.0531082  26.3778229
  30.5188828  53.8874626  26.5426369  30.3235188  52.3904076  26.6505051
   6.1163788  56.0114059   9.3348799   5.7585273  55.1377449   9.1771278
   5.9208078  56.1877594  10.2551422  71.9250259  51.7683029  15.0716925
  71.1190414  51.2802391  14.9031591  71.6666641  52.4508209  15.6910877
  24.6128082  58.5986481  85.3013687  24.6327896  57.9992828  86.0474167
  24.6395130  59.4710884  85.6942596   3.6309690  31.4157963  46.4637527
   3.1112421  30.8795662  45.8649406   4.5391679  31.2248631  46.2293358
  22.3841648   4.5048327  13.6904297  21.8963261   5.1109571  13.1328821
  23.1409245   5.0096436  13.9882746  60.1957474  37.2606430   4.1477098
  60.7970352  37.3811684   4.8826647  60.7029037  36.7693977   3.5014102
  64.2725983  66.4599075  56.0305939  63.8098907  67.2957382  56.0899887
  63.8918800  66.0292435  55.2652130   3.2384109  31.1063805  16.8834515
   3.0345740  32.0199280  17.0837421   3.6932981  30.7861423  17.6623974
  10.2452755  27.6169987  15.3065414  10.8056011  28.3623447  15.5227051
  10.8201809  26.8553867  15.3818045  52.8564148  14.2404909   7.6223626
  52.7490807  14.1138296   6.6796708  52.4265175  13.4814892   8.0164890
  45.2288094  46.9131699  32.8929825  44.3783150  46.5709114  33.1682129
  45.8403168  46.1952324  33.0568619  37.2686577  58.3173027  55.1490440
  37.2749748  57.7981300  54.3448982  37.0479622  57.6899185  55.8374596
  11.6015463  41.1123085  55.7723732  10.8088121  41.5215988  56.1192017
  11.9972124  40.6781082  56.5281181  22.4754620  13.0915651  14.2210016
  21.6525822  13.1924610  14.6994581  22.4985180  13.8392725  13.6238136
  84.9929733  39.8977509  74.0958252  85.4262009  40.3073120  74.8446960
  84.6935120  40.6328697  73.5608902  26.2029877  17.1467667  15.1055040
  25.3454990  17.3961010  15.4501429  26.0061436  16.5636826  14.3723612
  20.3365459  67.5305557  76.8099442  20.0410118  66.8083496  77.3642960
  20.1977654  67.2184448  75.9157715  64.9197006  67.6223068  63.3685684
  65.3462372  67.6328583  64.2254181  65.6297760  67.7771454  62.7456284
  32.5188637  15.7574053  65.2097168  32.8730125  16.4272747  64.6248322
  32.4161339  16.2034721  66.0503693   0.5175001  31.8776550  12.3244934
   0.4076566  31.0212460  12.7376881   1.4046135  32.1466599  12.5630274
  60.4467239  14.5411873  25.6769371  59.8093109  14.7064342  24.9822197
  61.2652435  14.3633699  25.2136421  83.0633545  43.2351532  40.2909126
  82.1254807  43.4233437  40.3256340  83.2607193  42.8435364  41.1417465
   6.1889906   2.0609219  54.7198105   5.9535737   1.5004765  53.9804115
   5.3497152   2.3499973  55.0779762  49.1332092   9.6807413  66.6776199
  49.0216827   9.0793114  65.9413605  49.4298096   9.1248274  67.3981934
   4.8433318  44.1186600  69.1290588   3.9999597  43.7305679  68.8959503
   4.7788615  45.0268822  68.8337479  72.6718979  50.2354546  33.1240654
  72.9164429  50.4465370  34.0251083  73.2305374  49.4937057  32.8917770
  63.9522972  48.9197426  44.7784576  64.2406082  48.1839027  44.2384148
  64.7597656  49.3806343  45.0060730  50.9486046  15.0776129  24.0011883
  51.4071159  14.4411497  24.5497456  50.4037895  15.5726595  24.6130180
   3.4606426  10.2978621  33.0988884   3.9317455  11.1255312  33.1950989
   3.5263591  10.0918531  32.1664314  42.7594185  35.8234863  66.3352127
  42.9050140  36.2813110  67.1631165  43.0237350  34.9204865  66.5111618
  77.3428497  52.5899315  60.0597878  77.9131699  52.6793747  59.2962646
  76.6052094  53.1720009  59.8772583  15.5385733  64.4005814   5.5403810
  15.3640013  63.7694092   6.2385082  15.3188095  63.9331932   4.7344747
  57.2855110  58.1633949  66.5895004  56.7633858  58.9048996  66.2832489
  57.5812340  57.7314644  65.7881165  52.3972969  43.9953575  72.7668991
  53.2389717  43.5563240  72.8896408  52.1367760  43.7685280  71.8741989
  47.8032417  -0.1256465  70.6343994  47.2253571   0.5317148  70.2469025
  48.4616547   0.3832437  71.1074295  66.5485992  38.7494011  78.5236130
  66.8558426  37.9058151  78.8555679  65.7332230  38.5441856  78.0661392
  46.3367157   7.3484988  11.8293858  47.2226295   7.3850832  12.1900187
  46.2467613   8.1614714  11.3321781  67.0447693  59.2187233  33.4461174
  67.7104111  58.9486923  32.8134766  67.5170975  59.2883873  34.2757454
  80.5975418   8.9095106  35.2242088  81.4644699   8.5449028  35.4023209
  80.0124435   8.1520214  35.2342796  36.5918159   4.8230858  51.1912155
  36.1143036   5.1384354  50.4239044  37.4821968   5.1534872  51.0716896
  23.2497807   0.1517327   7.5498600  23.2009392   0.8276815   6.8738871
  22.3437595  -0.1327215   7.6700358  24.5622177  56.6036835  46.2132607
  25.1708469  56.1562042  45.6254120  24.4676914  56.0094719  46.9577103
  70.3068542  19.3627853  58.2743759  69.4403305  19.4588490  57.8792229
  70.8976974  19.2457180  57.5304489  24.4250736  69.7447586  31.0499115
  24.3395424  70.5262680  30.5038700  24.3721104  70.0728073  31.9475803
  74.7371063  17.2740078  34.3460617  75.0028687  18.1442051  34.0488091
  75.5248184  16.7382050  34.2530556  31.9616718  53.5384254  66.3094711
  31.4543800  53.9421539  67.0136719  32.7888260  54.0201035  66.3036270
  81.7248840  45.7008400   7.6918335  82.0345535  45.2896385   6.8848300
  82.2355270  46.5075073   7.7608380  65.0204239  36.0661316  24.0765724
  64.2252579  35.7270622  23.6655083  65.2415619  36.8441772  23.5647411
  57.0023232  57.2410355  27.1286316  56.5412407  57.5370941  27.9134769
  57.8311424  56.8910675  27.4554558  62.5637321  20.8253117  60.5011559
  61.6966553  20.9826927  60.8748398  63.0655708  21.6100426  60.7215805
  52.1814499   3.7958052  69.1414261  52.2002258   3.4927816  70.0492020
  53.1002884   3.8062797  68.8733673   1.4245894   1.4689124  54.0420418
   0.9067155   1.0378518  54.7219124   1.2807261   0.9380323  53.2586517
  41.8720627  18.0349598  86.6916809  41.3012352  17.3093529  86.4389267
  42.4160614  17.6783504  87.3939056  19.4719791   3.4449461  64.7164612
  19.8003941   4.0670328  65.3656006  18.7353401   3.0135088  65.1494217
  27.8477516  62.6801987  26.4009285  27.3602448  62.9964752  25.6403103
  28.7545795  62.6272621  26.0991096  39.4407654  70.7762070  22.6544666
  39.3035469  69.9979248  22.1143990  40.3876038  70.9156265  22.6374874
   2.8835406  41.6996155  63.2657127   2.3652136  41.6098518  62.4660187
   2.4209800  41.1662483  63.9120789  68.8901062  23.9575214  16.3514919
  69.5500412  23.3318024  16.6501484  69.0620270  24.7488422  16.8618717
  43.7098732  36.7742920  68.5708771  43.4506111  37.0275040  69.4568176
  44.5454102  37.2193718  68.4294052   4.9775476  67.2896347   0.3211933
   5.6020689  66.6940613   0.7353204   4.3435841  66.7131577  -0.1054150
  60.9771194  64.1427078  56.1192970  61.8290215  63.8820267  55.7692375
  60.8890038  63.6436996  56.9313698  72.1626282  27.8186932  57.0170097
  72.4956131  27.4010067  57.8112946  71.3935547  27.3010826  56.7785988
   1.7472900  46.9785347  14.9158907   1.3295130  47.7534485  15.2916584
   1.0200776  46.4500656  14.5870800  58.8771172  27.9487877  61.1941719
  57.9484825  28.1327019  61.0526085  59.3324280  28.5390530  60.5937462
  60.0197868  22.5237274   9.2624578  59.6520500  21.6519642   9.4074755
  59.8872910  22.9807644  10.0929976  67.9991989  49.5392303  52.5989075
  67.7161713  48.7639236  52.1141090  68.8531265  49.2985420  52.9582062
  76.8757629  24.2884884  53.1039276  76.2454681  24.7396297  53.6655540
  76.3929214  23.5387688  52.7560616  53.7434998  69.0388947   4.1398959
  52.7955742  69.1681137   4.1087580  54.0587502  69.3751373   3.3009732
  19.1793385  67.8632736  13.4398155  19.8924713  67.2925797  13.1534834
  19.3392906  68.6916885  12.9877405  17.0642929  10.9578333   7.5250902
  17.2753429  11.8206396   7.1683612  17.8252544  10.4177790   7.3117576
  17.6014900  61.8813210  70.8428574  17.0375118  61.1112595  70.7709808
  17.3947048  62.4028740  70.0673218  20.0951004   9.4614468  16.6748447
  19.9885387   9.2563753  17.6037273  20.9421539   9.0816832  16.4413643
  24.0911427  19.2040024  85.0346375  23.9123974  18.7504978  85.8584137
  25.0099869  19.4643974  85.0990601  39.0422249  17.9507561  87.9025421
  39.5636787  17.8820038  88.7022934  39.4916611  17.3855305  87.2742462
  44.1754723  66.8942947  85.0902252  44.9594574  66.5727615  84.6450119
  43.6745949  67.3357697  84.4043274  56.0370712  27.7589188  60.6127281
  55.2150421  27.3757935  60.3065948  55.9385757  27.8089066  61.5635376
  12.1117105   7.2331471   1.7105036  12.4738531   7.9775872   1.2299899
  12.8610458   6.8606067   2.1751997   5.0983777  10.0154800  50.7484703
   5.8220801   9.4901400  51.0897942   4.8171930   9.5519743  49.9595909
  26.9010811  66.6459503  16.4351273  25.9925766  66.5694427  16.1435814
  27.4202003  66.4559174  15.6536970  52.4891777  18.4158440  60.0143166
  51.8933258  18.8930206  60.5918083  51.9200668  17.8329105  59.5117912
  18.0255280  17.1635075   1.1789615  17.1113815  17.0697842   0.9110351
  18.2621727  16.3041420   1.5278461  72.0022049  43.3264503  38.9244270
  72.6632690  43.9963417  38.7498550  72.4462128  42.4984093  38.7415581
   4.4665508  68.4676895  21.2621441   4.2311435  68.7043762  22.1592484
   3.9970500  67.6496048  21.0992260  79.7805634  20.1609917   6.5282316
  80.4504318  20.8444271   6.5075145  80.2496643  19.3741684   6.8058753
  60.7255135  22.3291378   1.1324655  60.1829987  21.8538094   1.7617285
  61.5970116  21.9453602   1.2295953  81.1689529  28.8654060  25.0527706
  81.3835526  29.7874012  24.9109859  80.5639343  28.8716354  25.7944889
  82.1562424  22.8848572  28.8175488  82.9833832  23.2289219  29.1547337
  81.5096359  23.5545082  29.0404797  61.6677818  47.7317581  35.9222946
  62.2636948  48.2066154  36.5016289  61.1320343  47.2015228  36.5122604
  29.4228764  45.5105057  65.8639603  29.1381836  46.3090057  66.3084641
  28.7364216  45.3372574  65.2197571  24.7639275  39.9754524  53.3317413
  24.7201729  40.9314384  53.3519516  23.9858856  39.6898994  53.8106384
  68.9659958  60.1123276  68.8914261  68.7141571  59.4105873  69.4917374
  68.1497498  60.5794029  68.7130814  55.3278999  58.3009834  13.8555498
  54.6776695  58.7507515  13.3159742  54.8132172  57.8505859  14.5252361
  45.4237633  23.8928108  68.0758591  44.8021584  24.0489788  68.7868118
  46.2660866  23.7765236  68.5153961  63.7086983  27.0597572  73.5445099
  62.8216171  27.3531494  73.7524490  64.2626495  27.8159828  73.7381516
  64.7318954  18.6478405  10.2904863  64.3020935  18.5229397   9.4443750
  64.4907684  17.8731003  10.7982941   2.4234390  30.8119965  84.9452744
   2.3535554  31.6808262  84.5496902   3.3372860  30.7479839  85.2227936
  64.5102386  46.4812164   2.0494092  64.8020401  47.1620674   1.4431750
  64.7761993  46.7988396   2.9123180   8.3423882  67.3355331  87.0782547
   9.0754948  66.8965225  86.6469193   8.0504379  66.7145309  87.7456055
  26.9940033  65.5466919  61.5912704  27.8710442  65.5512543  61.2078514
  26.5754585  66.3331375  61.2411842  85.7061005  17.7634315  29.2684135
  86.0368652  16.8673496  29.2062492  85.1331940  17.7546139  30.0351791
   8.2805071  46.6789856   4.0379162   8.4284058  46.8772125   3.1132197
   7.4633265  47.1292686   4.2516723  66.2639999   4.5539198  29.0375652
  65.4764786   4.0553150  29.2553654  66.3470306   4.4677367  28.0878754
  31.1721764  70.2151260  13.6776323  30.3188362  69.9763412  14.0396118
  31.0162525  70.3076935  12.7377653  35.9250946  63.1808434  16.3548145
  36.0078583  63.8667908  15.6923504  35.2722549  63.5179138  16.9683418
  66.5403824  38.1885986  36.9495964  66.9984131  38.6806183  36.2681541
  65.8341827  37.7382698  36.4862137  60.1752281  17.5975933  74.4852295
  59.6813469  16.9432545  73.9911118  61.0546875  17.5686741  74.1084671
  45.1810913  43.5498962  33.9342003  44.3162727  43.6906242  33.5488243
  45.0631638  42.8028641  34.5209465  20.8503571  39.8715477   4.7203064
  20.2724133  40.5425987   4.3571219  20.2613525  39.2668762   5.1716161
  80.9784927  12.6971941  22.3317871  81.3311920  11.9528990  22.8194962
  80.2482986  13.0093756  22.8661919  22.9006271  63.1777992   2.6666613
  22.0353298  62.7689972   2.6859918  23.2810478  62.8940773   1.8353890
  50.9722786  13.7362509  86.3205948  50.6791153  14.0682077  85.4720154
  50.3518486  13.0387554  86.5322571  74.5182648  63.4005203  73.4626083
  75.4081802  63.1315880  73.6905518  74.1916656  63.8384514  74.2485962
   6.8764815  16.6651497  57.2503471   7.1141176  15.7383184  57.2776642
   7.7130127  17.1248894  57.1790314  25.3348389   9.0096788  12.0598974
  26.2553158   8.8573246  12.2737713  24.9973602   8.1453724  11.8247080
  64.8526764  15.6997223   4.7907887  64.1752243  16.1060658   5.3313241
  65.3561249  16.4362469   4.4439473   6.1851106  20.2166557  88.7164383
   7.0946374  19.9184208  88.7094650   6.2299733  21.1288986  88.4300232
  40.7409325  52.6604729  41.3447914  41.1744232  51.8894081  40.9790306
  39.9868240  52.8049622  40.7732391  74.3919983  53.8350983  87.2310257
  75.0118713  53.9626961  87.9491577  73.7414093  53.2266846  87.5814514
  10.5674438  45.5066528  40.7930832   9.9266653  45.0520210  40.2463226
  10.4912863  45.0874367  41.6502228  24.0824547  68.4799805   7.0166864
  24.5848331  68.6672440   7.8096442  24.3527985  67.5969696   6.7648172
  54.7695618  32.7009468  29.1406078  53.9282761  33.0112762  28.8057003
  54.5393448  32.0186310  29.7712269  55.1499367  38.2378120  84.3320465
  54.2381935  38.5190964  84.2556534  55.6332397  38.8339615  83.7599792
  37.6338539  69.7803268   2.4533513  38.2304764  69.6592407   3.1920063
  38.1975479  69.7387543   1.6808552  84.3146057  47.6713486  10.4332638
  84.2943115  48.5517311  10.0580950  84.6687927  47.1213303   9.7345037
  27.7931461  62.3523026  29.2372246  28.7204227  62.5640450  29.3447037
  27.6512012  62.3715782  28.2908039  15.4253731  55.8530693  59.4001770
  15.2599230  55.0098457  58.9784775  15.2295895  56.5015793  58.7239075
  45.1055450  30.3343544  35.4922714  44.9802856  30.8492241  36.2894249
  44.4767036  30.6996708  34.8699074  17.8121376  18.5381851  74.6776581
  16.9494572  18.1482182  74.8188629  17.6708584  19.1900005  73.9910660
  15.7065582  35.6430626  10.5166159  16.2207413  34.9379883  10.1232767
  15.7973423  35.5081940  11.4599085  46.1613808  10.8286896  70.3844757
  45.5223083  11.3551493  69.9042130  46.0670776  11.1091766  71.2947922
   7.6650429   3.6752799  28.5384541   7.6875329   3.5462379  27.5902596
   8.5098677   4.0745978  28.7459335  33.1606712  59.2377663  68.6899109
  32.8542137  58.4359016  69.1133804  33.7019272  59.6668053  69.3526306
  63.7447624  46.2043571  55.1746597  63.4138222  47.0367432  54.8372498
  63.1299896  45.5500069  54.8428345  11.1687050  25.1710606   8.1996212
  10.6089659  25.5103054   8.8980742  11.7320137  25.9084301   7.9646688
  65.6868286  25.2014790  61.4342651  66.0718079  25.5868931  62.2213326
  66.0813446  24.3313007  61.3761215  69.7377625   8.1398382  33.4038887
  69.1325607   7.3982468  33.4041824  70.3890533   7.9172106  32.7386894
   3.6999083   7.0780616  40.7581367   3.2422311   7.5063128  41.4815750
   3.2843657   6.2186995  40.6870575  46.2399445  61.5223885  35.5727081
  45.4654999  61.4470177  36.1301880  46.0405235  62.2492752  34.9827080
   7.6663084  54.4839249   5.7829256   6.8991909  54.0349045   5.4277596
   7.9839606  55.0241280   5.0593839  78.3712616  41.5417213  67.6626282
  78.3258820  42.4955711  67.5967331  79.3006439  41.3547211  67.7949448
  39.3549004  39.6113434  52.1294708  38.8092918  39.5340157  52.9121323
  38.8324509  40.1377411  51.5243416  65.3525238  56.0857811  75.1587296
  64.9165344  55.2630310  75.3806076  66.1418839  56.0921364  75.7001266
  48.4203529   5.2550440   6.9214783  48.8377266   4.7474961   6.2254710
  47.6283226   5.6095266   6.5174184  29.5316620  33.1411133  13.4063349
  29.0547905  33.4250641  14.1862068  29.0169239  32.4104729  13.0636368
  79.5598450  18.8581314  82.3898849  78.8331909  19.2576904  81.9118118
  79.7508926  18.0540352  81.9070129  49.4659653  15.5218945   9.4482689
  49.4127350  15.1800880  10.3407745  49.8011780  16.4124088   9.5524330
  29.4682541  70.6730270  25.7954063  30.1273975  71.3624725  25.8755856
  28.6700573  71.0620422  26.1528702  48.8312950   0.4586180  55.3594437
  48.8909874  -0.4120307  55.7526855  49.6050072   0.9207010  55.6820564
  32.3034668  55.3704491  10.5702963  31.6425056  55.2102509   9.8967276
  32.8042068  56.1171265  10.2417088  19.0728760   0.1208785  61.2924423
  18.6298256   0.3162104  60.4667435  19.9868126   0.3584718  61.1359100
  38.9700127  66.7183914  71.3655472  39.0059280  65.8763733  71.8193588
  39.8657684  66.8651123  71.0617065  16.8760185  58.4615860  30.9719105
  17.0787659  57.9666252  30.1780949  16.5687313  57.8018188  31.5936127
  32.2187195  34.1286697  76.8398819  32.9800835  34.7078438  76.8065872
  31.7121887  34.3538361  76.0595245  63.8047371  55.8478470  29.2819633
  64.5169601  55.3299141  28.9068394  63.5556374  56.4535484  28.5838890
  40.9602356  20.1073551   4.3612347  41.7678413  20.5656681   4.1289592
  41.2429771  19.2190838   4.5786386  14.0645618  43.0445137  75.8812866
  14.1458883  43.9835396  75.7144089  14.5165892  42.9092216  76.7141113
  83.4261475   2.0516596  47.3050842  83.6969223   2.9043539  47.6454163
  83.1183777   1.5732669  48.0749207  62.2311211  46.1989937  61.0073967
  61.7421913  45.4448509  60.6780815  61.6268768  46.6311569  61.6110191
  59.7283478  38.8702011  20.8151073  60.6761780  38.7748032  20.7215672
  59.3709221  38.0458984  20.4849453  55.8072815  55.9531364  89.1882553
  55.9397163  55.1638222  88.6632004  56.5877495  56.4828453  89.0254364
  17.6231804   1.2350527  47.0578461  17.2823048   1.7257769  47.8056602
  16.9723530   1.3664753  46.3683662  67.9816513  30.3524494  30.9531441
  67.9123917  31.2917728  30.7825317  68.6891251  30.2768440  31.5934505
  79.7166519  42.6765327  78.6591721  79.6257553  41.7247086  78.6144104
  80.5266266  42.8169899  79.1495132  82.6861877  33.4993248  57.7259750
  82.1447754  32.7615738  57.4452095  82.0906982  34.0562439  58.2274399
  11.4672422   4.9718070  69.6893845  11.3046207   5.4576793  70.4979095
  11.4319630   5.6350856  69.0001450  64.6409531  55.2994995  61.9687653
  64.7429276  54.7071762  61.2237930  65.4942093  55.2880363  62.4024239
  56.1237831  46.8610458  66.6055527  55.5273361  46.4978218  65.9509125
  56.3591957  46.1140022  67.1557617  73.6050186  61.1696434  26.4026051
  73.9592361  60.4283676  25.9114037  74.2737427  61.8500633  26.3247433
  64.6743774  23.1816883  55.7868805  64.5097122  23.9875031  55.2972107
  65.1213989  23.4717274  56.5820427  73.8374634  57.0852737  42.6141586
  73.3801041  56.2660789  42.4244690  73.1772614  57.7650375  42.4789085
  41.2044334  37.2640495  59.6578827  40.3514328  37.3354111  60.0862885
  41.1230164  37.8027916  58.8708878  34.2604370  48.9068794  45.8097572
  33.7807426  49.7348595  45.8337135  34.7913475  48.9605675  45.0150986
   7.8437042  45.8512001  29.6327248   7.0461736  45.4197693  29.9393921
   8.5461645  45.4448738  30.1403484  25.8441525  55.0320396  73.7598724
  25.3418770  55.5022278  73.0943832  26.2472839  55.7216187  74.2873230
   1.1323712  15.4078188  82.8972778   1.3268371  15.6459846  83.8037491
   1.7749202  14.7310505  82.6843262  19.9733315  14.4682636  79.2306442
  20.1639919  14.9604635  78.4321365  19.7281303  15.1362066  79.8709259
  53.9684258  52.8712120  27.5097294  54.4841995  52.2847099  26.9563541
  53.9772797  53.7081261  27.0452652  65.2491379  36.9180222   0.6590126
  64.5102768  36.5006561   0.2161540  64.8816223  37.2478561   1.4789976
  46.1881180  49.9617233   7.3703709  47.1101418  49.9144211   7.6230822
  45.8269539  49.1116676   7.6217628  75.0927582  48.3253593  12.9246387
  74.7294769  48.8590355  12.2179222  75.0800476  48.9003563  13.6897850
  78.9011002   2.6979680  30.2969265  79.4384766   2.5495045  29.5188427
  79.1770401   2.0182838  30.9118385   5.0518565  63.5000992  31.4067249
   5.0126042  63.5698090  32.3605766   4.3048816  64.0129776  31.0981522
  20.7378578  60.9082069  35.9186859  20.3176479  60.0698090  35.7270012
  20.2270737  61.2723656  36.6416779  10.5174093  53.6426964  84.5739212
  11.1719942  53.4654922  83.8983841   9.7705450  54.0023003  84.0952606
  44.0045624  54.4793205  61.4828377  44.0442696  53.5372581  61.3179779
  44.0137062  54.8755417  60.6115456  26.5870209  20.2040462  27.9375248
  27.0264645  20.7671719  28.5747147  27.2649364  19.5919666  27.6511288
  70.1728973  61.1937485  47.1233025  69.7272797  61.8746376  47.6273308
  69.8866501  60.3729935  47.5241203  49.3225670  60.8775749  78.0409241
  48.8366165  61.5398979  77.5495911  50.2409286  61.0531998  77.8359756
  78.5147247  21.4450397  39.1496429  78.7422562  20.5424728  39.3728714
  79.1644211  21.7009048  38.4949226  33.6421242  21.6955414  77.5863495
  32.8606834  22.0393295  77.1534576  34.3538246  21.8714428  76.9709015
  20.1538677  52.1992111  50.0097656  19.3457699  52.1840744  50.5225830
  19.8905735  52.5478821  49.1580963  35.6243439  56.5844498  40.5271950
  35.6893578  57.5027847  40.7892380  36.0502319  56.1023865  41.2360420
  46.6079483  14.3982515  68.6403503  47.1973152  13.7229662  68.3043900
  46.9935455  15.2222939  68.3428650  -0.2239642  55.1914139  63.8373260
   0.6829055  55.2594833  64.1359711  -0.1911568  55.4396133  62.9134483
  35.7098770   7.4531679   9.3333616  35.7338181   7.1155872  10.2287369
  36.5530777   7.8918338   9.2201519  46.6055527   9.4691648  30.9799309
  47.4026413   9.1740360  31.4201355  45.9054947   9.2927008  31.6084290
  52.9263382  56.9589157   1.1393057  53.0425682  56.0200195   1.2848787
  52.3549347  57.2429810   1.8527762  70.8872604  21.0381718  15.4399920
  71.3019867  21.2058792  16.2862206  71.3162308  21.6465626  14.8382635
   1.2793553  13.9125347   7.1647367   1.8909674  14.6472826   7.2127829
   1.2572906  13.5606833   8.0546494  72.5172729  59.0367012  18.8655853
  72.8233032  58.8308029  17.9823036  71.5650406  59.0885162  18.7831402
  58.4570885  11.1635885   3.9887028  58.4830589  10.2069540   4.0088911
  58.0040627  11.4079733   4.7957196  24.7151146  49.0278969   4.1541023
  25.1520767  49.6688309   4.7149072  24.7687168  49.4028358   3.2750230
   2.1286397  50.7114182  43.2701340   2.3794265  51.6039619  43.0320129
   2.7309017  50.1539040  42.7775002  55.3804359  43.1098671  76.6277695
  54.6295013  43.4464722  77.1166763  55.0755272  42.2793922  76.2622910
  14.0719614  58.7502937  18.9124622  14.3596678  58.2363853  18.1579075
  14.1143246  59.6587067  18.6137543  73.7658005  13.7046604  30.3656712
  74.2662125  13.1785898  29.7419109  72.9590378  13.2085648  30.5043945
   1.3392414  27.7350845   5.2063174   1.0904957  27.5329857   4.3043675
   1.8395948  26.9713287   5.4936433  69.0600662  14.2484312  28.9584732
  68.2911148  13.8274813  28.5740910  69.1870575  15.0394335  28.4346218
  17.2435493  57.5531654  84.3984833  16.8597450  56.7609329  84.0225906
  18.1278152  57.5872879  84.0335999  15.9146271  40.6076889  49.9538269
  15.2353821  40.9245758  50.5491753  15.6515160  39.7111969  49.7457275
  30.8713360   1.6251336  13.0988665  30.3691807   1.3493606  12.3320417
  30.8842525   2.5807691  13.0457067  25.9654350  65.4468994  70.2979355
  26.8957481  65.3310013  70.4911118  25.7525196  66.3095016  70.6540527
  74.6122665  47.8688545  83.7359695  75.0144043  47.0497093  84.0249634
  74.4627914  47.7446861  82.7987061  48.3124237   9.4664221   6.7958260
  48.2471657   9.0185900   5.9523692  47.8062477   8.9199286   7.3969603
  61.9530716  51.8168259  42.1842003  62.2107735  52.0280151  41.2868614
  62.1623535  52.6050720  42.6853027  77.2910004  35.1263199  66.8221970
  76.6038818  34.6907120  66.3178711  78.0905609  34.9749069  66.3182068
  24.6572819  40.6877518  77.2702866  23.7410889  40.9236107  77.4158707
  24.9490166  41.2778969  76.5754089  32.5299568  30.3266964   7.7474036
  33.3181801  30.2824841   8.2886839  31.9162636  29.7246857   8.1683483
  77.8515701  10.1047974  83.0771866  77.7982025  10.6334791  83.8733521
  78.6911163   9.6503963  83.1472321  62.6306801  56.3417511   8.1071243
  62.4697342  56.4798050   9.0405416  62.6088524  57.2203140   7.7278042
  47.7968674   4.6802754  73.4058914  47.2664223   5.4452367  73.6288147
  48.5715637   5.0429564  72.9763107  53.6750793  51.5222244  23.9000988
  53.3351402  52.4015121  24.0660114  54.1103439  51.2757721  24.7162113
  53.3943024  36.9935112  30.9118538  52.5983582  36.5950890  30.5597725
  53.3605995  37.9017258  30.6114464  67.5523300  12.2368593  74.0609589
  67.4104996  11.9798508  73.1498871  68.3767853  12.7229757  74.0471191
  48.0481949  15.8550711  75.8408508  47.6192436  16.4336872  76.4712753
  47.6336060  16.0636272  75.0036850  63.1469460  15.6397943  74.9566727
  63.7140923  14.9060707  75.1937866  62.3209686  15.2304859  74.6988678
   9.8487711  11.2639341  61.0612259   9.7078419  11.9448500  60.4034081
  10.1232376  10.4975643  60.5576630  63.8744659  53.2837067  79.0342407
  64.3508682  54.1085434  79.1286621  63.7545166  53.1831360  78.0899277
  31.2506943  42.5495186  74.9911728  31.1624775  41.6121445  75.1637344
  32.1657867  42.6604958  74.7332611  55.6002502  20.8566399  72.2177277
  55.5774193  21.3281822  73.0504074  56.3984375  20.3302078  72.2623978
  84.9564133  56.7187958  30.8201885  84.2331696  56.8662605  30.2107601
  85.1855698  55.7970581  30.7013855  22.4100685  47.9773293  82.4277039
  21.6321049  47.6454430  82.8758698  22.1063900  48.7607422  81.9691467
  36.8404808  54.1663284  81.4204025  37.7291489  54.4955330  81.2857590
  36.6714058  54.3073120  82.3519440  62.8672333   3.7967629  51.9295311
  62.4449997   4.5917406  51.6040115  63.7815781   3.8836372  51.6599808
  73.7373352  38.1162453  40.0919037  73.9914246  37.3733749  40.6394577
  73.6634521  37.7500191  39.2106247  44.4733009   0.7375991  30.0592060
  44.3163834   0.1521386  29.3183651  43.6738396   1.2598323  30.1252956
   1.2333524  19.2138214  11.4953890   0.3200031  18.9511223  11.3813133
   1.4625888  18.9083843  12.3731079  43.6993027  30.6206551   3.0981948
  44.3000946  30.1920376   3.7077582  43.2954063  31.3200512   3.6119533
  56.9164619  55.7180405  51.8270531  56.7460556  55.5041389  50.9097519
  57.8552780  55.5676422  51.9376488  83.1430969   0.7544239  49.4625511
  83.5687714   1.1634254  50.2160454  82.8617401  -0.1027252  49.7825012
   7.4929538  19.8617058  11.9347963   7.1107335  19.2989292  11.2614298
   7.0662799  19.5875416  12.7465935  44.2770729  52.6742401  31.8348103
  43.8102150  53.4994469  31.7032547  45.0810547  52.9238892  32.2903557
  82.5774536  40.2031021  77.1295700  82.5565643  40.0297012  76.1884384
  82.5312195  39.3366890  77.5338287   4.6944222  11.6799498   8.5405025
   5.2430801  11.7598028   9.3207788   4.8877459  10.8064442   8.2001400
  66.6028061  10.6993971  76.0185394  66.9671478  11.3486986  75.4169617
  67.3686218  10.2801886  76.4109955  72.8069458  12.2713480  33.2557030
  73.7073746  12.5840340  33.1679878  72.3172836  13.0343485  33.5627747
   9.7420321  35.9672165  67.2459030  10.1994143  35.9596519  66.4050827
   9.0552702  35.3072395  67.1509247  18.9949760  67.0378647  67.6399231
  19.6462994  67.5338440  68.1359177  18.5897923  66.4605560  68.2870483
  44.1714401  24.4363594   4.8166308  44.4034767  25.3597546   4.9152775
  44.7490883  23.9777451   5.4267335  79.3744354  14.5329199  18.3523617
  79.9908295  13.8996048  18.7200642  79.1399002  15.0952692  19.0905933
  72.4158630  34.3875618  24.7656784  72.0488510  34.3993912  23.8817139
  73.3635254  34.4031601  24.6317806  85.9952011  23.2749081   9.8207359
  86.2537842  24.1211529   9.4557238  85.1198502  23.4253902  10.1775932
  36.8945122  37.0475159  75.5259323  37.8349075  36.8731613  75.4873276
  36.7446785  37.3564491  76.4194336  23.3084297  22.7717838  55.8227119
  23.7007484  22.2707901  56.5377808  22.6245918  22.1988220  55.4758530
  70.6938477   5.0083995  10.7204361  71.3628845   5.6150818  11.0375452
  71.1339035   4.1587443  10.6945667   8.9368782  13.6648226  84.3862915
   8.0786152  14.0622606  84.5334625   9.5011568  14.3977346  84.1399918
  61.5852509  69.4596176  47.4843750  62.1979523  70.0196991  47.0077820
  60.7366104  69.8899384  47.3801155  17.9209042  30.7494488  74.2894363
  18.0228291  30.6578960  75.2367783  17.1848869  31.3524265  74.1848907
  22.3948040  49.9645424  32.7215195  22.8244305  50.8091774  32.5864334
  23.1003036  49.3778458  32.9940758   1.1501530  66.8507004  47.0882721
   0.4579098  67.3919296  46.7086639   1.9117329  67.0101700  46.5307808
  56.5783920  55.9536781  68.3788223  56.8539276  56.5994263  67.7281952
  56.0242310  56.4456024  68.9847488  19.4166603  53.0628662  47.6744118
  19.4294739  53.8558655  47.1384773  19.4203186  52.3454514  47.0407448
  46.7181282  20.1069832  61.2709808  46.2319145  19.2829990  61.2412796
  47.5207367  19.8944511  61.7472992  64.5235672  66.4451752  29.5222073
  64.8975296  67.2384491  29.9057426  63.8283768  66.7625580  28.9458313
  64.8799515  42.7803078  10.8439054  64.6937256  42.0574226  10.2447453
  65.5155487  42.4207802  11.4627609  40.3591728   8.7340746  38.3388748
  40.1489143   9.5003948  37.8052330  40.9769554   9.0601273  38.9932938
  26.5157337  45.3196640  16.7617149  27.0106602  45.4017105  15.9465160
  26.7345562  46.1100273  17.2553463  46.0726089  31.0502701  65.2633972
  46.1224327  31.5461674  64.4461823  45.4281998  31.5221138  65.7909698
  48.9903259   5.2343559  15.6684885  49.2277145   5.7762594  16.4209633
  48.0498810   5.3751707  15.5590906   0.5632539  60.7637177   7.6042867
   0.9447592  59.9189072   7.8429861   0.9667177  61.3877640   8.2076254
  48.8561707  61.5616493  85.4287338  49.6396751  61.5858459  84.8794022
  48.3868523  62.3673019  85.2121735  73.8283310  25.2729263  30.0225925
  73.4230042  26.1318607  30.1416340  73.6409302  24.8048134  30.8362141
  44.9387131  70.9158936  14.1710339  45.4661064  70.1183701  14.2162361
  44.7692299  71.1431046  15.0853014  13.0150318  55.3033752   2.6045341
  13.6555357  56.0090294   2.6941872  12.3138752  55.5376511   3.2125850
  16.7136211   1.4893923  39.4897881  16.0976467   2.2219489  39.5027275
  17.1859512   1.5589406  40.3194275  16.3221302   5.3137670   1.8536664
  16.0405445   5.4345965   0.9468356  17.2250900   5.6310644   1.8683769
  47.4108009  35.6331482  40.9633636  48.2829437  35.7163391  41.3489571
  46.9228859  36.3795242  41.3113518   4.4161992  15.1716967  75.2144547
   4.1744070  14.5497141  75.9006805   4.8417006  14.6361313  74.5448608
  78.8997116  52.6090317  76.0349655  78.2333298  52.3922462  75.3829117
  79.0857925  53.5364075  75.8880692  51.3877487   1.9253250  74.3443832
  50.6277275   2.1884735  74.8633728  52.1407738   2.1559689  74.8884354
  10.5985098  44.5708961  78.0691833  10.6559238  43.6286507  77.9107361
  11.2630396  44.9512939  77.4947891  65.2194595  57.3348503  58.7211571
  65.4113159  58.2407455  58.4787140  65.6668015  57.2110748  59.5582924
  71.3976364  69.2959671  71.3126450  72.1665802  69.8273544  71.1062927
  71.4558716  69.1467056  72.2563400  66.4590454  42.5017242  88.1718979
  66.5169983  42.9706421  89.0043640  65.6877747  41.9425583  88.2651596
  21.9477825  52.5289917  11.5361671  22.1998711  51.7789307  10.9975672
  21.9734535  52.1984711  12.4341269  57.8624077  44.3515587  43.2982979
  57.7224312  45.2935295  43.2016907  57.4431076  44.1311760  44.1300735
  41.7590332  69.0708160  78.2491531  41.7917480  70.0088501  78.0614014
  41.8285065  68.6522446  77.3911285  15.1366358  15.8587217  80.0698929
  15.3263645  16.6609058  79.5833435  14.2047844  15.9206276  80.2797852
  12.4036579   0.5395421   3.8749108  12.3614473   1.0040522   3.0390396
  13.1945934   0.0041369   3.8117123  61.2166023  68.1649475  35.7217140
  61.2417068  68.9041214  35.1140785  61.7186470  67.4776764  35.2837143
  51.9436874  64.6267776   2.3889599  51.8339043  63.7870140   1.9428927
  52.1653519  64.3921356   3.2900932  66.1144180  62.7285461  89.0481567
  66.1457062  62.0894852  88.3362198  66.4544296  63.5352325  88.6610107
   4.5531549  63.1853218  25.0621300   3.9202180  63.2803230  25.7738857
   5.1338754  63.9404716  25.1556435  79.3301010   2.6474991  34.2433510
  79.5901718   2.6726899  35.1641998  80.1545868   2.7012300  33.7600594
  49.1534538  29.9536381  74.1599579  48.5071030  30.2168961  73.5048523
  48.7717056  30.2238045  74.9951248  44.8839760  41.1207695  35.4383392
  44.8759842  40.3883171  34.8221588  44.3016319  40.8447266  36.1460915
  45.4678726  27.8412762  20.7770443  46.2215767  28.4312935  20.7834797
  44.8908539  28.1971760  20.1013069  32.6317139  63.7149734  71.0282822
  32.6214523  63.7249908  71.9853745  32.1399612  62.9285622  70.7917023
  57.0914040  19.7422142  47.1620369  56.5812836  19.3232574  47.8552055
  57.6561623  20.3631268  47.6222000  41.0200768  27.4480400  66.0959167
  41.0257301  27.4024658  65.1398163  40.1247940  27.7035427  66.3182297
   6.5447097  35.9709015  14.3313570   6.4077687  35.5896416  13.4641094
   5.7197380  35.8194351  14.7925644  55.6813431  63.5528831  49.0529289
  55.4451370  64.2438812  48.4340858  54.8487778  63.2846298  49.4416504
  85.5081253  64.5943451  75.5696259  85.0895844  65.0620193  76.2923508
  84.7823715  64.3237152  75.0072403   3.3199930  56.8525963  41.7099724
   3.8055723  57.6719742  41.8051758   3.9331527  56.2599449  41.2751961
   4.7622762  53.5241966  80.4524384   3.9886179  53.0134430  80.2140884
   5.4323912  53.2502480  79.8262405  62.7062225  20.8197365  30.9149609
  63.6253204  21.0361595  30.7579384  62.7340126  20.0988388  31.5440598
  59.0732765  61.4421120  43.7080307  58.2529945  61.8333435  43.4075241
  58.8370438  60.9774818  44.5108681  50.1353989  13.3422632  68.8310394
  49.7413483  14.1339207  69.1974182  49.4141159  12.7146282  68.7857056
  53.2575684  29.8578320  22.6987686  53.6456337  30.2328148  23.4893551
  52.3147354  29.9736061  22.8166637  70.7175064  44.7056847  21.9345131
  70.9243927  44.8189087  22.8622036  70.1707840  45.4607239  21.7171593
  59.9503403  48.0694046  54.2088966  59.9939842  47.2784805  54.7462654
  59.0210953  48.2986221  54.1950989  51.4119644  52.7399521  24.7494926
  50.5746117  52.5959282  24.3086586  51.6751900  51.8712692  25.0533638
  79.1589279  53.6138611  84.0530777  78.7976608  53.4528351  84.9247437
  78.9409561  52.8265114  83.5542755  61.5514565  17.8567829  44.9128990
  60.7156410  18.3113384  45.0178871  61.7844925  17.9930267  43.9945488
  14.3908119  35.5441704  87.9583359  13.6325493  35.3581581  87.4045639
  14.1022205  35.3195801  88.8429337  77.0382614  19.7602978  81.8329697
  76.5578003  19.0631447  81.3864670  76.7244034  19.7266903  82.7366257
  73.0210953  25.2872066  26.4550209  73.5275040  25.3501377  25.6451950
  73.3005981  26.0429993  26.9716339   8.7903013  14.8173990  81.4771957
   9.2167377  15.6652164  81.3523407   8.1562643  14.9691114  82.1780624
  65.6932602   4.7927165  41.6169815  65.4942932   5.0042715  40.7049026
  65.9815063   3.8802400  41.5938148   7.6472478  52.2102623  34.4725418
   6.9127860  51.8450775  33.9791451   8.4214287  51.9666710  33.9650574
  11.9713249  15.3557320  72.4064713  11.6204138  14.5250292  72.7274475
  12.8063335  15.4556360  72.8636551  84.1416245   5.3242383   3.2530365
  83.5379944   6.0592217   3.3610406  84.2656021   4.9839311   4.1390686
  53.2887077  39.7298050  38.3069420  52.8748055  39.4471893  39.1224480
  52.7191429  40.4250832  37.9776878   2.7778809  60.7268028  45.5158234
   2.1190834  60.7578087  44.8220978   2.4083738  61.2582970  46.2209587
  61.4129181  56.5264015  69.0067749  61.8425941  56.7893372  69.8207016
  60.5706902  56.1671677  69.2857666  79.1215057  38.9353142  70.9943542
  79.1450272  37.9862938  70.8717270  78.2156067  39.1790161  70.8041229
  35.1231270  65.2034302  48.9661293  35.6052551  66.0290146  49.0130005
  35.2913551  64.8776932  48.0819206  33.4135857  49.7295494  27.5581627
  33.1146851  50.0146141  28.4216614  34.0301094  49.0203285  27.7402020
  79.3856201  40.5051651  75.7344055  79.7138214  40.4254074  76.6300430
  79.4382858  39.6175194  75.3800888  23.5599022  41.2227859   6.3947020
  22.6438236  41.2844696   6.6653070  24.0576363  41.3688965   7.1991553
  58.8017235  17.8576870  66.9997482  58.6838455  18.2120323  67.8810959
  59.7076149  17.5488663  66.9849472  85.0749283  37.8444443  45.1969261
  85.7303238  38.1690712  45.8144341  84.4926605  37.3019753  45.7288284
  68.3819122  70.0573120  65.7009888  67.4578094  70.2996368  65.6414795
  68.8010483  70.8114014  66.1156006  63.6586113  70.3940582  70.9495163
  63.7002487  71.3436432  70.8363953  63.1172485  70.2692184  71.7289810
   3.8137972  67.3220596  26.8928471   3.0887496  66.9610138  26.3827667
   3.6905477  68.2701569  26.8464127   8.6346092  58.0008583  60.9622688
   7.9142208  58.4030342  61.4475784   8.8598328  58.6446533  60.2906761
  52.0358086  53.6840744  21.5441246  51.1724930  53.9389038  21.8696709
  52.4839592  54.5136108  21.3790073  77.4020691  30.9235725  58.4605980
  78.2358704  30.4536572  58.4741516  76.9983444  30.6711464  57.6302223
  79.0475082  17.5501957  68.1242218  79.2857742  16.8315678  68.7099152
  79.8442993  18.0759087  68.0536804  56.7124863  38.1736565   2.8066444
  56.7123489  37.2167549   2.8305125  56.9679184  38.4352722   3.6912599
  28.8078346  33.9436989  16.0665169  28.5796547  34.8380547  15.8129501
  28.9114513  33.9833488  17.0172653  20.7383804  26.2303352  69.4422455
  20.4666481  26.7222500  70.2171097  21.0464935  26.8986454  68.8301544
  60.4143181  67.2462387  55.8810081  60.8548203  66.4019394  55.9776497
  60.1619110  67.4880905  56.7720947  67.4210281  24.3870773  82.0588760
  67.9567642  23.7656174  82.5518417  67.8030090  25.2421780  82.2566833
  42.1597366  52.0508041  85.7142258  42.7165146  52.8131752  85.5560379
  42.7656364  51.3098602  85.7252045  15.0940914  51.3319359  31.0806656
  14.6138039  52.1583214  31.1320801  15.3303442  51.2492981  30.1567688
  69.5836563  30.2555790  40.1688118  70.2356644  29.7161236  40.6161385
  69.3786621  29.7701626  39.3696976  40.2581062   2.6060429  70.7420959
  39.3945045   2.9181347  70.4718781  40.0807686   1.7988231  71.2249832
  11.8006248  10.9618711  77.6894302  12.5344915  10.3717022  77.8608093
  11.2668343  10.4990330  77.0436096  67.7624817  38.4830017  62.7144241
  67.2843628  38.3361053  61.8982964  68.0396729  37.6093102  62.9902039
  31.3307514  22.0201283   6.9701357  32.2251320  22.0284710   7.3110809
  31.3342457  21.3314037   6.3053951  24.7875786  57.4951363  87.8951340
  24.7839355  56.9253044  88.6642303  24.9784679  58.3661118  88.2432632
  70.5316925  11.9856834  35.7361069  69.8036499  12.1353798  36.3392448
  70.1153564  11.8713598  34.8818092  47.4270554  42.0689278  20.8870907
  47.2167854  41.8050842  21.7828617  46.8688965  42.8292694  20.7240868
  35.5721664  67.6855621  12.2082052  34.9087448  68.3329773  11.9695387
  35.2416000  66.8611679  11.8513823  50.6901550  46.0473099  70.8618164
  49.9988708  46.5395241  70.4189987  51.4741745  46.2111244  70.3376846
   2.8163323  32.2749596   2.3832610   1.8882293  32.1120872   2.2149475
   2.8824646  33.2268143   2.4596231  57.0325699  35.5978966  72.4259262
  56.6562538  36.0671234  71.6813202  57.0573044  36.2461090  73.1298065
  57.2731323  28.6263428   7.3969865  57.5665054  28.9136448   6.5323339
  57.1326599  27.6843376   7.3014679  23.9334679  67.1459274  40.9054222
  24.3101654  67.2891312  40.0371933  24.3183670  67.8327942  41.4497643
  85.0741272  40.0282326  53.4836693  85.8050156  40.2905502  54.0433273
  84.2998428  40.3876152  53.9167633  14.6388435   9.1429186  31.8796883
  14.6405773   9.6187267  32.7102509  15.5611286   8.9481163  31.7133312
  50.8743515  70.9674835  65.8541107  51.1225853  71.7816391  66.2920074
  50.3105392  70.5188675  66.4842606  84.3389893  53.4637337  33.0044060
  83.5220490  53.9291916  33.1838074  84.9144287  53.7008591  33.7316399
  10.5813980  45.4886208  72.6405792  10.7846975  45.0688248  71.8047104
  10.1136036  44.8178101  73.1379852  71.1324844  24.7931938  18.2618904
  71.8239670  24.3353958  17.7838650  71.2061157  25.7037258  17.9759884
  30.3542252  43.7164230  57.0916977  31.1193848  43.7140846  56.5165863
  29.8403320  44.4708252  56.8035545  77.8484039  53.9622841  86.8307953
  77.9808884  54.7229347  87.3965607  78.0140533  53.2096977  87.3986053
  31.1171589   3.5074129  19.4763355  31.7725334   2.8113012  19.4300270
  30.2777824   3.0476532  19.4590321  34.4941139   1.3871506  54.8007011
  33.8952522   2.0211048  55.1952896  35.1436272   1.9226630  54.3450813
  78.9144745  33.6277390  44.3860016  79.1574020  34.4544830  43.9692116
  78.4101486  33.8873291  45.1570396  22.4356346  46.2459450  88.0688705
  22.0319901  45.4330177  87.7648010  23.2225227  45.9630089  88.5346909
  13.8228998  33.9025421  80.1326447  13.1538849  34.1857758  79.5094070
  14.6219959  33.8316345  79.6104889  44.0769081  67.1715851  29.1647015
  43.8713570  66.2428818  29.2719116  43.3371964  67.5251389  28.6706696
  53.8864441  12.8717785  18.6317749  53.3578796  13.6654596  18.7149982
  53.9899788  12.7508450  17.6879082  34.0519028  31.5611496  44.0227814
  34.3094215  30.7194328  44.3988533  34.3692131  31.5273991  43.1203384
  62.8853798  68.9597397  55.6201859  62.0147514  68.6379242  55.8540115
  63.1908760  69.4155350  56.4045029  60.3283691  39.6603279  48.5241547
  60.1438713  39.3499413  47.6376724  61.2683029  39.5186272  48.6367645
  84.1862564  28.1464520  46.5841217  84.6686935  28.0703888  45.7608986
  84.0112686  27.2418766  46.8436432   9.6007490  44.4426117  64.1465530
  10.2829580  44.2474709  64.7890015  10.0249081  45.0247269  63.5161018
   7.1595092  24.5447617  16.3246002   7.3890567  24.6973724  15.4079475
   7.2703028  25.3977947  16.7444706  66.6433792  67.3391876  17.8448582
  66.3702545  66.4305267  17.7185078  67.0648651  67.5795364  17.0197430
   4.9774265  35.0762634  75.6070862   4.4049969  35.4790039  74.9541321
   5.6918931  34.6950760  75.0967331  61.5588074   9.8273335  77.8764725
  61.9350243  10.0788841  77.0330200  61.6020470   8.8711290  77.8823929
  10.8836298   0.7511649  51.1014977  11.4508429   1.1720649  50.4554749
  10.0793657   0.5536299  50.6215286  16.9981403  13.8590040  14.1919355
  16.9076824  13.5602045  15.0967932  17.9384556  13.9972391  14.0782194
  72.1271133  43.4280243  57.4202995  71.4096756  44.0012665  57.1502953
  71.7094879  42.5823708  57.5836868   7.7621017  47.6452370  32.3814888
   7.8392954  47.0444069  33.1226196   7.2895899  47.1451836  31.7159729
  45.1969719  21.5160465   1.0257049  45.6728096  20.8327160   0.5536132
  44.6982422  21.0437050   1.6923357   4.9332356  22.5938568  85.1896896
   5.7044573  22.5464001  84.6247177   4.6191068  23.4926624  85.0911789
  79.9730606  26.7161160  49.4845581  79.7384567  26.5176277  50.3910866
  80.5380325  27.4863110  49.5465050  45.7070618  64.3513107  27.5571880
  45.9853058  64.9248428  28.2712440  45.0041962  63.8224869  27.9347572
  12.7317247  10.3853426  66.0952606  11.9108658   9.9658108  65.8375473
  13.3101101  10.2625332  65.3425217  28.8485222  70.6525040  20.2099724
  28.9962215  70.1653442  21.0205822  28.5156040  69.9988937  19.5949993
   2.6221607  40.1385269  26.2400723   3.3774662  39.7864189  25.7691536
   2.9616594  40.9090843  26.6952763  55.2582054  69.1334152  72.8079147
  55.9388618  68.7103119  72.2845459  55.7383080  69.6095276  73.4854507
  83.2607117  52.7976799  78.7857971  82.7550354  52.8031998  79.5985031
  83.0912018  51.9364090  78.4040756  67.1089325  47.3588524  34.0966606
  66.7049789  46.5045509  33.9442558  67.9791946  47.2856064  33.7048607
  79.3687668  18.9306183  39.8734474  80.2299576  19.0335407  40.2783966
  79.5414963  18.9602203  38.9324265  54.9933548  63.2562675  22.5963459
  54.3389282  62.8948784  21.9985542  54.5963783  63.1750336  23.4635506
  17.6816368  39.2101898  16.0246277  17.7854080  39.2965965  16.9722557
  16.7649460  39.4331398  15.8627510  21.7623100  49.0478935  60.1899948
  20.8580856  49.0966988  59.8797913  21.9692535  48.1133957  60.1788025
  71.2189713  57.9533844   1.1375256  72.1318283  58.1542778   1.3438642
  70.7260818  58.2777252   1.8912423  76.5995560  27.8562717  10.3921309
  76.1824570  27.9979305   9.5423107  77.0086136  28.6960487  10.6011209
  55.1197052  66.7928085  54.0110092  54.1690369  66.6812668  54.0062523
  55.4567719  65.9925613  53.6082344  26.2651978  20.5420647  48.7970924
  26.4784203  19.6211681  48.6463623  25.5780811  20.5228920  49.4632263
  52.5246964   7.7055950  37.7876511  52.8222084   8.3710775  37.1672859
  53.3271942   7.2698703  38.0746536  37.2064133   4.5812016  86.3807297
  36.2571945   4.6779437  86.3042221  37.3594131   3.6406922  86.2898178
  33.2642593  11.3962011  64.0954590  32.9096832  12.2547579  64.3265152
  33.1736031  11.3478441  63.1437874  79.4782639  71.1031799  74.1077423
  79.6893005  70.4139786  74.7375793  78.6277542  71.4365997  74.3935623
  16.2528172  57.3991394  36.6723175  16.7131710  57.6385078  37.4766846
  16.3788357  56.4532967  36.5966415  27.0184784  19.6253986  85.5921326
  27.6339035  18.9024372  85.7138290  27.5470982  20.3291874  85.2160034
  85.6140289  68.3143158  10.1176319  86.1638031  67.5807800   9.8421125
  85.7139587  68.9633331   9.4212008  85.2698822  33.8964348  51.0825691
  84.6078262  34.1872826  50.4554100  85.1813507  34.4990005  51.8210182
   8.1912155  70.3311844  79.5949020   7.5551262  70.9967499  79.8569031
   8.9725065  70.5303268  80.1108093  70.8956680  23.4669876  42.6331711
  70.8400879  24.3233376  42.2091370  71.0163269  23.6667671  43.5614815
  86.4726944  16.8059196  10.2733383  85.8742294  17.0602493  10.9757528
  85.9629517  16.9201984   9.4712591  23.4703865   8.9505835  20.2390614
  22.9717541   9.6704502  20.6255703  23.7098541   8.3983660  20.9833355
  38.5967178   5.5683513  74.4670029  37.7417374   5.7336845  74.8643723
  38.3981056   5.3326464  73.5607834  59.6814575  25.1732731  36.7977333
  59.1677971  24.5166073  36.3274422  60.3315201  24.6658573  37.2837143
  11.5554781   4.2981491  38.0718346  10.9917412   4.6701713  37.3935776
  11.6374111   3.3743279  37.8350334  33.5341949   7.9419656  32.8712616
  33.6084557   8.8700867  33.0933189  33.8885727   7.4842110  33.6335678
  52.8627281  61.6144676   1.0366014  53.2063789  62.1911011   0.3542317
  51.9190559  61.5914879   0.8779122  30.1450119  45.1937294  79.7990875
  29.3811378  45.5501709  79.3455734  30.8712673  45.3339157  79.1915207
  62.1192055  51.0607796   0.5044744  62.6130638  51.7590714   0.0746819
  62.2292900  50.3019524  -0.0684941  72.8359146  32.8731308  68.4185562
  73.4131317  33.2025070  69.1074448  73.1976624  32.0162811  68.1923370
  13.1187716  39.1293030  70.1451263  12.4151106  38.7973404  69.5875473
  13.9196272  38.7819786  69.7524033  74.2398987  50.6564369   5.8947024
  73.5937729  50.1828842   6.4186306  73.7181473  51.1727600   5.2803597
  55.7091331  46.3440399   3.3974400  55.5064545  46.7510147   2.5551081
  55.6681023  45.4033928   3.2250068   5.3821497  44.4887924  42.8563347
   5.5425668  44.8974037  43.7069435   4.6868482  43.8525391  43.0235748
  14.4608984  41.6216011  73.6829224  15.3982878  41.4570312  73.7851562
  14.1794186  41.9433937  74.5393372  76.4185638  56.6989670  84.8079834
  76.5966034  55.8400154  84.4249191  75.5827332  56.5903053  85.2616425
  70.6117630  65.0027008   8.1541510  69.9991455  65.5840683   8.6046410
  71.4631424  65.4288483   8.2530813  61.5363235  43.0140572  88.5491028
  61.1135979  43.7785225  88.1577835  62.3520737  43.3536491  88.9171524
  80.6518326  31.0149155  67.3743057  81.0579910  31.8646755  67.5451126
  79.7858276  31.2288227  67.0271530   3.8031640  18.6312389  51.8131485
   4.6606827  19.0174503  51.6350060   3.3227477  18.7248859  50.9905548
   2.5531745  10.0171976  72.0373154   2.1262443   9.2062607  72.3136215
   3.4586413   9.9241114  72.3334579   8.4750090  29.0330257  81.9831314
   9.2711906  29.5638027  81.9586182   8.2782097  28.9393463  82.9151917
  25.9194603  37.6035919  59.5353394  25.2212791  37.3507004  60.1393433
  25.9716015  38.5560570  59.6148300  86.3770447  56.3453178   6.0852118
  86.0491486  55.4859085   6.3500457  87.0226288  56.5720406   6.7545714
  56.8959274  53.9946899  16.2870312  56.0316048  54.3809891  16.1457691
  56.8402786  53.1288528  15.8827295  35.7714653  20.4725704   4.2830381
  36.5137672  20.9125347   4.6973481  35.0503998  21.0976334   4.3578186
  81.9381561  37.4211807  44.8733139  82.5529175  37.6704140  44.1832542
  81.2384949  36.9563599  44.4143486   0.5267270  24.1163692  52.2879562
  -0.2153080  24.6783600  52.0648346   1.0980288  24.1582947  51.5210876
  57.8231468  23.6257896  66.3382950  57.2541237  23.0622311  66.8625488
  58.0200615  23.1077576  65.5578461  31.4350796  43.3097916  64.2730408
  31.6655369  43.9610443  64.9356003  30.5717525  42.9930229  64.5386658
  67.4059677  71.2136078   9.2300711  67.1642151  71.8036575   9.9439554
  68.2573700  71.5340958   8.9323530  15.9449978  51.2877998   2.6213849
  15.0806799  51.2533379   3.0312605  16.4109249  51.9719582   3.1020851
  46.8744240  25.9852409  36.6682587  46.5025063  25.7958755  35.8068390
  47.3612823  25.1938267  36.8981781  73.9761810  36.8950768  78.4105377
  74.6013870  36.5887146  77.7536621  73.5149765  37.6171722  77.9838028
  59.3466263  26.4474831  77.4974747  60.2013779  26.7037907  77.8437958
  58.8066750  26.3035870  78.2746353  25.8026676  56.0932884  80.0437317
  26.5734863  56.6515617  79.9417267  25.9218979  55.6736832  80.8957596
  20.7404518  48.7639008  10.5654545  21.2435875  47.9904175  10.3108759
  19.9605503  48.4118042  10.9944210  79.0172501  25.7274456  13.8704004
  79.2568283  24.8545227  14.1815844  78.0898819  25.8142262  14.0910826
  79.2683029  41.3330460  48.3294525  78.8235474  40.4962959  48.1942558
  80.1756592  41.1659508  48.0744820  72.6038284  56.2149544  61.7560349
  72.7248001  55.2807846  61.5859642  73.4053497  56.6236534  61.4292984
   6.6923828  61.0962715  49.0672798   7.5180364  61.0331383  49.5474281
   6.3111382  61.9259720  49.3544769  17.4944992  27.0530720  13.9225483
  17.6739902  27.9195595  13.5575638  17.1286507  26.5560646  13.1908569
  32.6580276   2.0279539  60.5289383  32.2198219   1.5181587  61.2103462
  32.3237343   2.9175889  60.6430893  51.6485519  69.2170639  38.0785065
  51.6063004  68.2807083  37.8843956  50.9294052  69.5987167  37.5751152
  62.9141350   5.1831584   0.9435722  63.3297005   4.4616017   1.4156871
  61.9778633   4.9882855   0.9842595  27.2862892  51.3690643  44.3480453
  27.3878212  50.8504601  45.1461525  26.7649879  52.1249962  44.6183090
  69.3405762  48.6909218  47.4699593  70.2807999  48.7883759  47.6206741
  69.2275162  48.8722153  46.5369072  74.6413956  65.0940857  68.7403259
  74.7809753  64.6115646  69.5551376  75.4251709  64.9173431  68.2200394
  42.5261993  54.7624741  30.9711781  42.2438583  55.0784874  30.1128960
  42.6195831  55.5552101  31.4994583  34.5638504  26.9451351  87.4860992
  33.6839447  27.3099213  87.3916092  35.0506439  27.6151676  87.9660110
  11.7693748  46.8072205  55.4572678  11.0195608  47.3743668  55.2773819
  12.1269560  46.6017647  54.5934639  17.5799484  59.3881416  20.3808861
  18.0684261  60.1473503  20.6990433  17.3304291  59.6214256  19.4867115
  75.1707153  43.6223450  71.3550797  75.3554230  42.8690948  70.7940750
  75.4394455  44.3798027  70.8352051  59.9778976  54.3023415  66.5634842
  59.6843491  54.7225189  67.3718872  59.5560112  53.4431877  66.5732498
  73.4313583  33.8013191  42.5953445  73.6535110  34.5519257  42.0444641
  73.2110138  33.1061020  41.9753838  58.2260132  58.2334213  70.6200714
  58.8246193  58.1426125  71.3614655  57.6685486  57.4566498  70.6658020
  50.0354233  23.2148781  18.9483490  50.8204956  23.7510509  18.8369370
  49.3596802  23.6728516  18.4484825  22.3494720   2.6785567  72.0177765
  23.0888939   2.6088603  71.4139252  22.4794102   3.5176289  72.4597092
  15.0787497  70.1078568  11.9092569  15.9406300  70.0773163  11.4939728
  14.4613562  70.1322174  11.1781864  75.4432983  27.8657513   8.0131197
  74.5780182  28.0097885   7.6300192  76.0023575  27.6484528   7.2671509
   6.9388599   7.7446737  84.2399368   7.8699765   7.8535619  84.0465546
   6.5373011   8.5651770  83.9540100  23.2034245   2.2291870  77.1810226
  22.5286465   2.8665433  77.4148636  22.8335133   1.3841218  77.4364929
  53.2117691  33.4545937  75.5782928  53.3040428  32.6965599  75.0011444
  53.8446503  33.3001175  76.2796021  61.2648468  30.3183002  73.3342361
  61.4098358  30.6834259  72.4613724  60.5417938  30.8333416  73.6922302
  20.1711102  53.8446426   9.9407282  20.8286304  53.2839241  10.3524265
  19.6812153  54.2172775  10.6737871  38.9119225  50.2781410  48.9562454
  39.5240059  51.0016632  49.0907822  38.9796829  50.0775299  48.0227585
  60.6255760  36.8207207  28.2881660  60.1138191  36.5341072  27.5317345
  60.1961555  36.4087067  29.0378819  42.2762794  34.6792259   3.1152248
  42.8358727  35.3641052   3.4813251  42.6235733  34.5308762   2.2356739
   4.7172122  26.9894600  22.4463997   4.0130658  26.3998051  22.1767426
   4.2703805  27.7995872  22.6918926   3.2034597  17.2377663  84.6832428
   2.2964592  17.3771534  84.9555511   3.3132579  16.2869415  84.6937408
  35.2992706  21.9655533  72.0545120  35.3438606  21.3527832  71.3205109
  36.0734787  21.7657127  72.5807266  62.3301468  23.6217651  42.8162346
  61.7335052  22.9115868  42.5798149  63.1804085  23.3435974  42.4757767
  67.3912811  61.8657875  48.2241020  66.7826920  61.1429749  48.0711403
  67.3639908  62.3770905  47.4153671  59.5420647  62.5628624  64.8575134
  59.9454536  61.9093361  65.4288406  58.9191780  62.0657082  64.3273468
   2.5537467  55.8446350  32.4786148   3.3934250  56.1430817  32.1291847
   2.2725661  55.1586494  31.8731480  69.7754211  33.8194923   6.8942862
  69.8328781  32.9963226   7.3793802  70.3059006  33.6734581   6.1110282
  83.0164261  25.8067188   5.2051783  82.9411469  26.3699017   5.9754963
  83.6414185  25.1294250   5.4638076  39.5624733  53.2319908  70.9059753
  39.1708527  53.9493866  71.4041824  39.1123543  52.4480743  71.2207870
   4.0653458  47.7177467  33.1862717   3.3758333  47.9168587  33.8196449
   3.6360905  47.1697197  32.5292816  60.4431534  37.3904915  18.0655327
  60.8619270  37.0674782  17.2677059  60.6192665  36.7138557  18.7192764
  33.2138176  64.7878876  64.8139572  32.8828964  64.7784348  65.7120819
  32.9594498  65.6457672  64.4739914  80.3846130  45.5655212  13.4124851
  80.3236313  46.4602509  13.7471066  81.1416092  45.5799103  12.8268394
   3.7725470  35.7230911  15.3474255   3.5303893  36.1218567  14.5116158
   3.6215324  36.4122849  15.9942913  20.7882423  62.7437515  61.8136253
  20.3387909  62.5865326  62.6439896  20.7874355  63.6961021  61.7174110
  62.6679344  34.5453300  29.3222618  63.0689163  35.4138565  29.3554802
  61.9097519  34.6091919  29.9030476  85.8343353  47.7543869  64.9234772
  85.2987442  46.9950981  64.6935730  86.3733673  47.9108658  64.1481094
  56.5750961  60.5057297  36.5917206  56.8440323  60.4867744  37.5101662
  55.9193077  61.2016525  36.5484924  41.3756065   0.6457660  61.6881180
  41.3269691  -0.2153577  61.2729874  42.2235909   0.6500643  62.1321144
  22.9499588  29.0935898  58.9977989  22.1220608  28.7665424  58.6458664
  22.6941509  29.7842216  59.6092072  45.8781013  63.7991104  85.8235016
  45.7439232  63.2750702  85.0338135  45.0541611  63.7225266  86.3046341
  64.9845123  14.7149391  88.6272812  64.2015686  14.2375450  88.9017334
  64.6472778  15.4902811  88.1785583  49.4544373  44.7596283  73.1480942
  50.3004417  45.1112022  72.8707809  48.8944092  44.8467064  72.3767242
  49.4658241  62.4419441  62.6001244  48.8788033  62.9311409  62.0236473
  48.9704895  61.6578178  62.8368073  55.3892365  16.6603184  44.9436684
  55.7954407  17.3974552  44.4877510  55.8522491  15.8901901  44.6138878
  56.8067932   3.2113318   2.1509733  57.4414749   3.6783545   2.6943851
  56.0172997   3.1658242   2.6902909  48.5852394  53.3645477   4.7003708
  48.6596947  52.8401031   5.4976454  47.6565208  53.3231697   4.4723310
  81.9044266  15.8683739  68.2714615  82.4089661  15.1148653  67.9650345
  81.5031128  15.5717516  69.0882797  14.2680769   6.7183156  76.8328323
  13.3382120   6.8239632  76.6317749  14.2850676   6.1212516  77.5807953
  61.4951744   1.4379733  71.7819366  61.5562935   2.3898747  71.8618088
  62.0702095   1.1024965  72.4697037  68.7941818  60.9056740  26.1425400
  69.4657135  60.4740677  25.6143360  68.3366928  61.4783936  25.5269680
  82.6380234  56.1768265  23.8163834  83.1151886  55.5400963  24.3484726
  83.3211594  56.7177124  23.4201508   9.2481432   9.8538704  22.2388744
   9.7852573   9.1689148  21.8406582   9.5809669   9.9296589  23.1331425
  57.5632629  10.5978346  24.6743412  58.0037842   9.7481527  24.6889439
  58.1421661  11.1589212  24.1583138  63.8024635  41.4574814  73.3374557
  63.0418396  40.8925285  73.2014160  64.4726410  41.1014709  72.7540665
  22.9398346   0.3110770  43.9615135  23.3585644  -0.0689365  44.7338371
  23.6614704   0.4763981  43.3547630  40.4738770  56.9123268  48.3200226
  40.9753723  57.6066360  48.7474174  41.1271629  56.4100418  47.8330307
  64.2888794  12.0353107  59.0134354  64.6845551  11.6936750  59.8152847
  64.5388489  12.9591627  58.9977913  42.7174339   3.1335120  10.8080254
  43.0379715   2.6143951  11.5455933  43.4139633   3.0759630  10.1539860
  41.6188011  50.8981705  61.8508987  42.4935188  50.6226120  62.1250687
  41.1699066  50.0828362  61.6274033  22.1447601   8.2106218  69.8812866
  22.9381351   8.2555695  70.4149246  21.7412758   9.0731211  69.9788971
  49.7286758  46.9598274  50.3854408  50.0114212  46.0714684  50.6024895
  49.3279533  46.8788948  49.5199356  37.8156662  18.6864395   6.1475501
  37.0004005  18.1869545   6.1932526  37.7970238  19.0967560   5.2829552
  76.1129608  12.2711563  10.5468578  76.2859879  11.4316034  10.9728193
  76.0790176  12.0634661   9.6130781  48.7955322  52.0602798  43.5871048
  48.3653717  52.6319962  44.2229767  48.3979301  52.2932358  42.7481308
  33.8816223   0.5414653  46.9685745  34.6370468   0.7298136  47.5254288
  34.2562103   0.1401484  46.1844444  81.3668060  20.1409664   0.6784616
  81.8400192  20.8451328   1.1216898  81.9159470  19.9198055  -0.0737143
  49.5124779  59.7909393   2.6570349  49.7717285  60.5469589   3.1837742
  48.7195816  59.4636421   3.0818009  13.1943789   3.0316656  68.8839798
  12.5448895   3.7228923  69.0128326  13.9741936   3.3476532  69.3403549
  16.1998940   5.2931185  50.7363625  17.0989819   5.2907586  51.0647926
  15.8232746   6.1052814  51.0751572  66.9623642  62.1374817  33.1361275
  66.2318726  62.6541748  33.4761963  66.5622864  61.3161430  32.8505096
   1.2436707  36.4432678  24.5266685   1.5259969  36.1015282  25.3750401
   1.8080167  36.0028648  23.8912220  62.1714592  46.4436035  22.2758961
  61.9598122  45.5107498  22.2410126  61.9188385  46.7788506  21.4156475
   4.3760328   7.7260237  20.7133579   4.4964943   6.7774410  20.7570877
   5.1255608   8.0847969  21.1884594  70.3786316  18.8672466  86.8813324
  70.2578201  19.8167896  86.8834381  70.1087494  18.5934086  86.0047455
  78.7241974  22.6626568  78.3916016  78.9915009  22.7885284  77.4811401
  78.6773529  21.7125759  78.4983063  12.7432690  42.6142921  38.1062469
  12.9520674  43.1758652  38.8527527  12.0868053  42.0038834  38.4419403
  50.4100304  17.7647285  10.4565134  50.0842896  17.7751312  11.3565226
  51.2783775  18.1637115  10.5114498  83.8193283  34.6273041  29.2203331
  83.6391525  35.3877678  29.7730179  84.7647629  34.4967232  29.2934036
  70.2138672  49.2745819  16.9034443  69.5564804  49.1672325  16.2160206
  71.0285034  48.9670181  16.5059433  21.4188042  34.0873375  72.5985565
  21.6376324  33.2558403  72.1778946  20.6943703  33.8747253  73.1869583
  32.9412575  13.3734121  70.4932022  33.2139931  13.8099012  69.6861572
  33.5249138  13.7257614  71.1650848  65.7103577  45.0364571  81.6521912
  65.8373795  44.6850624  80.7709351  65.1885376  45.8281898  81.5214386
  58.1582260  60.3815193  19.2347736  57.7564774  60.8074150  19.9920349
  57.8964157  59.4638367  19.3092442  51.3190804  62.3009186  83.7304993
  50.7276993  63.0383568  83.5798874  52.0992165  62.6953049  84.1204758
  56.5084763  19.4300537  85.3090973  56.5720100  18.5059109  85.0679474
  56.2856560  19.8760395  84.4919815  68.9623795  61.9047585  80.3333054
  68.6105804  61.1341591  80.7790070  69.5388565  61.5481911  79.6574554
  83.5570679  44.5557899  76.6411667  83.6861954  43.8488998  76.0088196
  84.2169189  44.3968620  77.3161240  75.5423279  39.8979607  79.0300140
  74.8949356  39.9394341  78.3261719  76.3438721  39.5986938  78.6008453
  84.5447617  41.1960449  21.7467194  83.6254883  40.9345093  21.7993603
  85.0014038  40.5836525  22.3235054  85.7277451   1.9328325  68.6649933
  86.4478836   1.4108399  69.0187683  85.6573105   1.6557460  67.7514877
  48.7898636   0.9387750  48.1546593  48.3297729   1.4094752  47.4596825
  49.4112434   1.5768533  48.5053368   2.0580006  16.0028133  55.2184410
   2.0341852  16.8764629  54.8280563   2.9855511  15.8438711  55.3934250
  23.4725285  70.6393280  75.4435730  24.3957424  70.8122864  75.6279449
  23.0948715  70.4213333  76.2956772  58.2450142  35.4175720  35.3337784
  58.3568268  34.9131012  36.1395340  59.1374321  35.6051407  35.0428467
  44.3444290  46.4188347  85.7871170  44.5048370  45.5298767  85.4704971
  45.2115173  46.8233414  85.8147812   4.6913562  51.6274681  77.1884003
   4.7400527  51.5743523  76.2339172   3.7538283  51.6185760  77.3812561
  63.3427658   0.5824726  86.3635178  63.7702255   0.3721038  85.5333023
  64.0649872   0.7443471  86.9705048  82.2318726  18.5830383  55.2515106
  83.1492233  18.8503017  55.1943550  81.7954025  19.3161526  55.6854095
  54.0919456  57.7219009  69.1829300  53.8613167  58.5686493  68.8007584
  53.8089294  57.7857628  70.0951004   6.5632687  43.5489655  85.1288071
   5.9888334  43.8401413  84.4206619   6.0489526  42.8936882  85.6003189
  13.8002272  22.9936600   4.3973889  13.0385294  23.5295582   4.1763377
  14.0581532  22.5905190   3.5684242  34.0059662  28.5848389  18.3979664
  34.8742714  28.4052734  18.7585754  34.1600227  28.7327003  17.4648876
   7.8114991  30.7108383  18.3516102   8.5140018  30.1025085  18.5810852
   8.1108551  31.1288357  17.5442085  55.8049164  67.6294022  16.7393932
  55.6496048  67.0029449  17.4462643  56.6630173  67.3886261  16.3902187
  28.8643360  56.3407402  50.9879799  29.5883007  56.2782173  51.6110306
  28.2296600  56.9159737  51.4152069  57.4546928   5.3721490  87.9519348
  56.8420143   5.1111388  88.6394882  57.1103516   6.2042708  87.6275406
  83.3608704   0.4431206  54.2046623  82.8294373   0.9713495  54.8003006
  82.7231140  -0.0215586  53.6628418  48.0253181  67.3979568  54.0909271
  48.1906204  67.2672043  55.0246353  48.3157959  68.2937469  53.9194069
  17.9671497   4.2977729  61.5868034  17.3739128   3.6571794  61.9791565
  18.6003284   4.4924822  62.2777481  83.9547882   4.4963288  51.5469131
  84.6856689   5.1117110  51.6047325  83.2304382   4.9429011  51.9852295
   3.7488644  36.1179848  73.4386444   4.2185555  36.6560135  72.8013458
   2.9728520  35.8126907  72.9687195   8.6004658   1.7302836  73.4394608
   9.0112600   2.5923049  73.3731308   8.7623959   1.3217303  72.5891113
  86.2961121  28.3412685  80.5389404  85.4084167  28.4260502  80.1910324
  86.8485336  28.7875671  79.8971634  79.7967606  70.3758240  59.8592796
  80.2959824  69.8064499  59.2737656  79.2192383  70.8702164  59.2776680
  62.0772667  24.1481209  34.1491547  62.4017525  23.7412071  34.9524994
  62.3847847  25.0532608  34.1980324  74.9749603  46.4307747  15.0598850
  75.2229156  46.8287964  15.8943481  74.9887009  47.1558990  14.4351921
  25.7148781   9.0706434  64.7552719  26.4548073   9.3293657  64.2059097
  25.8481808   9.5453596  65.5756989  53.9575043  42.2677994   1.3548137
  54.5113792  42.3590622   0.5794914  54.5498352  42.4187126   2.0914266
  46.5743332  66.3696289  81.6747437  45.6623802  66.1460266  81.4888000
  46.7589149  67.1161270  81.1047363   5.2161646   0.4077451  82.7817764
   5.0224552   0.0489556  83.6477890   5.2828074  -0.3599232  82.2139053
  63.8471642   9.5140162  80.8878403  62.9509888   9.1866522  80.9648972
  64.1096191   9.2859459  79.9960251  11.2067699  50.4143295  56.4138412
  10.7895641  51.2757607  56.4036140  12.1272593  50.5917015  56.2202721
  79.4353867  32.6008492   3.1321557  79.0860138  32.7440796   2.2525797
  80.2540741  33.0965462   3.1483345  38.3148155  47.5538177  27.1040134
  37.7536964  46.7793808  27.1443348  39.2031021  47.2029266  27.0403519
  54.3511124  28.7181072   6.5838475  54.6309128  28.9709263   5.7040596
  54.9738045  29.1519794   7.1671486  49.7023087  66.1561356  70.5381699
  49.0047874  65.9619446  69.9120789  49.5072594  67.0408096  70.8472595
  44.8252220   4.8915105  40.9405708  44.6013756   5.5271521  40.2608032
  45.6914902   5.1616902  41.2452164  84.8265533  42.6298065  34.4726067
  85.0398483  43.5479622  34.6391220  85.0335083  42.1831512  35.2935219
  84.0167618  10.9731245  68.6435013  83.4456024  11.0264397  69.4097748
  84.8495560  10.6501341  68.9875336  86.3371353  59.8599548  83.4958344
  85.8313599  59.8862419  84.3080673  87.1716461  59.4634438  83.7460480
  56.6968536  18.3935184   4.0525484  57.1403236  17.6340046   4.4303117
  56.3392677  18.0744591   3.2239544  42.6277885  17.9820099  71.6576309
  42.1920471  17.6870251  72.4572144  42.8156166  17.1763821  71.1760483
  78.2086487  31.0301476  14.4256086  78.2900696  31.9545898  14.1910677
  79.1082993  30.7421246  14.5801888  70.9344559  56.8759232  56.2830124
  70.5278854  56.9392586  57.1472588  71.5796280  56.1745300  56.3726463
  12.9669876  65.3410645  31.1405773  13.7689686  64.8744507  30.9053516
  12.6626549  65.7240829  30.3178329  77.3641052  18.6362839  86.1570740
  77.0697784  17.9963799  86.8052521  78.3186569  18.5658188  86.1672516
  49.1881523  17.8148727   6.6740408  49.4737701  18.7094955   6.8592658
  49.9519272  17.3971710   6.2760386  70.8560486  33.9812355  40.3461800
  69.9864960  33.8798866  39.9590874  71.2673035  33.1235352  40.2391701
   2.0313904  35.8383865  27.1462154   2.9331281  36.0477295  27.3896828
   1.5201108  36.0316925  27.9320011  70.6082764  47.7929764  78.3854675
  70.3938980  47.3216476  79.1905289  71.0849457  47.1551704  77.8542175
   8.1679840  14.1039677  19.4136772   8.7697344  14.5328121  20.0221348
   7.6980686  13.4662914  19.9510593  14.3650684  47.4952240  25.6553612
  14.5383663  46.9117012  26.3940773  13.4237356  47.6633072  25.6986141
  68.1285629  38.6210251  43.2541084  68.4083939  37.7260284  43.0620003
  68.2409286  39.0898170  42.4271622  33.9698753  11.0752239  35.7743950
  34.4879417  11.8672094  35.9179230  33.3340797  11.3232765  35.1032333
  17.8267555   2.4716392  81.6733856  17.4897690   2.5227740  80.7789230
  17.5831642   3.3083835  82.0693054  73.2595062  42.2156830  13.5683117
  73.0908203  42.6779137  12.7472630  73.9821625  42.6976624  13.9704151
   3.9048312   7.5729775  33.9090309   4.7367339   7.1771622  33.6492233
   3.9241550   8.4476709  33.5207405  75.8863983  53.7726250  84.8090286
  76.6413956  53.3781853  85.2456512  75.2446060  53.8989563  85.5078659
  15.3199348  57.6479912  57.1958618  15.4086714  58.4450150  56.6732597
  16.2099075  57.3007965  57.2561569  56.6891327  21.9959431  50.0240898
  56.7743721  22.5920143  50.7681808  55.8162308  21.6152840  50.1209145
  81.2049179  32.8377876  60.5505409  81.3175735  33.5927849  61.1280479
  80.3148270  32.9274063  60.2100334  55.3090820  24.7157841  62.4492950
  55.4804802  25.4307461  63.0622253  55.8418846  24.9250793  61.6821251
  28.8299103  59.6129837   3.8434310  29.7079010  59.8914490   3.5830054
  28.8452187  58.6598854   3.7562542   3.7661171  61.0685654  30.2730770
   4.4605312  60.4237442  30.4080811   4.1126480  61.8765488  30.6516457
  63.1615295  57.2339935  60.7485733  63.5652199  57.1286545  59.8870811
  63.6108932  56.5963020  61.3032341   2.2649007  12.8954401  70.0233917
   2.0383470  12.4261694  70.8263168   1.8750727  13.7625551  70.1346512
  16.9453697  14.4545383  81.6042175  16.1299095  14.8686752  81.3218231
  17.6340847  14.9755459  81.1913605  24.6728611  57.0519447  55.9735222
  24.0979137  56.5459633  55.3993645  25.4909401  56.5552940  55.9912910
  66.6663361  33.2141571  74.7515793  66.2757187  32.4420700  75.1608810
  66.6267319  33.0332832  73.8124619  45.7564316  57.8325081  24.1734715
  45.5502892  57.0023575  24.6031036  45.4341812  57.7255249  23.2785187
  76.7959061  50.5504875  49.1416016  76.8209534  50.5001183  48.1860580
  76.7169266  51.4856033  49.3301659  54.0456352  35.0929871  86.7421646
  54.0867043  35.1799965  85.7898102  54.9586868  35.1363297  87.0262299
  37.6687927   0.9399922  80.1438904  38.4907799   0.9481717  79.6534805
  37.3193550   1.8251053  80.0404434  38.3170815  65.7360764   7.8297300
  39.0109558  65.6919403   8.4876232  38.0297279  66.6489868   7.8455677
  17.8844204  69.2945175  86.1993103  17.9860744  69.5504913  87.1160355
  17.8853130  70.1219559  85.7180862  59.2385521  11.7051058  17.3895531
  59.1130486  10.8420944  17.7841320  60.1884842  11.8020868  17.3227844
  35.7214394   4.3893719  83.0744171  35.6076660   5.2577696  82.6881866
  36.5037727   4.0385766  82.6488190  15.2743368  33.7092209  19.2770863
  14.8410692  33.3191185  18.5179234  14.7516918  34.4854393  19.4784927
  58.2799911   3.2810318  40.9113274  58.5317879   2.6770093  41.6098862
  57.5123444   3.7380311  41.2549896  44.6447716  36.2162895  87.4375305
  45.4544449  35.8600273  87.8032303  44.3733025  35.5718765  86.7838745
   2.9079511  53.8327141  65.4080048   3.8371460  54.0525017  65.4752426
   2.4786670  54.6650391  65.2100677  68.3016815  63.0146408  39.1298714
  68.8637390  62.2923317  39.4102173  67.4151001  62.6554451  39.1641235
  15.9584589  46.2587776  32.9396362  16.6235008  46.8812637  33.2336807
  16.3920937  45.7512550  32.2536240  17.1955547  15.1940269  59.6315651
  17.7593212  14.4687872  59.3624458  17.1660213  15.1328869  60.5863533
  71.9365845  15.2912960  63.3966675  71.5544586  14.5189676  62.9798660
  72.8275070  15.3347397  63.0494041  76.2893982  62.1956673  35.0907135
  77.1983643  62.1531868  35.3877144  76.1586533  61.3826904  34.6026535
  18.9587975  63.6189842   2.8209488  18.6423035  64.1604538   3.5440526
  18.2523785  62.9924698   2.6638465  72.6340866  45.4699936  58.9427299
  73.4950180  45.8722878  58.8279076  72.6400375  44.7182579  58.3502007
  70.2312698  18.4832611  84.2753754  69.8587799  17.9027615  83.6116714
  70.2062912  19.3522434  83.8747787  65.2398605  54.7163963  82.3128128
  65.4587860  55.0531464  81.4439621  66.0870285  54.5353699  82.7199707
  85.3108444  61.3100777  59.2734222  84.8793411  60.7229881  59.8941917
  86.2460175  61.1765480  59.4278755  42.2846298  55.3172607  73.7421494
  41.5800400  55.5667114  74.3401108  42.4391747  54.3909378  73.9272842
  76.3591156  37.1501083  29.5256042  76.5971603  37.2734451  30.4444904
  76.2274628  36.2061615  29.4369144  48.6020584  26.3232594   3.1837163
  49.3107872  25.6845951   3.2614608  48.6607857  26.8448372   3.9841783
  72.8942413  41.5992432  28.5702896  72.7820740  42.2024918  27.8356171
  72.4235382  42.0128937  29.2938671  62.5756683   4.7799788  20.0001526
  61.6541748   4.9972181  20.1411686  62.9232292   5.5210509  19.5039215
  45.4177971  50.2836571  64.2391586  46.2488060  50.0790062  63.8104706
  45.2026062  51.1656303  63.9357605   8.8299694  60.1428566  85.6476746
   9.0902376  60.6518669  84.8799515   7.9008360  59.9589577  85.5093842
  31.8941612  50.2136002  11.6011267  32.2309456  49.5479164  12.2008572
  31.7331181  50.9766083  12.1562052  58.3579636   8.7749729  80.2082062
  57.5933113   8.8054790  80.7831879  58.4407501   7.8519664  79.9685440
  50.4634972  49.5322647  47.4420357  49.5953636  49.1311913  47.4006157
  50.4085083  50.2838516  46.8518486  46.3026505   5.7317529  16.9647598
  45.6646614   5.3079519  17.5388660  46.0626907   6.6582136  16.9826717
  13.5926628  26.3945293  71.0866699  14.4743938  26.0954723  70.8645248
  13.4615812  26.1041718  71.9892960  19.8509274  56.5694427  30.5727062
  20.5883789  56.0053024  30.3400173  19.6670227  57.0646706  29.7744846
  66.2539520  67.7627335  65.6890869  65.9154053  67.5572205  66.5605087
  67.1432190  67.4085693  65.6879425  33.6178246   6.1884661  87.7668228
  33.8035507   6.3347116  86.8392715  32.8152466   6.6834755  87.9313354
  39.7622757  20.5702305  71.1735001  39.8612213  20.7733746  70.2433472
  40.6522293  20.6110477  71.5235596  47.9938431  37.3616104   3.4942315
  48.0289497  38.1041603   4.0972400  48.8586388  37.3449059   3.0842586
  25.4072056  25.1255322  77.7089310  25.8791008  25.9234886  77.9472809
  25.7082901  24.4717026  78.3398666  82.2044144  63.2983017  40.7464790
  82.0194244  62.4669876  40.3095245  81.4711151  63.8641701  40.5050316
  39.0468445  19.4609394  10.0086327  38.2898369  18.9095383  10.2064428
  39.6605186  18.8751831   9.5653248  23.9270287  11.5104675   7.3812351
  23.1941090  12.1016016   7.2091370  24.7040424  12.0174828   7.1458240
  14.6988153  17.3874435   0.8410392  13.9486046  17.9795971   0.7884025
  15.2839727  17.6794987   0.1420922  56.0252457  31.3859081  34.3016319
  55.2881355  30.8405304  34.5763397  55.8462791  32.2429886  34.6884346
  39.4417076  10.6030617  24.3244095  38.8505249  10.6396885  23.5724850
  39.6808777  11.5157537  24.4857235  21.9854107  51.1006393   0.8514777
  22.0176487  50.4032745   0.1965904  21.3463497  51.7240562   0.5062444
  53.2924843  17.9603062  25.8690109  52.9780006  18.0000553  24.9658203
  52.5817032  17.5384445  26.3517685  62.2469063  38.7660332   6.8483806
  62.0453491  39.4128151   6.1721592  63.1426010  38.9710693   7.1165514
  18.0006752  49.8107719  10.5050259  18.9568787  49.8373642  10.4704113
  17.7328224  50.7268906  10.4328394  56.8306503   4.2248163  83.5397034
  57.2087555   3.6455564  84.2013092  56.2467117   3.6605663  83.0328827
   3.1845024  16.3586845   7.3210964   3.4970610  16.5446587   8.2065077
   2.4439509  16.9527073   7.1988168   4.2080994  31.9120522  24.0114632
   3.6027977  31.2149048  23.7588196   4.4936571  32.2937775  23.1814194
   7.6531773   4.9235530  57.7355728   8.4302273   4.5963845  58.1887665
   7.2307177   4.1384225  57.3872490  65.0939407  47.9914703  65.2736435
  64.3431168  47.4133797  65.4089355  65.2210846  48.0008926  64.3249664
  71.5000381   5.7834682  43.1981926  70.8863678   5.4288659  42.5548439
  70.9725037   5.9130626  43.9863205  86.5240402  15.1086197  14.3847694
  85.7545166  15.4691982  14.8252726  87.0531464  14.7386675  15.0914602
  57.4246864  56.2858772  56.0274544  57.0602531  55.5702553  55.5065880
  56.6968536  56.5771332  56.5766907  55.8940849  22.2883148  36.9714851
  54.9448090  22.3745556  37.0590820  56.0281906  22.0332146  36.0587044
  47.8729324   3.4618530  81.9522934  48.5761147   3.2952335  82.5799866
  48.3247185   3.7292850  81.1519165  80.5841293  47.0539970  21.2310200
  81.2991867  46.9156227  20.6099091  80.9466553  46.7893410  22.0764561
  43.7348976  10.3589315  19.7681141  43.4255867  10.4597340  20.6683350
  44.0725403  11.2231092  19.5326881  35.5647888   9.1418648  27.4756222
  35.1149635   9.0408239  28.3144779  36.0507355   8.3247137  27.3644772
   8.7793684  17.5525723  21.1327362   9.0594578  16.6511459  21.2915268
   9.3417330  18.0813465  21.6987534  55.7490273  27.8584499  87.9783936
  55.1891479  27.6025791  88.7114029  55.1972389  27.7448940  87.2045288
   4.5391545  45.3228111  72.1874847   4.8958950  44.4579582  71.9850006
   3.9348772  45.1686325  72.9136429  58.4268227  47.8465195  33.0134697
  59.3498459  48.0862656  33.0958099  58.4051208  47.2231865  32.2873726
  77.2856216  43.2693710  37.0523300  77.5935059  42.5946693  37.6574860
  76.3491364  43.0959625  36.9566002  57.9784279  30.2244606  19.9619198
  58.8916626  30.4721985  20.1063557  57.8674927  29.4161510  20.4624786
  35.6370735   9.4159956  61.1516037  35.3844872   8.7381296  60.5247650
  35.0932617  10.1694221  60.9217186   2.2798140  22.1817722  53.5820122
   2.2931311  21.5301285  52.8810043   1.7736946  22.9102383  53.2222748
  72.9411011  21.7558060  39.3944931  73.6390305  21.5237617  38.7818947
  73.1559525  22.6448498  39.6767578  42.4462585  32.2703934  12.3882093
  43.1209373  32.9327469  12.5376453  42.8576927  31.6381130  11.7989941
  85.0448151  32.8710747  35.9251900  85.3905792  32.5970612  35.0757217
  85.6641541  32.5147400  36.5621147  54.0957069   8.2498617  81.3254929
  54.6284409   8.1150188  80.5417557  54.2731056   7.4832273  81.8704987
  45.9857941  47.1454124  27.3291187  45.3591309  46.4435616  27.1532402
  45.4944382  47.7800865  27.8506489  61.3583298  67.2871094  75.8987350
  60.5087547  67.5492630  76.2533188  61.1540184  66.5832977  75.2829895
  43.3551903   3.7779388  82.5031128  43.7254333   4.4453735  81.9254608
  42.4226341   3.9893291  82.5465240  35.9124222  22.9181423  75.5362701
  35.1243401  23.3835545  75.2560120  36.5332947  23.6115093  75.7598572
  57.9593391   0.0019429  86.7288055  58.8680000   0.2892943  86.6393814
  57.7915306   0.0278905  87.6708221  62.9341965  13.5102530  36.8554688
  62.0256233  13.6957283  36.6181412  63.4308853  14.2440758  36.4934807
  75.2039871  60.8516846  70.6964111  74.4853897  61.3186073  71.1228256
  74.8445511  59.9864388  70.5004807  82.5191498  64.9419861  72.2377472
  83.0637131  65.5941010  71.7967987  81.7039185  64.9320679  71.7362213
  37.0828285   6.8866920  37.1960297  36.6096039   7.7187152  37.1909599
  37.6712303   6.9503903  37.9483337  55.0755692  27.2757797  73.1460724
  55.1408958  27.7203960  73.9912262  54.1544800  27.0243225  73.0782928
  17.6809464  69.1487885  10.4546280  17.1893673  69.2478561   9.6392956
  18.5599880  69.4637299  10.2440939  56.5405693  64.3511810  36.8960037
  57.0802307  64.7966156  37.5491409  56.2140656  65.0546722  36.3349953
  51.7104416  42.2838707   4.2082911  52.6315804  42.0588608   4.3390775
  51.7318001  43.1261406   3.7540224  46.5626755   3.3998275  30.3383007
  45.8276939   3.4763589  29.7298775  46.6303749   4.2650123  30.7421627
   8.4087305  67.0184555  43.6294136   7.6569586  67.6095200  43.5880203
   8.1402664  66.2534790  43.1205139  58.8075867  12.6078291  67.9537125
  59.0308647  12.0226641  67.2298660  58.8362160  13.4845238  67.5705490
   0.9578716  29.0429535  58.2248573   0.8423950  29.4296417  59.0928268
   1.9030232  29.0676079  58.0754852  43.9472389  30.3740101  11.1248293
  44.1921272  29.6768913  10.5163183  44.4138870  30.1613102  11.9330559
  77.5588760  35.1624641  49.0382118  78.0974960  35.8656807  49.4009781
  76.7001953  35.5634995  48.9037781  39.0661125  53.9547501  19.2622471
  38.3409195  54.5676727  19.1411896  38.6502876  53.0928421  19.2831535
  11.4962063  50.0437508  12.0792160  10.6318846  49.6457100  12.1828728
  12.0864944  49.4629669  12.5593023  58.1106758  70.1404724  62.5995979
  57.5573044  70.6166687  63.2186699  57.7265167  69.2646561  62.5595627
  18.4737797  58.9344597  87.4754562  17.6850719  58.5944862  87.0528564
  19.0026646  59.2773132  86.7550659  18.6385384  59.5604172  55.5416183
  19.5162506  59.1963120  55.6568604  18.7838230  60.4962196  55.4023476
  28.7967625  31.0957870  88.6816101  29.0614929  31.7258148  89.3518448
  29.2936420  31.3502789  87.9040604  60.0841599  27.5417347  71.4444046
  59.6823502  27.1526279  70.6676331  59.4701691  28.2243023  71.7152405
   9.3849058  31.8095551  67.2874756   9.4089527  32.6160393  67.8024902
   9.8035574  31.1554604  67.8470535  53.8498878  43.4438400  41.7876587
  54.5177689  42.7627373  41.8668137  54.1708069  44.0139275  41.0889130
  26.7769070  21.4730873  46.0392914  26.3691578  20.7592888  45.5489197
  26.6090546  21.2595921  46.9571571  85.0887680  29.3000183  87.1725922
  85.5787048  29.2223454  86.3539581  84.2341537  28.9154701  86.9776688
   0.6868861  25.9326363  60.6293831  -0.2084480  25.6126862  60.5187492
   0.6521220  26.4736938  61.4182320   6.4438744  61.3064079  70.0669556
   5.5933504  61.0605011  70.4307785   6.3468385  62.2297554  69.8340530
   5.5704556   0.0729989  63.8106766   4.7680373   0.4487136  63.4484673
   6.2757835   0.5029006  63.3270149  58.6933212  10.3182259  77.4000778
  58.8591042  10.0163698  78.2931824  59.0325012   9.6172266  76.8434906
  29.5763683   5.7140050  44.8832245  28.6494598   5.8629832  44.6964607
  30.0274849   6.4384522  44.4497490   7.1410947  17.3782368  78.0544205
   7.4327693  17.5195808  77.1537628   6.4001684  17.9745216  78.1626053
  53.1575241   5.8186865  85.6816483  52.3490562   5.8759551  86.1908951
  53.8490562   5.7373343  86.3384552  10.6837130   5.2310338  32.7208405
  11.5707312   5.1463728  33.0704994  10.6068459   6.1552663  32.4839478
   5.2333093  57.2592850  14.2368393   5.0922761  57.0660667  15.1636658
   4.9371381  58.1635628  14.1329279  62.0643654  58.0349159  44.6386909
  61.7981300  58.1177711  45.5543785  62.2543640  58.9314728  44.3624382
  70.2012939  39.6974831  50.8471184  70.2315445  40.5937042  51.1819382
  70.6056519  39.7515221  49.9812050  80.0177155  19.5686550  11.1814032
  80.1601791  18.9707909  10.4475822  80.3778839  19.1078777  11.9391575
   4.9392085  53.8914185  13.0631580   4.7318916  54.5114365  12.3639946
   5.8935151  53.8194809  13.0442982  66.8279800  47.2362404  88.8055420
  66.7515182  47.4681854  87.8800278  67.6226883  46.7049446  88.8544540
  19.6332912  37.5457268   5.6887054  20.1284275  36.8658295   5.2317472
  19.8745594  37.4401283   6.6089611  85.2357712  12.9684458   5.9117656
  86.1260071  13.3190622   5.9396901  84.7269821  13.6423302   5.4609447
  16.9654846   6.8979249  62.2617073  17.5093899   6.1375127  62.0563507
  16.4463329   7.0417633  61.4704933  44.0992470  11.4364700  33.7792702
  44.0126801  12.2988510  33.3730240  44.0353355  11.6068935  34.7190056
  69.2478714  62.5241585  35.2357941  68.4724655  61.9947395  35.4220428
  69.8084259  61.9518776  34.7118607  37.9576607  19.1314468  63.1232872
  38.1209564  18.3229523  62.6375923  37.0281105  19.3116074  62.9828949
   6.2577209  51.6797485  49.0962524   6.4128838  52.6045227  49.2884674
   6.6259065  51.2140007  49.8470840  59.8944931  54.4096413  23.6214409
  60.5522079  54.5376892  22.9378891  59.9668083  55.1890144  24.1724205
  85.9617691   1.1798038  77.2540359  86.9098511   1.2658324  77.3538818
  85.6519241   2.0765605  77.1273193  77.7932205   3.6739078  48.0368233
  77.7354584   4.2216930  48.8196564  78.2021637   4.2373228  47.3798904
  70.8978653  63.0262451  27.8231812  70.8556137  63.9049072  28.2005444
  70.6069412  63.1399231  26.9183769  79.0784531   0.4301235  18.8593807
  78.9083405  -0.5115875  18.8811989  78.2111740   0.8285442  18.7863979
  73.2397766  31.3985004  71.8769302  73.2571411  31.1718445  72.8067474
  74.1577835  31.5452538  71.6489944  20.3748589  66.2897644  73.5904388
  20.9367218  65.6185226  73.9777145  20.5224800  66.2111130  72.6479645
  60.2321053  32.6644020   4.6683178  60.5725479  33.3006363   5.2972322
  59.3264313  32.9360161   4.5192661  79.3388977  38.0042381  63.5485420
  78.4109192  37.8066940  63.4218216  79.3442612  38.8379784  64.0187302
  49.1717720  47.0598373  33.4141655  48.6728172  46.3060799  33.7290039
  48.9890594  47.0927200  32.4751396  54.8922043  69.7485962  44.2575073
  54.0208473  69.8466797  43.8736534  55.4433975  69.4604492  43.5299110
  71.3726578  55.4341621  21.5391254  70.5785751  54.9052086  21.6157265
  71.9195175  54.9563217  20.9155464   7.0179510  34.0250282  74.1219711
   7.5761318  34.3730392  73.4265976   7.6303687  33.7340469  74.7976303
  72.8680420  21.6523991  83.8059235  73.4509659  21.5899849  84.5625839
  72.8459702  20.7654037  83.4467773  64.0092163  22.3825741  71.9407120
  63.2243881  22.9149990  72.0703354  64.3820801  22.7016735  71.1188965
  85.6542664  30.8450890  81.5062180  86.0897980  30.7438087  82.3525543
  85.7404556  29.9881973  81.0884399  79.8528290  41.8006325  35.9709663
  79.1475601  42.4408607  35.8764534  80.4020462  41.9335022  35.1983490
  39.5993309  16.7019176   6.8308916  40.0762138  16.8661423   7.6444306
  39.0579796  17.4818592   6.7089725  24.3885479  16.0897160   7.2478719
  25.1820374  15.7084141   6.8720860  24.1454620  16.7862225   6.6379366
  60.8449059  53.7727432  36.7524033  60.6930351  53.7119675  35.8092842
  61.6902657  54.2148285  36.8308716  81.3665237  48.5582924  11.3869972
  81.7960281  47.7628746  11.0722485  82.0525818  49.0301514  11.8591290
  61.5214310  68.7597351  18.1472511  60.7266235  69.1908646  18.4613190
  62.2057877  69.4226303  18.2391891  15.3953323  52.8703651  71.1727524
  14.8695278  53.5503387  70.7515640  15.1261930  52.0586853  70.7426682
  53.4453278  15.2858887  81.6595688  53.8061485  16.0511341  81.2118683
  54.2077179  14.8487787  82.0389481  36.3078308  39.6725616   6.1037912
  36.2297859  40.5611534   5.7565994  36.3733101  39.1168671   5.3271666
  19.0394039   9.5195541   0.8204045  19.9654942   9.6802826   0.6394153
  18.6674957  10.3907795   0.9578192  71.7304535  21.2218800   0.7033331
  70.8029938  21.4582977   0.6907171  71.7344971  20.2656994   0.6593413
  76.6850128   8.2549601  69.0470734  77.3381653   7.5688896  69.1846924
  76.7271347   8.7884216  69.8407211  38.7538528  66.4251709  14.9575682
  38.2446594  66.2634201  15.7517920  39.4140701  65.7321320  14.9510431
  33.3448601  54.0370255   3.6570952  34.1063423  54.3834496   4.1222482
  33.6705093  53.2529335   3.2150738  15.3194008  16.3146667  62.6466255
  15.8191185  16.2548962  63.4608383  14.4118195  16.4248238  62.9301643
  18.6620121  55.0286217  81.3067398  18.7023468  55.8249321  81.8363647
  19.0480022  55.2793579  80.4674683  66.7194901  18.1106186  25.2045689
  65.7678070  18.0739861  25.3004456  66.9023743  19.0222149  24.9770184
  66.8146667  24.9298687  20.9248047  67.7398682  24.7367973  20.7732754
  66.5432892  25.4239883  20.1512222  23.7598495  30.5591812  68.3789368
  24.6064167  30.1783371  68.6124115  23.6032562  30.2633114  67.4821777
  69.5535889  49.0033188  44.7713814  70.1815796  48.4438248  44.3144112
  68.8252106  49.0969810  44.1574364  43.8798714  58.8988075  22.3721790
  43.9994011  59.6527939  21.7947292  43.0986366  59.1100655  22.8833332
   9.2063951   5.9490271  36.5392914   8.8032093   6.3306103  35.7595062
  10.1478014   6.0283365  36.3853569  16.7773056  63.9364510  36.8750496
  17.2558155  63.1821594  37.2190018  17.2335167  64.1598587  36.0637627
  11.0111790   0.7283238  28.4514008  11.0199890   1.1591733  29.3061066
  10.0897064   0.7289999  28.1923256  63.3597412  21.5198612   1.1042457
  64.1292648  20.9514561   1.0728872  63.6430702  22.2786369   1.6143618
  29.0143013  42.3167725  65.9523621  28.7502556  41.7651443  66.6887131
  28.1900826  42.5830269  65.5449219  66.7220917  64.6724701  35.5087547
  66.0099792  64.1826553  35.0974121  67.3802872  64.0092239  35.7164154
  60.8046913  59.7087326  19.3330650  61.3554153  59.7303047  18.5504608
  59.9621239  60.0580254  19.0427170  63.3058548  58.9302788   3.9430799
  63.9069939  59.3793373   3.3487639  62.4344215  59.1851349   3.6399581
  55.8296127  62.7754440  87.7913742  55.4099388  63.1109390  86.9991913
  55.7101402  63.4705849  88.4384689  84.7661285  58.6555862   5.1299620
  84.8322678  59.5702057   5.4044285  85.5717621  58.2503624   5.4508567
  47.6409683  53.9690514  26.7434425  48.4823723  54.0679970  27.1889591
  46.9890366  54.1618233  27.4172764  44.4499893  27.4264584  72.7455978
  44.7632523  27.2119846  73.6242905  45.1417274  27.1147747  72.1620026
  51.5663147  29.5879803  83.8701553  51.0649796  29.0417213  84.4755478
  52.2666893  29.9593945  84.4065857  79.1404495  41.2665176   8.9937220
  79.3770447  40.4214325   9.3759413  78.3119659  41.4961891   9.4145403
  53.0035133  56.8765526  50.7257195  53.8200073  56.8950081  51.2249489
  52.9827652  57.7176895  50.2693329  72.8326569  56.5079117  25.9908142
  72.0099106  56.3812943  25.5182800  72.5731430  56.9086113  26.8204689
  65.4313660  33.2449341  79.2403030  66.2814941  33.0423012  79.6307602
  65.6396637  33.5461044  78.3559113  43.1660614  68.4326706   4.7501388
  43.4026184  69.3503036   4.6151218  43.4858742  68.2297363   5.6292105
  65.5278625  65.9738464  86.0229263  65.7823792  65.1511078  85.6051407
  66.2002106  66.5985565  85.7510376  41.7391090  54.2449112  18.1865559
  40.8189888  54.3221779  18.4388275  42.1227608  53.6737595  18.8520107
  17.4788322  61.7786636  61.4239883  17.7096577  61.8367882  60.4968529
  17.1253548  62.6422272  61.6373978  19.3450203  69.2154694  57.9259148
  18.9885273  68.7572250  57.1648903  20.2926331  69.2018585  57.7914658
  17.8575020  20.9512291  77.0285797  17.4833431  21.3475437  76.2416992
  18.2368355  20.1267548  76.7243042  12.7235575  28.0543537  26.3476238
  12.5692368  28.0017109  27.2908344  11.9107084  28.4131718  25.9915943
  62.6111908  65.6445312   4.3073907  62.0008698  66.3088150   4.6274958
  63.4616356  66.0837784   4.3011532  43.8211899  65.0143967  12.0374699
  43.5466385  64.1530151  11.7230244  43.0129776  65.4269257  12.3421717
  83.5338211  68.9949036  13.5247774  83.4873428  69.6358719  14.2341709
  83.7506180  69.5117416  12.7488213  27.8225727  28.7795906  67.5937119
  27.2478695  28.9980526  66.8600769  28.7043839  28.8017464  67.2220306
  69.6890259  67.8738403  22.4340591  68.8221664  68.1872635  22.1760712
  69.8956375  67.1896744  21.7973022  72.2896576  69.8298340  12.9460983
  71.4055252  69.5461807  13.1786556  72.8634720  69.3137207  13.5123129
  16.0850048  56.9470558  86.9219284  16.4218178  56.9909172  86.0270157
  15.7475967  57.8260918  87.0942078  69.2126846  42.2870674  31.8624039
  69.6357498  42.7026901  31.1110668  68.7208710  42.9933701  32.2813148
  13.5936222  37.3317795  64.2611160  13.7220097  37.2775497  63.3141212
  13.7331619  38.2556038  64.4692230  48.4231873  57.7246094   7.9487367
  48.2257767  58.6563911   8.0438242  49.3697319  57.6932869   7.8097792
  28.7379932  68.9990921  65.5576630  29.3337784  69.4389572  66.1641235
  28.2621155  69.7113647  65.1305313   4.2381086  70.2715225  70.1259613
   4.0728197  69.7403488  69.3470078   3.6682515  71.0334930  70.0216141
  60.0650902   6.0750637  48.3996239  59.7814598   5.6270556  49.1965408
  59.5324364   6.8697844  48.3691368  68.6522064   9.2898102  77.4103470
  69.0657349   8.6592283  76.8207855  68.1233139   8.7539310  78.0014038
  41.4085350  17.5643692   8.9356050  41.0676689  16.9860592   9.6179543
  42.0521774  18.1119175   9.3852091  27.8772030   2.2895648  29.8235455
  27.0898380   2.2912903  29.2792263  28.2136517   1.3960506  29.7552261
  72.3581619  32.9035568   6.4675331  73.1879349  32.5680351   6.8068333
  72.5959854  33.7069626   6.0046997  36.7925072  63.4635887  61.6993065
  36.2140808  63.8515511  62.3559189  37.4359016  64.1473541  61.5129280
  44.5752678  52.9258957  36.2351685  44.3856277  53.4296303  37.0266991
  43.8877029  52.2606735  36.2041473  72.0798111  16.9020233  81.3216705
  71.5023270  16.6193905  82.0307999  71.5668640  16.7635593  80.5254593
  42.8792534   0.7837939  73.0863953  43.7568245   1.1639535  73.1261520
  42.7405434   0.5980523  72.1576920  75.8324356  33.7076530  65.0541382
  75.9817123  32.7845688  64.8495178  74.8798981  33.7930870  65.0942383
   3.6861577  41.3978806  51.0892601   3.6770806  42.3167915  50.8213882
   3.3554997  41.4069672  51.9874878  35.1645660  28.8533878  81.0861130
  35.7939758  28.8982201  80.3663483  34.3089600  28.8960323  80.6590958
  54.2858925  29.8153229  78.2034531  53.5783463  30.3874283  77.9062805
  55.0864105  30.2995911  78.0012436  23.9650822  12.8535967  36.7745628
  23.3327198  12.4630499  36.1713829  23.4965401  12.9134712  37.6070976
  31.0221691  21.5931377  29.0628872  30.2125454  21.1094780  28.8991375
  31.1838989  21.4793415  29.9994373  64.6276932   7.6862245  47.6821823
  63.9175949   7.0650139  47.8437195  64.2288208   8.5460119  47.8159599
  50.6924171  16.7957935  87.1312180  50.9524765  15.8824520  87.2512512
  49.7488861  16.7993279  87.2923508  85.5284882  53.1396713  44.2282104
  85.3648834  53.6218185  45.0387650  85.2796249  52.2380142  44.4314728
  62.1589813  62.7816467  78.1520844  61.7230072  63.4739151  77.6551666
  62.9466133  63.1978645  78.5022583  68.5848770  31.9387455  19.7696991
  69.3299942  31.3404751  19.7139416  68.0861206  31.7753773  18.9692078
  33.9213104   3.9363868  84.8884201  33.4997406   3.0929654  84.7236404
  34.6308212   3.9788284  84.2473068   4.9023652  59.7973938   8.7838154
   5.5490799  59.3610687   9.3384438   4.9586315  59.3398781   7.9449201
  26.2837486  59.7324638   2.8989387  25.7839298  60.2433167   3.5356822
  27.1751785  59.7214622   3.2474515   0.1954640  45.4495392   5.7974882
   0.1971236  44.7714119   5.1219316   0.7324573  46.1527443   5.4322925
  24.3220463  39.6790123  17.7752209  23.6121979  39.5991287  18.4123745
  23.9891052  40.2939339  17.1215725   7.7947145  52.8189507  61.2667618
   8.6868830  52.5925484  61.5294571   7.2470670  52.5117874  61.9892349
  48.5868835  26.7896595  87.7738113  47.6695137  26.6634521  88.0161667
  48.6972313  27.7398891  87.7403717  66.2886276  15.1158857  17.2465076
  67.0149460  15.3682480  17.8165989  65.5761108  15.7066126  17.4906349
  43.9508286  65.9634933   6.9691954  44.2325439  65.3826981   6.2624097
  44.7653503  66.2535706   7.3798585  76.4166336  11.8713055  22.9854259
  75.9216614  11.3658333  22.3406582  75.9793320  11.6914787  23.8176861
  57.3212738  63.4198837  78.0864029  56.7252045  64.1500931  78.2528992
  56.7453499  62.6770058  77.9056396  78.4667587  51.4002266  44.0223427
  78.7321396  52.2294579  44.4200630  79.1863251  50.7998962  44.2174263
  41.1081047   5.1653132  56.8951340  40.6324997   5.8044257  56.3645058
  40.6729774   5.1903491  57.7473488  31.9087029  60.1277504  73.9678726
  32.4906082  60.7371712  73.5137558  32.2094727  59.2609863  73.6949387
   0.6281300  32.5411987  49.9017754   0.5565189  33.0588760  50.7037163
  -0.2591284  32.5318069  49.5427246  25.3894672  22.8649845  58.7596893
  25.3988876  22.2465496  58.0291557  25.4710960  23.7246838  58.3467903
  81.5557022  16.6758480  24.0674725  81.4829636  17.5525646  24.4447098
  81.6179504  16.0936775  24.8247280   2.2579505  64.4473114  55.9740257
   2.6126647  64.7848969  55.1515617   1.3150271  64.3862686  55.8210526
  51.6046066   7.1275606  55.9700279  50.8183327   6.7692285  56.3818550
  52.2935905   6.4972367  56.1803246  79.4036026  35.8402672  24.5927696
  78.5472870  36.2550354  24.4882660  79.3021698  35.2701416  25.3549385
  68.8411484  12.4038677  38.0807838  68.3002014  13.1570339  38.3181572
  68.2419968  11.6581888  38.1155205  27.4294491  13.2574520  69.1769333
  26.5259666  13.0402708  69.4066772  27.3951988  14.1771116  68.9137115
   5.7587051  30.8588486  52.2291031   5.5215487  31.5177803  51.5765724
   6.5782781  31.1790581  52.6059303  19.7745056  46.1480141  85.1065674
  20.0208302  47.0662346  84.9950638  19.8302727  45.9979744  86.0502853
  68.8698425  26.1089096  44.0736656  68.3064117  25.4151459  43.7309189
  68.5936203  26.8958035  43.6038437  26.7893581  63.2524567  84.2733002
  25.9951954  62.7181778  84.2639847  27.3213444  62.8785515  84.9757385
  23.4345608  67.9130402  47.2923470  22.4922333  67.8716278  47.4552422
  23.5353031  67.6088257  46.3903847  82.4380875  46.6196404  19.2606144
  83.0474091  47.1724815  19.7498245  81.9375381  47.2328682  18.7224350
  18.2614422  51.0940247  85.6843262  18.6712341  50.4194565  86.2258530
  18.6629086  51.9123573  85.9765396  48.2440720  10.8529692   1.7982802
  49.1208458  10.9170389   1.4195992  47.6977577  11.3967962   1.2308089
   0.0790113  66.5627594  83.5508499   0.8382949  66.3640823  84.0988007
   0.4505925  66.7760162  82.6948776  10.8364363  15.0664444  11.4635592
  10.7510309  14.2806101  12.0033760  11.7546263  15.0726442  11.1931505
  21.5888157  42.5178452  73.2601624  22.3201523  42.9543686  73.6969910
  21.4051933  41.7535973  73.8064575  61.5021477  32.8460922  13.5517836
  60.9380074  32.6110992  14.2885008  62.3594551  33.0036163  13.9473181
   8.0854692  61.4061279  60.7809029   8.4348764  60.9236832  60.0316391
   8.1838255  62.3271980  60.5396843   0.5905514  37.0032730  53.0439644
   1.3463396  36.6121979  52.6056976   0.9667529  37.6606941  53.6292000
  26.8998871  69.9293747  56.1212845  26.8881664  68.9922104  55.9268265
  26.3992252  70.3279648  55.4094582  17.8769989  62.3053780  86.5680008
  17.0800323  62.1510544  87.0752106  18.4991379  62.6619682  87.2020493
  70.4455338  53.2991714  43.6132812  71.0626831  53.9102211  44.0157471
  70.4033813  52.5638695  44.2246590  42.2511406  54.6812401  65.2011719
  42.2290916  53.8280640  65.6345749  42.3845215  55.3078041  65.9124069
  70.2149048  60.7303047   0.6923668  70.3740616  61.6658020   0.8178469
  71.0885315  60.3471870   0.6135018  81.2532501  39.9073563  29.3079357
  82.0196762  39.3427048  29.2080097  80.8650360  39.9411621  28.4336452
  15.6127672  50.3289909  67.7011490  15.5869980  51.2447548  67.4237518
  14.8536730  49.9288139  67.2770386  61.7203178  61.9614487  24.8747673
  61.2778549  62.5740433  25.4622936  61.0414848  61.6890755  24.2573280
  68.5994492   1.5174823  63.6741714  68.6164932   0.6783465  63.2139626
  69.1686859   1.3863835  64.4324646  82.4804459  27.3582592  67.4781342
  81.9206772  26.5888119  67.5822830  82.5972137  27.6916828  68.3677521
  84.0148315   6.0813107  64.4742050  84.1247635   5.9863205  65.4203110
  84.5976257   5.4217510  64.0979462   9.4421406   7.7890444  80.8412399
  10.1147766   7.2059774  81.1931305   9.9223976   8.5696735  80.5651855
  74.2287445  65.2742691  88.3063965  73.3649368  65.6667175  88.1797104
  74.4896851  65.5482635  89.1856384  85.8913651  16.4945736  74.4833527
  85.9765701  17.2999744  73.9731522  85.4359665  15.8881359  73.8993301
  67.2394104  35.4239082  42.5248032  66.6754227  35.4181786  41.7514191
  66.9796295  34.6447906  43.0164566  85.4383392  35.1055794  76.7779770
  85.5412750  36.0507278  76.8890228  86.3336487  34.7729492  76.7146225
  18.4431438  54.8942909  35.7388115  17.6437340  54.7342033  36.2403564
  18.2680340  54.5098305  34.8798828  39.8462830  67.7838669  74.9913864
  40.2787437  68.6091766  75.2106400  40.4322243  67.3668594  74.3597183
  14.8127508  18.9617653  16.8670883  15.4636631  18.9369030  16.1657143
  14.2781715  18.1804714  16.7255402  82.0911179  29.8849773  82.9192047
  81.3933792  29.5649815  83.4910431  82.4817581  29.0923080  82.5513687
  53.3489609  26.6929016  34.8958893  53.4098396  25.7438583  34.7870674
  52.8580093  26.8097153  35.7092476  21.6003571  25.0024776   3.2410073
  21.6117992  25.1191216   2.2910097  20.7509823  24.6002636   3.4227185
  19.3635330  48.7406502  24.0867863  18.8060875  48.8322678  24.8595047
  19.1854916  49.5255127  23.5685940  37.0539093  58.7072563  80.7720184
  36.4910355  57.9503059  80.9346008  37.5143356  58.4934540  79.9605179
  68.2563019  53.1745377  33.6184616  68.3941650  53.5481377  32.7480316
  68.2201080  52.2295341  33.4705086  36.7068977  68.0157623  59.3915405
  36.4037666  67.8615570  58.4967995  35.9072838  68.1864319  59.8892593
  45.0031929  59.5932770  84.7714615  45.9223557  59.3697243  84.6251831
  44.6281166  58.8114357  85.1767731  20.8303699  45.7672005  73.3368530
  21.3058529  45.0943527  72.8495941  21.4587402  46.4829483  73.4321823
  73.1993866  60.2341843  86.2984467  74.0300980  60.6207161  86.0214005
  73.2427139  59.3283730  85.9920883  26.1206017  39.0248718   2.9874465
  26.8121433  39.6866875   2.9887068  26.5539532  38.2250786   3.2853897
  59.7244415  16.8622704  81.2788620  59.8457108  16.0537701  81.7767105
  59.7200241  17.5531273  81.9413834  41.2284966  70.6178818  66.4692459
  40.9517708  71.2407990  65.7972183  41.8228569  70.0219955  66.0133057
   8.0280752  33.2202110   2.7703140   7.2147493  32.8378258   3.0997267
   7.9099622  33.2531891   1.8210016  28.0099411  57.7987862  53.6923561
  28.0573044  57.0226936  54.2506256  27.2569733  58.2873955  54.0248222
  27.5795822  33.8609085   6.6068258  28.0719738  33.1843452   7.0716324
  27.4398346  33.4973564   5.7324505  36.2063484  38.9906082   9.0139160
  35.2537155  39.0579910   9.0786238  36.4241562  39.4476624   8.2015781
  39.1080170  44.3124886  70.6160507  39.0511627  43.5759392  70.0073624
  39.8805428  44.1238365  71.1488190  78.9477997  13.6026096   2.5032213
  79.1125412  13.0807877   1.7178588  79.6036682  14.2990036   2.4700098
  27.0998516  62.6942215   1.5456886  26.1428699  62.7122040   1.5553294
  27.3541813  63.5927124   1.3353012  38.5362549  54.0122337  10.9629631
  38.4027824  53.6710854  11.8472900  38.1555901  54.8902130  10.9849596
  82.9822311  24.6553364  77.3314590  83.6337509  25.2695866  77.6697540
  82.6590576  24.1975002  78.1074524  45.4161224  44.6226578  81.3151703
  44.5250931  44.4223099  81.0285263  45.9565773  43.9454689  80.9082794
  13.8877773  62.3176041   3.8198655  14.2156649  61.9439888   4.6378713
  13.5219135  61.5711555   3.3453195  49.5694542  60.4539566  15.3644981
  49.6968956  61.1861382  15.9677429  49.8081360  60.8058510  14.5069237
  84.7314453  70.8538513   8.7984562  84.5009613  71.7228394   8.4698668
  84.9018784  70.3373871   8.0107718   6.2875738  69.8107147  36.7806664
   7.0042062  69.3722076  36.3219986   6.7168727  70.3038940  37.4797478
  84.7578125  26.7025089  41.9050407  84.1674118  26.0258617  41.5736694
  84.1910629  27.2924614  42.4020119  51.5549393  57.9770737   7.9932032
  51.8463516  57.1668358   7.5750794  52.3154144  58.5566444   7.9484420
   8.2038088  55.5959129   3.1101897   7.8559613  54.7916260   2.7250166
   7.6067719  56.2820435   2.8118606  60.4874458   0.7006032  86.6340637
  60.3173676   1.3941072  85.9966049  61.4403801   0.6855319  86.7230682
  86.7717285  27.1517086  63.1041870  86.1721039  26.5118675  63.4879608
  86.4575806  27.9969769  63.4252129  54.7679405  32.7426758   4.3041387
  54.6940079  32.6522751   3.3540890  54.0362091  32.2322731   4.6509619
  68.0447540  33.0890388  15.5701580  67.4646606  32.7738075  14.8770800
  67.5051651  33.6963882  16.0763264  62.5398865  56.5283165  87.2571030
  62.2201881  57.0948944  87.9592514  63.1230087  57.0880814  86.7444077
  62.7872658  18.1440067   1.7674688  63.5286064  18.6132851   1.3848159
  62.0208626  18.4988632   1.3169850  31.3782825  52.3591919  61.8547401
  30.5785770  52.4791718  61.3425827  31.1750221  52.7401772  62.7090034
   0.7432935  70.3017197  79.6336288   0.2041803  69.6584625  79.1734009
   1.6422166  70.0026627  79.4967728  55.7780113  66.2494354  35.0630989
  55.7024803  65.9481735  34.1576881  55.9030800  67.1956863  34.9910240
  86.4665222  17.9739437  47.0124321  87.3436737  18.3569584  47.0006943
  85.9120636  18.6567230  47.3900871  52.9510689  59.0878639  85.9763565
  53.7577629  59.2712555  85.4948578  53.1935005  58.4005280  86.5968628
  67.0815125  44.4921112  76.7044830  67.4985657  44.6072884  75.8506470
  66.8388062  43.5665321  76.7295837  22.7360268  67.9786377  52.3758240
  22.9429188  67.1643066  51.9172401  22.6596832  68.6322327  51.6806870
  71.7836761  33.0463562  10.5777311  71.5107727  32.3323746  10.0015469
  71.1432724  33.7399483  10.4194813   9.3516846  16.7282944  54.3577423
   9.4559507  17.1053314  55.2313576   9.3949118  15.7824669  54.4983597
  51.1418114  17.2811604  65.8504105  50.7705536  18.1614780  65.9090958
  50.5331917  16.8015156  65.2884903  64.2264709  59.6315842  33.7883415
  63.7766037  59.3044815  33.0093307  65.1440506  59.6992645  33.5243340
  38.2946854  66.4423981  54.4759293  38.3696938  66.7877579  53.5863609
  38.0261497  65.5313263  54.3572998  61.0594406  26.2304516  42.4156494
  61.4382095  25.3514347  42.4254036  60.1314278  26.0934982  42.6060867
  83.8435593  48.3231163  73.2759399  83.3570480  47.7742348  72.6609039
  83.7701645  47.8666801  74.1140976  38.5944252  63.5152016  80.6435318
  38.4477386  64.2857132  81.1921921  39.4424400  63.1755333  80.9294128
  39.0131493  61.3748817  28.7665558  39.6712685  61.4003944  28.0719604
  38.5792885  60.5290489  28.6544743  59.6057320  40.3021088  34.8902969
  60.5074196  40.5960617  34.7607307  59.0987244  41.1105232  34.9653969
  69.1349411  69.4690781   4.6109691  69.2023087  70.3738861   4.3059807
  68.8692856  69.5444031   5.5274758  12.2850037   1.8410927  32.3802338
  12.6374121   2.5773776  32.8801575  12.1734743   1.1441116  33.0267715
  19.7273045  57.7142563  74.4870377  20.3780994  57.8836861  75.1682053
  20.1801376  57.1532898  73.8573608  64.2558289  65.4662857  32.0639420
  64.2422028  65.9911652  31.2635994  65.1339722  65.0860138  32.0860481
  21.1583214  17.5301971  80.6292191  21.7019520  16.9264431  80.1230774
  21.7761059  17.9888458  81.1986160  33.8119698  51.6441841  56.4263077
  34.5869293  51.6109352  55.8654480  34.1107941  52.0846825  57.2218590
  17.8357964  65.1566467  13.1102037  17.8232784  65.2798462  12.1610470
  17.5660496  66.0036545  13.4652386  84.1134720  45.7587242  64.4972839
  83.5971680  45.6758385  63.6955452  84.5482330  44.9111061  64.5908890
   4.2351513  42.0752296  75.5827332   3.5813766  42.2276955  76.2650528
   4.8386855  41.4394226  75.9670868  70.7116089   2.9365642  68.3855438
  71.1394196   3.5553997  68.9773636  70.4733887   3.4615443  67.6214218
  69.3502350   0.4156701   3.7577186  68.8718567   0.9236919   4.4129286
  70.2679749   0.6496150   3.8964787  17.7971497  37.1600609  21.0797691
  16.8617668  37.3632355  21.0826130  17.8351555  36.2079124  20.9892197
  80.7854156   4.6995778  62.5441589  80.8676682   4.7327046  63.4972420
  81.5483017   5.1790347  62.2211113  42.4729538  11.0001640   7.9953413
  42.8811111  11.0159988   7.1296687  41.8643608  10.2622070   7.9597321
  57.5063667  48.5830727   0.3811812  58.0021553  47.7885208   0.5789499
  57.5532913  49.1009293   1.1848315  72.9333954  15.4853992  27.8465309
  72.7049637  14.6110744  27.5309258  73.1257782  15.3618317  28.7760201
  47.3235245  46.4865570  40.5098305  47.9338112  45.8541107  40.1306267
  47.6074944  46.5777245  41.4193802  78.2326279  35.8824959  72.2092819
  77.4392319  36.4120827  72.2885971  78.4678040  35.9406013  71.2832413
  62.4322014  18.5928192  62.0114594  62.9086113  19.1960106  61.4409981
  62.1594391  17.8808460  61.4327278  38.0581055  32.5323524  67.9237976
  38.2132721  32.8893547  67.0493240  38.4060173  33.1965103  68.5188446
  42.6888123  61.0225601  57.6001396  42.8990402  60.9681969  56.6678963
  41.7484283  61.1996307  57.6236763   8.1492319  42.9414825   6.5099258
   8.4163504  43.6530037   7.0918360   8.5836315  43.1354866   5.6793284
  41.6014328   5.2472062  21.0486221  41.1910706   4.9270382  21.8519440
  42.4782448   5.5192704  21.3195686  80.2297897  70.3350677   8.7087460
  80.5314713  71.2321701   8.8517046  80.6197739  69.8341980   9.4251757
  16.6675282  63.7667122  54.9908371  17.0515556  63.0822182  54.4429131
  17.3859921  64.3795700  55.1471977  54.5589943  23.9841766  22.0755405
  55.2500000  23.3826599  21.7981968  55.0178108  24.6663227  22.5658417
  29.3380089   9.1295948  77.4144211  30.0583630   9.0841084  78.0431137
  29.7434826   8.9296837  76.5707016  12.4102163  61.6921883  80.8488312
  12.0900936  61.1170883  80.1538391  12.1875668  62.5743103  80.5513153
  67.1649323  21.2494049  55.0317039  66.6024094  21.9169216  54.6389885
  67.7729645  21.0073776  54.3331642  30.4547157  38.3853188   7.7255678
  31.0237942  37.7487564   8.1581974  29.6393871  37.9093285   7.5677571
  57.4707985  67.6610794  13.8521652  57.4567184  66.8793564  13.2999506
  58.1324310  67.4723434  14.5176401  37.3312035  69.1474075  20.9726353
  36.9613228  69.9535217  20.6126308  36.8747139  69.0253067  21.8050652
  44.8886223   3.3809650  18.0830555  43.9761696   3.3111746  17.8023567
  45.3953018   3.0882285  17.3255501  26.5217476  58.6907425  22.3678761
  26.9216900  59.1205406  23.1238861  25.8247128  58.1507263  22.7403755
  78.4009628  43.8484535  85.4794617  78.8190536  43.3316383  84.7907333
  78.4894180  43.3129272  86.2678833   2.7716956  53.3113060  14.4319887
   2.3367903  53.8088531  13.7395020   3.6978660  53.3241005  14.1905842
  11.7312956  69.9060822  15.8399715  12.2714996  70.3340912  15.1757317
  10.8500671  69.9026947  15.4662657  80.8289413  49.9760895  44.6032600
  81.7067261  49.8781662  44.2342911  80.9062958  49.6425896  45.4971428
  50.8376503   9.0091038  62.6793900  50.0775566   9.5154228  62.3928070
  51.5491638   9.3022299  62.1101341  76.8123398   3.6902695  75.4305878
  76.4694366   4.2738237  74.7537537  76.9818115   4.2638173  76.1779556
  54.1294403   2.6638818  55.5020103  54.6372337   2.3385599  56.2453423
  54.1480751   3.6161139  55.5976067  49.4748802  22.5058880  70.9395905
  50.0014381  21.7509460  71.2023315  49.6019974  23.1429100  71.6426392
  69.7836838  45.2291870  85.6522293  70.2661896  44.5788269  85.1418839
  68.9074860  45.2340240  85.2668991   8.7466602  25.0954685  -0.2442276
   9.3188658  25.8624744  -0.2215158   8.7971201  24.7327347   0.6401416
  69.6821213  33.9239578  58.4008102  70.4967804  34.0464211  57.9133949
  68.9917374  34.0751457  57.7552567  73.9100037  16.6389408  58.3208389
  74.8421326  16.8015480  58.4654770  73.5153198  16.7191525  59.1891861
  78.7977905  67.9778595  78.6864700  78.4853439  67.1554489  79.0636292
  79.6980438  68.0590286  79.0014038  13.3040609  60.3885002  69.7031708
  13.4595242  61.3264008  69.5917892  14.0994101  60.0622139  70.1241074
  40.7320061  60.8303375  43.6227188  41.6615791  61.0513916  43.6798058
  40.5044022  60.5236549  44.5004272   3.8343918   9.1201296  78.0542679
   4.2067676   9.9167328  78.4324036   4.3053064   9.0039196  77.2290573
  81.2098083  11.4341173  15.3076887  80.9893799  10.9183321  14.5320549
  80.7610931  10.9891825  16.0266628  63.2740517   4.9089999  31.9279690
  63.8864479   4.2092090  32.1548920  62.5511780   4.4614229  31.4882431
  81.2180481  31.4229031  41.4141045  81.9603195  31.4789867  40.8123360
  80.9084320  32.3248253  41.4972382  51.0877075  33.4187851  37.8326988
  51.1188774  32.5362968  38.2021217  51.9290695  33.5221863  37.3881226
  24.9308853  53.6738281   9.9204388  24.4020824  54.3292694  10.3754034
  24.8985920  52.9038811  10.4882164  83.8754959  70.1421204  43.5213852
  83.1371307  69.5763855  43.7472000  83.5295181  70.7313538  42.8510666
  66.0185013  56.4908447  42.9445457  66.8558426  56.1125488  42.6762657
  65.8803940  57.2199593  42.3399353  73.0253220  70.0636215  17.9820156
  72.7316971  69.3478394  18.5456448  72.2482300  70.6099625  17.8642578
  81.5948181  20.5444832  57.0938683  82.0270767  20.2341347  57.8895264
  80.7712631  20.9235077  57.4009819  27.4856129  53.0930099  46.7457924
  27.4184284  52.7153854  47.6227875  27.6011333  54.0310822  46.8971481
  25.4814892  50.4909706  37.8066063  24.8635006  51.0148697  37.2968483
  24.9388142  50.0478134  38.4587936  69.8270798  49.0041084  26.9964180
  68.9599609  49.2080498  27.3467655  69.8027344  48.0617409  26.8303394
  73.4048004  46.2145844   3.8839316  72.8097534  45.8864250   4.5580688
  74.1448746  46.5749016   4.3724966  33.3017349  47.5572319  66.9486313
  32.7987175  48.3013458  66.6177368  32.8541183  46.7889442  66.5942230
  83.6948395  24.1410999  10.6442842  83.2306671  23.3065128  10.7093649
  83.0713577  24.7882710  10.9739323  62.9969025  18.2538643   7.4471302
  62.8757439  19.1304054   7.8121357  62.3222046  18.1801186   6.7721658
  67.7660980  11.5471249  84.6134491  67.2810669  12.1603813  84.0612793
  67.2732391  11.5219431  85.4336166  68.1879349  55.5707741  69.0248032
  67.7419739  54.7238731  69.0353088  67.6515503  56.1167870  68.4499969
  22.8813133  50.6909714  86.0704498  23.0591526  51.6162758  86.2390213
  22.4442730  50.6823425  85.2188873  78.1359253  59.0724258  36.9863930
  77.3631973  59.5183296  37.3332253  78.7557526  59.0650902  37.7157669
  11.2562542   6.7491651  63.1127205  11.8179550   6.1481972  63.6021729
  10.6241522   6.1811223  62.6722603  53.2865181  61.7330437  42.9611092
  53.0710678  61.6912880  43.8928108  52.7102623  61.0869293  42.5528259
  25.3244915  40.0471191  67.2135086  24.6772652  39.6078644  67.7652206
  25.5261173  39.4105492  66.5276871  84.0580978  54.6806717  17.4472122
  84.0305328  55.4340363  16.8573685  83.8632431  55.0451927  18.3105717
   9.1854362  45.7825012   7.9285369   9.1083288  46.6946716   7.6488376
   8.6960869  45.7417412   8.7501860  63.5089149  60.8945541  47.0392265
  64.0910110  60.5738525  46.3503494  62.7666321  61.2734756  46.5684052
  83.4960861  14.2844496  22.0263901  83.9589844  13.9013062  22.7714787
  82.6658020  13.8095207  21.9903049  46.6347504   1.8556223  50.0793228
  45.7764397   2.2733440  50.0083275  47.2591248   2.5776958  50.0086060
  66.6159210  65.4835892  88.9292297  66.7762985  66.2324219  89.5034790
  66.0382919  65.8247452  88.2464447  83.7593918  64.9948578  17.6228981
  83.3366165  64.8436356  16.7775440  83.9024200  64.1181107  17.9794083
  59.8804283  46.3060493  87.6047134  60.3998528  46.7809868  86.9559708
  60.4450226  46.2597809  88.3762817  59.0565605  66.4079208  49.2798958
  58.9129906  66.4318848  50.2259636  59.9459229  66.0680466  49.1811371
  25.4828854  10.3437653   2.2714319  25.4784317  11.3003454   2.3055735
  25.4669304  10.1373796   1.3368826  40.6838074  16.9575272  11.3578186
  39.7559280  16.7307034  11.2959661  40.8959885  16.8475418  12.2847023
  75.4477234  18.5022316  65.3056946  75.9559708  17.7753925  65.6657181
  75.4196854  19.1478271  66.0118484  20.6324329   7.9309402   9.2735453
  20.3249207   8.1289968  10.1581020  21.4477520   8.4249344   9.1871977
  18.4481583  67.7081146  20.2621555  17.5531960  67.6067505  19.9381218
  18.4739094  67.1837921  21.0625687  15.1661854   6.1553197  16.8046703
  14.2113819   6.0937581  16.8328266  15.3395567   7.0095139  16.4090366
  56.9262390   2.6546838  23.3324718  57.7774162   2.4770010  23.7326679
  56.2996941   2.5591547  24.0497894   5.5648780  50.3690910  39.2271423
   6.2114372  50.6104431  38.5638580   4.8460684  50.9876862  39.0971909
  83.9064941  62.6239357  71.2003555  84.2443542  62.7739067  70.3174133
  83.4590302  63.4391212  71.4272461  18.5344601  29.7035694   7.2344885
  18.5656910  30.6403084   7.4288483  19.2748909  29.3342819   7.7157583
  61.3648262  66.8745956  80.1865463  61.4801254  67.4459991  80.9457779
  61.8124084  67.3303070  79.4736404  74.9803772  63.5531311  62.6621246
  74.5024872  62.7883568  62.3412285  74.6138000  63.7174187  63.5309486
  83.5186310   0.2653333  57.4078484  82.9221115   0.0463023  56.6920090
  83.0837326   0.9809191  57.8715668  57.5353584  12.3290129   6.5967989
  56.8202286  11.9264793   7.0895357  57.1651268  13.1453962   6.2611208
  11.1613998  25.3324871  57.3228798  11.2034149  25.6500225  56.4208641
  10.4192924  25.7994614  57.7068672  80.4966431  33.4852486  70.6074524
  80.8302231  33.1971512  71.4571304  81.1838989  34.0541992  70.2607346
   8.0960560  55.3364220  38.5225143   7.6718545  55.1865349  37.6776390
   7.5362854  54.8858299  39.1548576  53.4697075  56.2105598  21.3079338
  52.6760483  56.7307739  21.1825981  54.0342026  56.7616768  21.8500137
  22.9596958  39.4997368  20.2373142  23.1701622  39.2982445  21.1490917
  22.9163170  40.4554749  20.2070885  75.8393173  22.9285927   7.1971068
  75.4287109  22.0998554   7.4437356  76.4245605  23.1323681   7.9266295
   4.9762220   4.4476514  88.9810410   4.2442112   4.1055818  89.4942474
   5.0911708   3.8120472  88.2746201  85.7749634  42.6379662  19.5708351
  85.5804749  42.2332153  20.4161682  84.9260941  42.9427032  19.2502384
  34.5394287  29.8509502  74.2028656  33.7224426  30.3162670  74.0232849
  34.5377960  29.7213917  75.1512527  49.3199883  11.6317339  14.9650679
  48.8695946  12.3430195  15.4205341  49.4691124  11.9693737  14.0818949
  43.4500732  29.7101746  70.8768997  43.6204491  28.8675537  71.2978439
  42.9403648  30.2011585  71.5213928   0.4237384  53.0358429  23.7198277
  -0.3309807  53.3284492  23.2089348   1.1825870  53.3185768  23.2094917
  22.3878708   8.9544687  53.6614227  22.8175716   9.5066509  53.0082130
  23.1039886   8.4756384  54.0787086  14.9945641  55.8742027  19.9279957
  15.0463257  55.6892738  20.8657360  15.8916941  55.7652893  19.6125164
  74.3044662  51.2168198  38.3185730  74.1440582  50.4857101  38.9152184
  74.0034409  51.9882545  38.7986832  70.6190186  49.5089722  82.8353958
  70.4209442  49.5285606  83.7716751  70.7752380  50.4246559  82.6044235
  55.0034485  53.1520348  21.6906452  55.5428886  53.9423218  21.6645432
  54.1029015  53.4762726  21.6796284  83.8498154  32.0055695  79.7846985
  83.2361298  31.3906727  79.3828049  84.4536133  31.4520855  80.2799911
  79.0181656  39.3280487  42.4873543  78.1145020  39.3605080  42.8013191
  79.2464371  38.3987465  42.5102310  43.1055794  59.4068794  59.5451469
  44.0512886  59.3438530  59.6789055  43.0092278  59.9723015  58.7788239
  12.4075775  39.7808952  10.1373205  12.5581102  38.9814148   9.6329346
  11.5249510  40.0571442   9.8905640  62.2216110  50.9993553  38.0862923
  61.4654274  50.8949356  37.5087814  62.6427765  51.8048210  37.7861710
  51.9295540  23.0894051  73.4246216  52.2425079  22.2794781  73.8274994
  52.6505394  23.3709183  72.8614426  14.2853870  47.5785294  28.9081020
  13.7142010  47.2152252  28.2313557  14.1791334  46.9877510  29.6537037
   3.8076622  53.3376579   7.0887609   4.6102328  53.0414925   7.5181766
   3.2604070  52.5540199   7.0372109   7.3863401  45.6601601  59.8797073
   7.3173985  46.4914742  60.3491745   7.6732454  45.9049988  58.9999504
  59.3625984  25.4130936  23.8055668  59.3003082  26.0069675  24.5536747
  58.4543724  25.2603245  23.5447617  62.8895264  30.8410854  26.7350693
  63.5750694  30.1877880  26.8745861  62.9806252  31.0912590  25.8156433
  37.5432243  58.5758514  29.0418682  37.6080780  58.5264969  29.9955921
  36.6137085  58.7294540  28.8726406  68.1180496  11.2748919  59.8671112
  67.5606766  10.6440496  60.3227501  68.9010010  10.7768650  59.6321907
  38.1989098  34.4191360   8.9109402  37.3338928  34.0844498   8.6743908
  38.0379753  35.3186264   9.1959801  31.5149746   4.5556793  60.4629288
  30.5977802   4.4089508  60.2317162  31.4793968   5.0831566  61.2608833
  39.2742996  64.8120804  34.8639374  39.3266106  64.7570190  33.9097519
  39.4871292  63.9293594  35.1668129  70.7808838   5.6903939   5.8705420
  70.6114120   6.2778316   6.6070399  71.7279129   5.7374740   5.7396193
  76.5574188  50.8263054  46.5050240  76.3406219  51.5122604  45.8736000
  76.2356567  50.0197334  46.1023598  32.4952469   6.2482710  67.1140137
  32.2173309   7.1491728  67.2794571  31.9234371   5.7158475  67.6669998
  85.1978760  37.1636620  78.6870956  84.3827667  37.3753319  78.2321014
  85.1746063  37.6977234  79.4811172  80.4373093   5.9863048  14.5378590
  80.5610809   6.1383848  13.6009569  79.4874039   5.9592299  14.6526756
  67.7327576  46.6065445  61.4481010  67.4621735  45.7951431  61.0184021
  67.8184662  47.2385178  60.7343140  12.6412897  39.7673836  81.7022629
  11.6955338  39.8945961  81.7770538  12.7350683  38.9415245  81.2275085
  26.4780273  66.0033340  41.6033897  25.6837597  65.9525757  41.0716057
  26.1883125  66.3883209  42.4304810  70.8800430  30.6279182   6.3229933
  71.5366516  31.3243771   6.3165908  71.3823395  29.8239594   6.1904173
   5.6951370  62.3705063  61.4583206   5.4435406  62.3632317  60.5348053
   6.5415368  61.9239731  61.4794960  65.7353058  64.3137436  28.3152332
  66.4234467  64.7846298  27.8451767  65.0863953  64.9852142  28.5256519
  28.9395485  58.3109055  73.8223419  29.1800117  57.4289055  74.1060410
  29.5301552  58.4970818  73.0924377  12.4521570   7.0447402  35.2152100
  12.7869406   6.8311076  36.0861359  13.1028309   6.6835036  34.6132431
  77.4505768  67.6405258  22.9298515  76.5645523  67.3556900  23.1536179
  77.6763000  68.2765350  23.6086540  80.3092651  45.1481285  67.5941467
  79.6851730  44.9560242  66.8942642  79.8295135  45.7211685  68.1922226
  40.6112709   2.7320085  41.0362015  39.9948196   2.3215189  41.6425972
  40.2686043   2.5218270  40.1675034   0.7696087  23.1823635  21.6980610
   0.7087397  23.5967617  20.8373642   1.0338001  22.2813663  21.5119419
  51.0171700  10.7841482  64.6285706  51.0358734  10.1748219  63.8905983
  50.2330894  10.5404568  65.1205673  74.6038284  54.3397179  76.1204071
  75.5041504  54.5531540  76.3655548  74.5303421  53.3979568  76.2750549
  39.0755196  70.0814590  56.5861588  39.0508537  70.8692093  57.1293640
  39.1697502  69.3625031  57.2110176   6.0262952  53.5874329  85.5621719
   6.0693235  54.1686058  84.8028183   6.5491915  54.0287895  86.2315140
  37.8342590  41.3466225   7.9941726  37.3757439  42.1857605   7.9512029
  37.8276863  41.0236816   7.0931191  30.7185783  13.1649914   4.7167287
  30.6483402  12.5332747   4.0010242  30.1160984  12.8379984   5.3848047
   0.4934126  51.8605232  46.5067406   1.3210621  51.3917465  46.3996201
   0.5664177  52.6127205  45.9192810  13.9446335  17.3924637  66.3799515
  13.2788258  17.6089287  67.0326996  13.7205353  17.9315205  65.6213837
  53.6445312  28.2509785  49.6377335  54.1432419  28.2812271  48.8212738
  53.5306892  29.1691875  49.8830147  40.2414169  62.3541336  31.1489601
  40.0339127  61.7064285  31.8224964  39.8291664  62.0142784  30.3547459
  83.3982010  24.1515656  21.9286537  83.8898087  23.3557491  22.1317139
  83.9886017  24.6632481  21.3756237  63.7311058  69.6118393  10.0689859
  63.9033623  70.4667587   9.6744337  64.5727844  69.1574097  10.0328407
  58.6533127  35.1861343  22.5536499  58.0598221  34.4437904  22.4399529
  58.4366035  35.5358505  23.4179230   1.9004959  59.0785446  48.9202461
   1.2735360  59.8010292  48.8861313   1.3784336  58.2991905  48.7297363
  69.2846909  63.7623825   3.4678564  68.9411545  64.6557617   3.4585655
  69.4876022  63.5742569   2.5515227  14.1839371  47.7861443  83.5989304
  14.7030554  47.0305443  83.8742752  14.8292913  48.4158783  83.2777023
  40.6843071  70.6965485   6.2771573  40.6738815  69.9424820   6.8666553
  40.8627014  71.4441376   6.8476968  16.4321957   1.7121785  16.8035030
  15.7585621   1.2707394  16.2862225  16.2535992   1.4468719  17.7056942
   9.9046926   3.5152190  12.5301085  10.5251064   4.2017150  12.7751398
   9.6738672   3.7137761  11.6226244  52.1744919  19.9720688  53.8721886
  52.7157936  20.2197151  53.1225929  51.4125977  19.5406837  53.4853325
  71.9699173  42.6460190  75.8901367  72.8967056  42.8158760  76.0587769
  71.5591049  42.6800957  76.7540207  18.1891022  61.9753342  81.7402191
  17.6058292  61.3692436  82.1970367  17.9035511  61.9403076  80.8272781
  17.6784630  19.6327915  71.6879272  17.9066925  20.2887459  71.0292435
  18.0421619  18.8152809  71.3478775  33.2325859  27.4269924  75.4764328
  32.4761963  27.0274982  75.0468826  33.9074554  27.4524612  74.7981033
  40.9455032   0.9346357   0.9700735  40.5264015   1.4226850   1.6788697
  41.8052063   1.3441645   0.8729699  75.4701843  28.5667095  72.2296677
  76.3274689  28.9911690  72.2632751  75.2737579  28.4972858  71.2954178
   1.1664267  70.3527756  61.9309883   0.5884907  70.0868149  61.2158051
   1.4580132  69.5292587  62.3221741  21.3444424  71.5058060  77.9720917
  21.0816174  71.1505356  78.8211746  20.7040215  71.1511002  77.3554306
  77.7302551   4.5319071  86.3994064  78.1161041   5.0928550  85.7265854
  76.8655624   4.3064585  86.0563126  72.8874588  60.4573250  53.7682953
  72.5867386  60.5773659  54.6690674  73.5005417  59.7238007  53.8162079
  80.3194504  62.8483887  70.5990448  79.9458923  61.9832764  70.4309235
  80.3286514  62.9239922  71.5532074  66.4954529   7.3539052  29.3115749
  65.6758575   7.6273317  29.7235508  66.4189301   6.4029288  29.2339935
  79.5919876  40.4917488  82.0661163  80.0062027  39.6914368  81.7433777
  79.0922546  40.8208542  81.3190002  53.8403320  59.3764229   7.5390301
  54.6340141  59.8935509   7.6764402  53.9865761  58.9302826   6.7048817
  77.1421051  61.3475647  11.4561377  77.4586563  60.8566780  12.2144651
  76.8419342  62.1810570  11.8186560  62.9186783  34.3308296  53.5381584
  63.8695412  34.3821487  53.4409218  62.7691689  34.4174767  54.4796295
  75.6375198  38.3338737   6.2916718  74.9658813  37.7538414   6.6504178
  75.6737289  38.1117706   5.3613009  63.5020294  69.1769485  52.8168793
  63.2408638  68.9175873  53.7004814  63.0443802  70.0037994  52.6648560
  45.0026398  51.3839836  78.5798645  44.9939270  51.0376167  79.4721603
  45.2964020  52.2897568  78.6773987   3.3677840  37.9787712  78.3979111
   3.2160692  38.0320663  77.4543152   2.5661459  38.3257217  78.7893600
   1.4219958  68.4753571  21.9463654   1.9239302  67.7468719  21.5808525
   0.7264420  68.6313477  21.3075371  57.2163277  55.7329369  71.5165482
  57.1012268  54.8333702  71.2103424  57.2902565  55.6545753  72.4676666
  81.8048401  49.0863686  24.1131344  81.9473572  48.2035637  24.4545612
  82.1783600  49.6638489  24.7788925  23.4758320  46.4510574  69.4988403
  24.3963718  46.3104210  69.7203293  23.4503155  47.3342133  69.1305771
  76.7011948  57.8034210  50.5288315  77.1161880  58.6640244  50.5869293
  75.7973022  57.9542236  50.8053665  63.7874146  16.2982674  44.6450500
  62.8469658  16.4626293  44.7141685  63.8642044  15.3441582  44.6417999
  16.5730858  70.0514450  44.8814278  16.2534599  70.1925812  45.7725792
  16.9312897  69.1638718  44.8932114  20.9492798  65.6825638  70.7125778
  21.1556664  64.7478943  70.7069550  21.7963123  66.1155243  70.6062088
  15.0219555  29.7152653  16.9969387  14.9023981  28.7678661  16.9308186
  15.6549654  29.9252892  16.3103390  22.6913872  70.1875916  80.5136108
  21.8377361  69.8351593  80.2620163  23.2046738  70.1715088  79.7058334
  65.7483673  22.5176411   2.0368729  65.8486938  22.5220070   2.9887903
  66.5157852  22.9892273   1.7129853  80.4448318  13.4886370  41.5770531
  80.5433502  14.3939896  41.2823296  80.7670441  12.9621820  40.8454399
  79.3058395  14.0844622  59.1136703  79.7528839  14.5695953  59.8072319
  79.9991608  13.8604927  58.4928818  73.5188828  27.6023273  27.4626923
  72.9681625  28.1331921  26.8872604  73.2713470  27.8722763  28.3470497
  51.8160019  11.9739866  24.3046570  52.4837723  11.3665743  23.9862747
  51.0478401  11.4248009  24.4613533  64.4642258   9.9348087  31.0140419
  63.7829704  10.1907520  31.6358242  64.1986923   9.0662184  30.7119274
  14.5096216  67.8942719  88.3355026  14.1927462  68.3789749  87.5733490
  15.3450851  68.3081436  88.5521622  83.2409744  63.0841599   0.8262606
  84.1007004  63.4187737   0.5710298  82.6194916  63.6194000   0.3327996
  16.2397060  51.9105225   9.8858747  16.1166782  52.7142715   9.3808146
  15.9788122  52.1449928  10.7764874  21.1458473  49.9086189  39.0648270
  20.7922344  49.2785187  38.4370041  21.2696648  49.4027596  39.8679504
   5.3055944  32.2300453   3.0339410   4.3742161  32.1306419   2.8367486
   5.7163639  31.4574394   2.6458979  39.7269554  49.5783653  58.2189369
  39.4036865  49.7072716  57.3272438  40.0762253  50.4326134  58.4729118
  75.3789673  60.1264458  37.8030968  75.1643143  61.0477905  37.9489861
  74.8854294  59.8868332  37.0187263  83.5647812  32.1791763   0.8170220
  83.2894287  32.0866165   1.7290779  82.7583084  32.3812561   0.3426867
  61.8106155  47.5611305  14.6186800  61.8887596  46.7792091  15.1652355
  60.8885994  47.5831146  14.3624887  62.5605392  34.5072327  50.3303566
  62.3935852  34.4479866  51.2710190  61.8091621  34.0734978  49.9259567
   7.2598047  32.7867012  85.5259323   7.6403017  32.4691315  84.7070312
   7.3715653  32.0605125  86.1394424  58.5980148  68.0369415  26.3304558
  59.4202042  68.1474915  26.8079643  58.3264542  67.1400452  26.5255737
  83.0130005  71.7388382  80.2429047  83.7523651  71.5062332  80.8045654
  82.2522736  71.3511124  80.6755676  78.4293289  71.5065842  49.0009155
  77.9564896  71.8419037  49.7626343  78.3865967  70.5547256  49.0924339
  33.7611618  23.9581776  74.4148712  34.2318459  24.4986877  73.7804184
  33.0120964  23.6146965  73.9278946  40.1612473   1.1301717  78.7096481
  40.2524300   2.0662887  78.5318832  40.7600594   0.9652454  79.4379730
  62.0229645  41.4654846  17.9796009  61.6944351  40.8773575  17.2995968
  62.3667603  40.8815651  18.6556740  75.9725113  46.4671097  65.6453476
  75.9497986  45.5655632  65.3245316  75.5722122  46.9810638  64.9440308
  40.3836670  47.1879959  75.3787994  40.6937943  46.5056152  75.9741211
  40.2073326  46.7278900  74.5581665  55.1002426  16.9552803  66.0302505
  55.1834450  16.0517902  65.7252655  54.5782890  16.8909836  66.8300400
  44.4883842  51.8761482  42.0850563  44.9925041  52.5951843  41.7041626
  45.0863037  51.1288719  42.0676384  62.1481514  66.0056458  27.9984226
  61.2008553  65.9099426  28.0969124  62.2522469  66.6809158  27.3280430
  50.3199387  46.6224022  85.0055008  49.6767120  47.2483864  85.3381271
  50.6232681  47.0052605  84.1823044  77.8303986  50.7480240  21.9942398
  78.4167709  51.4467621  22.2843456  77.8347168  50.1173439  22.7142792
   3.4372270  16.4745064  69.7550659   4.0269423  15.7614365  70.0000153
   3.7830329  16.7959766  68.9224167  55.6642723   5.4240909  78.5525284
  55.7896881   4.8697109  77.7823563  54.8629532   5.0929523  78.9580688
   0.6718577  20.0237064  51.6885185   0.3072470  19.1719418  51.4481239
   0.0393182  20.6585503  51.3522148  10.7333364  70.4647598  80.8712234
  11.5476856  70.7141495  80.4343338  11.0012875  70.2241821  81.7581024
  77.6009369  31.0696640  40.4191017  77.6923294  31.5717964  39.6093216
  78.1334991  30.2870827  40.2770576  69.6162796  54.2960129  59.8799591
  68.7030106  54.2383232  60.1607513  69.7625732  53.4961243  59.3749771
  60.5672226  69.9210205  87.9057541  61.1315536  70.1068878  88.6562347
  60.3454742  70.7829971  87.5535278  32.3457642   2.6271493  38.7112503
  31.4449215   2.3319242  38.5787582  32.2592468   3.4578531  39.1788788
  11.7912722  49.3470001  87.4249725  11.2163992  50.0752449  87.1895752
  12.0823803  49.5493851  88.3140869  16.2368279  50.7584724  33.4726486
  16.0172749  51.1653709  32.6345177  15.4458361  50.8590584  34.0022202
  77.0902328  59.2015839  24.8290920  76.6939011  59.9006958  24.3090935
  76.3472366  58.7513351  25.2309303   6.2573628  24.4825649  22.6680088
   5.7519126  25.2772427  22.4970169   7.0286560  24.5639362  22.1070118
  70.7131500  16.7124386  45.7915497  70.7203369  17.3026333  45.0379944
  71.2330093  15.9593086  45.5108871  50.3592186  54.7399063  43.3249702
  50.8870049  54.4275589  44.0598946  49.7324791  55.3456573  43.7205620
   1.4435695  45.3128204  21.8800011   0.6185038  45.1873665  22.3487873
   1.5836481  44.4871140  21.4165134  71.0280304   8.9299421   9.5234451
  71.7980728   9.2203102   9.0346212  70.4513474   9.6937895   9.5377350
  54.7694550  54.0012321  40.5804329  53.9868774  54.5337601  40.4382362
  55.4737549  54.4929352  40.1580353  58.0187492  37.5508156  11.5577402
  57.5908699  38.1131325  12.2034569  57.7004776  37.8704147  10.7134705
  58.1629295  12.3863392  84.1092300  57.6783638  12.0225315  84.8502274
  58.7807236  11.6970520  83.8654175  13.4257555  12.3437719  55.2831306
  13.5372229  13.2905788  55.1973190  12.5411491  12.2374840  55.6329956
  73.6914825  49.1984673  19.0668964  73.2277451  48.5132294  19.5481701
  74.6161346  49.0418701  19.2585449  27.8984280  60.0051346  20.4700489
  27.7955322  59.5138321  19.6550236  27.3946018  59.5081291  21.1145458
   9.2103300  50.5268669  52.9542770   9.0398865  51.3956032  52.5903091
  10.1600361  50.4238701  52.8935966  47.9720001  57.4927330  87.1955261
  48.6351585  57.8070984  86.5810089  48.3878555  57.5654907  88.0545959
  33.1080437  41.8766479  73.0759735  33.9800987  41.5351410  73.2737808
  32.8389359  41.4044151  72.2880630  14.7402954  36.3559799  73.3967896
  14.5413485  37.2674904  73.6108017  14.0816727  36.1135406  72.7458878
  26.3033581  23.1634922   2.2643290  25.9407883  23.0207901   3.1386352
  25.7554474  23.8518486   1.8872451  86.7808151  38.7747498  35.0575790
  87.0850525  38.4360085  35.8995552  86.1713028  39.4760208  35.2876625
  59.9941483   3.0889113  24.8718853  60.3442078   3.6025543  25.5998001
  60.2370300   3.5849526  24.0901012  52.4750671  66.2205887  82.2180099
  52.5426483  65.6023941  82.9456787  53.1034470  65.8991013  81.5714722
  39.4390526  14.6889992   1.8815428  38.8126564  14.6098366   2.6009822
  39.4468193  15.6230421   1.6724141  12.7161856  16.7464008  86.0359802
  13.0668154  16.6053600  85.1565475  12.3466425  17.6289406  86.0077972
  17.9479771   1.1369820  26.9772987  17.1655655   0.7054242  27.3205471
  17.9916725   0.8608638  26.0618305  67.8317413  23.5528736  60.5757523
  68.6415558  23.3000488  61.0190468  68.1041946  23.7684803  59.6838341
  57.1068611  29.9619427  36.1360054  56.6104889  30.4618740  35.4879951
  57.9514771  30.4093266  36.1879730  36.4898834   6.5371242  19.3468170
  36.6440201   5.9614620  18.5977592  37.1032028   7.2614212  19.2224522
  83.6538391  54.6459656  70.4798813  83.7110214  53.7810402  70.8859253
  83.2217331  54.4883766  69.6404266  64.7329941   1.6619933  48.8739929
  65.1343079   2.3685577  48.3680840  64.9577713   1.8606853  49.7829628
   5.0742879  69.2006607   2.4239962   4.6529136  68.5398788   1.8744128
   5.1406136  69.9727020   1.8620470  36.5314484  54.3815002  50.6943703
  37.0897331  54.2097549  51.4526901  37.1279259  54.3523712  49.9463081
  84.7318497  36.4691734  70.0839996  85.2029572  36.4844627  69.2508926
  84.9475021  37.3055878  70.4964828  61.3778191  70.4390259  22.2596130
  61.7088661  70.9513474  22.9972897  62.0043678  69.7214584  22.1660061
  23.5394516  57.2088699  27.9518719  23.2987480  57.1533165  27.0270977
  23.7750568  58.1272697  28.0832844  54.5288620  35.1610641  22.6836071
  54.3831711  34.3133659  22.2635841  53.6593399  35.4376335  22.9728603
  56.1884651  23.0787830   9.5485363  56.4669533  23.2146091   8.6428728
  55.5734673  23.7920609   9.7195406  72.8631439  63.4255142  33.6806183
  73.6336899  63.1524925  33.1826668  73.1539154  63.4225998  34.5925789
   5.2481203  16.0617924  37.6279259   5.8473272  15.5473337  38.1687698
   5.8187466  16.5375347  37.0243645  18.0450706  56.7819901  24.9035568
  18.2737370  55.9053383  25.2124748  17.4389706  57.1180725  25.5638008
  60.0552444  59.9764290  38.6340828  59.7465591  60.8818092  38.6692390
  59.4823570  59.5044212  39.2384338  50.5813522  64.4719238  58.4824715
  50.7936096  63.5456772  58.3674164  50.8850441  64.6792603  59.3662224
  36.3561859  60.4559402  87.1978989  35.5030060  60.4505272  87.6318207
  36.2603912  59.8376389  86.4734955   1.1895410   7.6106524  62.6415939
   0.4637415   7.1089869  62.2704086   0.9509668   8.5251312  62.4897957
  26.7402248  12.8580713   7.2536731  26.8307781  13.8097706   7.2057214
  27.2141323  12.5335035   6.4879708  12.7074957  46.6079826  13.6256657
  11.9571991  46.0245361  13.5121899  12.4166975  47.2486534  14.2746706
   0.6026302  15.5185127  30.2502899   0.5286968  14.5711117  30.1354084
   0.3557583  15.6691217  31.1627598  30.4270363  34.8350334   5.8873348
  31.1964073  34.2896271   6.0511403  29.6832142  34.2616844   6.0723429
  61.2642136  58.9925461  27.7363777  60.6159630  59.3982544  28.3120556
  62.0858612  59.4333801  27.9526844  26.0392513  18.5322018  62.7676735
  25.7674770  18.8715687  63.6204338  26.8002987  19.0620937  62.5304985
  18.6960106   2.8637636  56.3623695  18.3791294   3.4005809  57.0887642
  17.9400253   2.7759705  55.7818451  73.8730621  33.5894928  29.8176365
  73.8899307  32.9322624  29.1219368  73.0163422  33.4796295  30.2301846
  36.7817993  16.9065628  84.7831726  37.0242805  16.3867626  85.5494919
  36.1607933  17.5529613  85.1189651  22.4977417  22.5099716   1.1821281
  23.1149158  22.7291698   0.4840728  22.8000393  23.0155697   1.9365926
  40.2100677  21.6783867   9.0761681  40.3489113  21.1414852   8.2959824
  39.7265244  21.1096897   9.6753321  41.6506081  57.1702003  44.8995857
  40.9695740  56.5175247  44.7369995  42.2143860  56.7685127  45.5606651
  17.3038464  24.4222450  67.8200684  18.2550182  24.3673706  67.7279053
  17.0032272  23.5166435  67.7442627  67.6393661  50.7964668  60.1446762
  68.0847397  50.0862389  59.6826706  66.7267761  50.7297821  59.8636742
  13.4265795  14.4519291  66.3803635  13.8481874  14.2845201  67.2232513
  13.6581850  15.3570795  66.1722946  66.3739166  20.6188316  65.3038635
  65.7533569  20.1729717  65.8803558  66.1210709  20.3449879  64.4222183
  24.2542534  62.1289139  83.1498489  24.6804123  62.5608864  82.4095612
  23.3183022  62.2569046  82.9954300  82.3688202  10.8443365  71.0008011
  82.4137115  11.0149813  71.9415970  82.3338089   9.8902664  70.9318390
  38.7921333  38.1713715  82.3839493  38.1788712  38.8159103  82.0308075
  38.2794991  37.6792946  83.0252762  25.6171741  66.0626526  44.1968765
  25.5585690  65.1077881  44.2290039  24.7072067  66.3591537  44.2134781
  41.2748108  68.6973648  18.8046379  40.8403320  68.4355621  19.6163788
  41.8434525  69.4235077  19.0607605   9.0235300  31.7844028  16.1803646
   9.8324738  31.5576038  15.7216663   8.7809124  32.6409950  15.8287659
  15.6919031   2.0922928  86.1849136  15.6562843   1.1357572  86.1831894
  15.3634348   2.3457603  85.3223038  20.3154926  31.5903416  80.6777954
  19.8282661  30.9525127  81.1993484  21.2324848  31.4335728  80.9031448
  70.1723099  36.6825562  85.9942398  69.3505402  37.1600761  86.1078568
  70.0456085  35.8684692  86.4815216  14.5869970  55.8608055  14.4827108
  14.9149036  56.3579063  13.7333117  14.9602184  56.3029556  15.2452345
  63.0712166  67.1987991   0.6943318  63.1266785  67.7203827   1.4950228
  62.7110405  66.3591766   0.9798930  23.5083904  66.0019379  73.8136749
  23.6901054  66.6173248  74.5239639  23.5620441  66.5316620  73.0182266
  86.7176514  58.9108009  43.3264236  85.8592072  58.9682159  42.9068871
  87.2339706  59.6014633  42.9109383   0.4462497  24.2249336  42.9399643
   0.5042457  25.0073032  42.3915443   0.8532250  23.5346928  42.4163513
  13.3522282  67.4328842   1.6857917  12.5284204  67.2350540   1.2403293
  13.9931717  67.5132980   0.9794225  18.3002625  41.1501160   6.7212715
  17.7916965  40.4774208   6.2684231  18.6117325  40.7195168   7.5173883
  45.0433426   6.1757274   9.7004080  45.4829178   6.2797456  10.5443192
  44.8084259   5.2484622   9.6653986  48.4879875   4.1612930  37.4713707
  47.6667480   3.6916761  37.6171684  48.8579025   3.7586741  36.6856918
  56.7863884  54.3124962  19.1119404  55.8313904  54.2920609  19.1735458
  56.9660072  54.3030739  18.1717911  63.4865570  57.2501183  77.0867844
  62.6372185  57.1835594  76.6504135  64.1193085  56.9779549  76.4221191
  72.6751556  35.7826462  85.4414291  72.4316635  34.8892670  85.1988983
  71.8398285  36.2351036  85.5586853   9.0443430   8.3188877  86.6071320
   9.5836229   9.0158520  86.9808273   8.2071304   8.7410269  86.4145050
  81.3574524  42.3596344  13.6556215  81.2014618  41.8519440  14.4519558
  81.7076340  43.1938553  13.9681654  75.8455124  16.4721203  29.3083439
  76.1860275  15.7673903  28.7573128  76.4389267  17.2066593  29.1516895
  68.3516159  62.4318695  59.5607071  67.4989624  62.3308029  59.1376152
  68.1442108  62.6885948  60.4592133  41.4758835  43.3264923  16.0309830
  40.8453712  43.2100906  16.7417126  41.9123001  42.4778252  15.9565792
  69.6530991  43.3332825  61.3318253  70.3249893  44.0121536  61.3945770
  69.0480804  43.6561050  60.6640167  67.6218872   5.8066139  53.9744835
  67.2242966   6.4363694  54.5757866  68.0052261   5.1401563  54.5446739
  18.7880993  48.1611710  66.5249481  18.5782833  49.0949287  66.5424271
  19.7170773  48.1201363  66.7519836  16.6911449  42.4619484  32.4812889
  17.3965969  42.9226875  32.9354820  16.4940701  41.7123718  33.0430069
  81.6268616   2.2520213  32.5276527  82.1090698   2.7314126  31.8539371
  82.2823257   2.0547869  33.1967506  24.0118618  40.6617470  81.9581909
  24.8449059  40.8753090  81.5378799  23.3625336  41.1751709  81.4775696
  78.1050949  60.2544594  51.0259171  78.4718857  60.3736877  51.9019775
  78.8591385  60.3185768  50.4397964  59.1517029  16.2737732  29.9937744
  58.6993675  17.1164494  30.0327702  59.4843445  16.2217350  29.0977440
  83.6587448  21.6040077  78.1504059  84.2669296  21.2233200  77.5168304
  82.8883896  21.0370636  78.1134338  83.9030991  52.6630325  73.3909531
  83.1484299  52.3832970  72.8728256  83.6239700  53.4837112  73.7969131
  78.8621750  69.2564774  76.0108109  78.7144012  68.4497910  75.5171967
  78.6691895  69.0207672  76.9182434  47.4777908  50.2541466  14.3546495
  46.8006287  49.6429024  14.6445875  48.0413437  50.3679085  15.1199589
  59.5355911   5.5155034  70.5332031  58.9064903   5.8849487  69.9135437
  59.4394035   4.5681224  70.4359970   7.2981029  17.2771091  70.0551758
   7.0080171  17.5705261  69.1914749   7.3591132  18.0799274  70.5728607
  77.2804489  14.3299828  57.2290764  77.4229126  15.2712460  57.1292763
  77.9818954  14.0422029  57.8133659  61.1457939   5.0564871  44.6034966
  60.5407104   4.3200316  44.6914749  61.3862114   5.0595789  43.6769867
  12.5242920  21.1018028  15.2353439  12.0144138  21.7537537  15.7161951
  11.9215660  20.3681316  15.1141815  29.6069107  27.0866432  55.8556519
  29.9136086  27.8178730  56.3918114  29.0820045  27.4971333  55.1684799
  80.0618591  36.2088470  28.3334904  79.7950897  35.3827705  27.9301739
  79.7393875  36.1513939  29.2329025  65.2704620  39.1362419  49.4400826
  65.9513321  38.5258369  49.1571617  65.7514420  39.8830605  49.7966652
  41.9232292  57.7497063   8.6974669  41.7095757  56.8938942   9.0691833
  42.8695564  57.7201881   8.5566692  76.1330566   3.0825763  82.7170868
  76.1659241   3.7720764  82.0539627  75.7662659   2.3266075  82.2586060
  52.3212700  39.6299706  24.9837589  52.9595985  39.5945816  24.2713566
  52.5372887  40.4321213  25.4592838  74.1613541  66.8255997  71.4371262
  74.5402451  66.7411118  70.5621796  73.2328033  66.6270676  71.3162231
  69.9278183  53.8015175  25.6207886  70.7710266  53.5002441  25.9591103
  69.2872391  53.2055168  26.0089512  52.9977798  69.6671524  88.7722626
  52.4076653  69.4774170  89.5016403  52.8077774  68.9860916  88.1270523
  50.4112129  15.2368984  17.2618923  51.2267036  15.0592756  17.7305698
  49.8372650  15.6289864  17.9199829  58.6132584  28.9203377  82.4651489
  59.5656319  29.0163155  82.4671936  58.4168091  28.4635887  83.2830811
  24.0266895  22.9623032  70.8438187  23.7373772  23.8683052  70.9519424
  23.2259598  22.4439964  70.9239655  20.3674202  61.1389542  25.1755161
  19.5718307  60.6583672  24.9468060  21.0381088  60.7831078  24.5926056
  50.6147385  68.0453339   9.0040283  49.6868134  68.2160187   8.8426170
  50.7238159  68.1847229   9.9447212  46.0132141  25.4376583  19.7774830
  46.8422813  25.3600941  20.2495632  45.7785645  26.3623371  19.8558655
  53.4147758  58.8734322  57.8046646  52.9624825  58.1739655  58.2762680
  53.7309494  59.4600410  58.4917984  69.9188690  44.5241432  48.1835938
  69.0528107  44.8176498  48.4664955  70.4847336  44.6849022  48.9387016
   7.4339366  60.1217575  38.1954880   7.8623099  59.2711601  38.2914467
   6.5176792  59.9547729  38.4164429   6.3467193  58.8632736  10.8696461
   6.9788198  58.2068748  11.1625977   5.8258600  59.0586166  11.6486063
  76.0332031  17.0266628  52.2100182  76.2761536  16.4395714  51.4941101
  75.7427597  17.8280411  51.7745094  45.2971344  70.6930542  34.0355263
  45.5503197  71.5598831  33.7181244  44.3413315  70.7231445  34.0775566
  32.5124817  48.7948608  17.6133518  33.3648224  48.9753380  17.2168941
  32.0681419  49.6426277  17.6222610  49.8978386  31.3779583  79.2577820
  49.5475464  32.2000237  79.6009064  49.8414383  30.7680244  79.9933319
  13.0834675  46.4413910  21.2235851  12.2639170  46.7477608  21.6117935
  12.8252220  46.0726280  20.3788643  62.6262894  38.4862289  41.0945168
  62.5105591  39.3325462  40.6625595  63.3363152  38.0651283  40.6099892
  72.8899841  20.1950340  66.8004990  72.7384033  20.7737274  66.0532532
  73.8401947  20.0828514  66.8276749  70.0870056  68.8710480  47.8785934
  69.4961014  69.0534668  47.1479874  69.7442093  69.3971939  48.6010132
   4.4315538  43.4940224  14.3149176   4.7286835  44.1801300  14.9125805
   5.2325621  43.1754150  13.8988571  38.4127045  37.3460808   2.1510015
  39.0694733  36.6574860   2.2545786  38.2293167  37.6384048   3.0438318
  79.0975494  13.9328070  51.4423218  79.7946396  13.8319397  50.7941551
  78.4867020  14.5520048  51.0427132  39.1874466  68.2612762  58.6671486
  39.5513382  67.3809967  58.7615738  38.2434502  68.1427689  58.7723045
  16.3240948   7.0904169  29.4064236  15.4598122   7.4421825  29.1930943
  16.7290401   7.7645583  29.9521198  82.2701187  43.5660858  59.3383217
  81.4390182  43.1818466  59.0592766  82.1904831  44.4943771  59.1188431
  31.6498833  59.1226654  23.2305832  31.2968407  58.2339783  23.1878548
  32.5994263  59.0027199  23.2452717  16.9073277  17.0457401  83.3644028
  17.7274342  17.2082157  83.8305054  17.0055676  16.1630707  83.0073700
  56.6225281  62.4877052  57.1190529  57.1003876  62.6772346  56.3116150
  55.8669434  63.0747948  57.0936241  44.4189301  42.3394165  65.6740265
  44.1583519  42.7761917  64.8631287  45.1857834  41.8206940  65.4309311
  35.4573212   0.1676277  12.7104235  35.8787689   0.6270126  11.9840765
  34.7745781  -0.3600788  12.2961559  40.8913269  16.1903400  82.2370605
  41.3882637  15.7414093  82.9209824  40.0653038  15.7093563  82.1863174
  61.1487236  11.0416498  22.6148682  61.0381393  10.7161417  23.5082035
  62.0647049  10.8593264  22.4051857  44.2503853   7.1832333   1.4322135
  43.6381264   6.8768978   0.7632380  43.7179565   7.2687149   2.2230637
  85.5600128  27.5046902  58.0602875  86.3100739  28.0980740  58.0994682
  85.9445724  26.6427498  57.9009132  78.4155502  46.9866753  56.6112061
  78.5007553  47.8931847  56.9065285  79.2820435  46.7630005  56.2714958
  47.9100685  34.0985718   0.2574642  47.5745926  34.3185158   1.1265521
  47.9038544  33.1416969   0.2334323  62.7911110  69.0075684  62.7849388
  63.4894485  68.3991928  63.0266724  62.0114136  68.4579849  62.7058258
  72.3332748   9.5031214  37.9163017  71.4028854   9.4033957  38.1179428
  72.3605576   9.6299181  36.9679298  23.0984612  36.5577660  24.3347893
  22.1845512  36.3139610  24.1879578  23.1055012  37.5125389  24.2670174
   6.8699131  28.9505234  30.4718952   6.9188209  29.4509621  29.6574020
   7.6850119  28.4491806  30.4942837  10.5221167   0.3619824  47.5767860
  10.1469221   0.6549392  48.4072304  11.1376190   1.0539248  47.3347015
  70.7673721  17.1278267  29.1701450  70.7843857  16.5000381  29.8925171
  71.2829056  16.7118988  28.4791584  48.0349731   8.9973507  43.6864777
  48.2319412   9.9338017  43.7087517  48.2548676   8.7274895  42.7948189
  14.2573547  67.9360504  32.9605904  14.3174000  68.7145081  33.5143394
  13.3734941  67.9699860  32.5947075  40.7277412   8.9407597   7.2098346
  40.4050865   9.8378220   7.1237769  40.3938599   8.4906578   6.4338436
  50.6869240  57.2874336   2.8113420  50.4054909  56.9183922   3.6485007
  50.3541069  58.1848602   2.8212101  50.2982330   7.6045794  53.5276184
  49.4529037   8.0339746  53.6590271  50.4929695   7.1959243  54.3710136
  48.3620949   8.8794165  88.0541916  47.5029678   9.0391474  87.6635208
  48.3487549   9.3749933  88.8730011  15.5032253  12.0519075  66.0977631
  15.2213974  12.8549814  65.6597290  16.2676964  12.3143921  66.6105194
   1.0575030  38.8331757  55.6758575   1.9564855  38.8731079  56.0021515
   0.6898635  39.6928406  55.8809280   6.6832170   5.9000540  60.1175346
   6.5390439   5.0237784  60.4747276   7.1909199   5.7528663  59.3195343
  29.8001728  54.7638550   9.0172606  29.4331455  55.1676865   8.2308483
  30.2881088  54.0071106   8.6924686   3.6466630   0.7450148  23.6074276
   4.5568266   0.6700006  23.8941441   3.5717635   0.1237998  22.8830566
  82.3689346  10.3443012  33.2247849  81.7293243   9.9786987  32.6136665
  83.1769562   9.8652306  33.0408440  22.9825020  38.6549454  35.6533623
  23.4128151  38.3917313  34.8398628  23.4174862  38.1390152  36.3322105
   0.2381338  70.9270859  41.7401466   0.6712993  71.7673874  41.8901291
  -0.5501059  71.1490479  41.2445221  52.1257286  35.4302902  40.0780067
  51.5807800  35.4845772  40.8630638  51.5338135  35.1102829  39.3972244
  10.2837219  57.4672813  32.8574142   9.8526096  56.6314201  33.0354996
  10.4929209  57.8181038  33.7230873  21.0351505  66.8802643  19.1914177
  20.8938179  66.3751144  18.3907394  20.1640892  67.1952896  19.4327564
  50.9111671  48.3711357  14.3793793  50.2531319  47.9053688  14.8954067
  51.6513977  48.4791679  14.9765520  75.0161667  55.7247887   3.6018159
  74.9864197  56.3953552   2.9194026  75.7944565  55.9403419   4.1156549
  35.5072021  61.5334244  38.2401581  34.6632347  61.7636719  37.8516579
  36.0581474  62.3013458  38.0885353  32.8558235  25.3941574  65.3286209
  32.4613380  24.5234184  65.2793198  33.7962952  25.2277679  65.3923492
   0.9571362  51.2319756  86.2719803   1.8434044  51.3539314  85.9315567
   0.4399239  51.9137650  85.8431625   2.4717152  36.1084671  33.0091095
   1.8413382  36.8266602  32.9538689   2.6033075  35.8349266  32.1013145
  37.9421234  25.5676651   3.3140616  37.5159912  25.5954819   2.4574006
  37.8044281  26.4419708   3.6785660  22.5984573  59.2505379  54.4586983
  22.9053059  58.3470650  54.3824730  22.6793251  59.4531250  55.3907127
  70.0464630  41.4418373  26.3247070  70.2299576  41.0480461  25.4717751
  69.2719269  41.9843597  26.1763935  11.0003891  46.7953873   4.8459210
  11.5692043  47.0155754   4.1082230  10.1916456  47.2788887   4.6774206
  61.0417938  70.6408844  38.0593987  61.7369232  71.1388855  37.6292610
  60.3703384  71.2924118  38.2616005  46.0983543   5.8655229  31.8685722
  46.5058174   6.7297916  31.9255333  45.1793900   6.0190406  32.0880547
   5.4456015  13.0490637  15.9334850   4.8363900  13.3644409  16.6010418
   6.2851562  13.4433498  16.1699543  70.9058151  69.4970016  53.3514214
  70.6705093  68.8475418  52.6888008  71.8253937  69.6962204  53.1755943
  65.3979034  17.2840652  28.8543491  64.5939713  17.1761818  28.3461304
  66.0654678  16.8216801  28.3476124  68.6804276  23.8897953   1.4653461
  68.7112732  23.1134796   0.9062263  68.7125854  23.5439777   2.3573141
  50.3506584  16.9736786  36.3293076  49.5459557  17.2558880  36.7640953
  50.1077385  16.8891029  35.4073143   5.7891607  71.6402054  52.6001282
   6.5145035  71.0156784  52.5916252   5.0038767  71.0960541  52.5413094
  55.0139275  15.9983473  18.0884686  55.1660767  15.3543711  17.3968201
  54.3203430  16.5607662  17.7437115  39.8086472  57.1452713  70.8873367
  39.4186363  56.7528152  71.6684265  40.6154900  56.6495705  70.7476273
  55.3560028  65.4360352  77.9218903  55.6996307  66.3109360  77.7410812
  54.6810608  65.3015976  77.2565994  44.9442596  33.7214279  75.7327805
  45.8973045  33.8040161  75.7662506  44.6611481  33.8453293  76.6387177
  24.0633850   2.8808737  25.7810822  23.6144238   3.6935592  26.0139065
  23.5743866   2.5436649  25.0304813  27.2011681   6.3259912   2.9128239
  27.2396851   6.8749371   3.6960266  26.2811317   6.0709524   2.8441043
  31.6431046  37.7539444   4.0254054  31.1694355  38.3036346   4.6496725
  31.1823521  36.9152145   4.0470920  64.7455063  61.2828484  54.2287865
  64.7984619  61.4055901  53.2809677  65.6035385  61.5554504  54.5539093
  30.7911587  68.4689636  43.3828392  30.7046680  68.6249924  44.3232651
  29.9365807  68.1296539  43.1167564  27.7990990  68.2172852  68.5024872
  28.2359943  67.4089432  68.2342682  26.8835926  67.9657211  68.6241302
  32.5192795  70.9745026  43.8068733  33.3346748  71.4527054  43.9574966
  32.7714539  70.2422943  43.2442780  82.9921417  34.1379547   8.8339262
  82.2675858  34.1419678   9.4594078  83.6390457  34.7330208   9.2129421
  40.2053032  40.7556572  16.4085617  39.8512421  39.8750725  16.2842865
  40.4319801  41.0493927  15.5261974  10.6975346  12.5629482  86.4426880
  10.0807362  13.1079998  85.9541092  11.4975214  12.5766363  85.9172745
  74.9076233  68.3576889  44.3133430  74.2820969  67.7918777  44.7658958
  75.2590332  67.8117981  43.6099625  11.8888102  28.0243187   3.7824512
  12.7229242  28.2507877   4.1937881  11.5466909  28.8580456   3.4598262
  61.6419945  20.8790150  41.9327927  62.4889755  20.4494133  42.0523758
  61.0075722  20.1622601  41.9341583  59.6922874  43.9421921  39.4204712
  59.6476631  44.0233536  38.4677620  59.0856323  43.2317581  39.6290054
   2.2217929  36.5931015  49.6381607   2.4296575  36.0450363  48.8814278
   2.2833364  36.0004234  50.3872757  68.5986328  45.0055008  88.3279648
  69.1175308  44.7478600  89.0899353  69.2451630  45.1617241  87.6396179
  60.1127129  49.6027298  23.7129707  60.2779045  50.3177719  24.3275108
  60.4471397  48.8233795  24.1568203  67.8780441  48.2528687  72.4014282
  67.2854156  48.2564278  73.1530991  67.3270569  48.5061455  71.6608276
  61.0111198  35.1501427  21.0067177  61.4959641  35.8869476  21.3785763
  60.2041855  35.1108856  21.5200920  55.2751617  46.7606659  79.0258942
  55.6839447  47.1375999  78.2467651  55.8803444  46.9679489  79.7379456
  59.2789726  70.3061523  53.8415108  59.9951363  69.9506149  53.3152618
  59.3531570  69.8553772  54.6826591  28.0551395  42.2161064   9.0886383
  28.1591740  42.8408813   9.8063173  28.6091328  41.4750748   9.3339891
  67.7814560  30.7528152  53.3976479  68.1581573  29.8761387  53.4735680
  67.8720016  31.1290531  54.2731361   5.3541842  22.4250317  21.4989700
   5.5036416  23.1989193  22.0421009   5.1811876  22.7754421  20.6251774
  49.0484314   2.6625314  16.5707722  49.2636070   3.4059997  16.0075798
  49.5798492   2.7950377  17.3558006  54.7916374  46.1206589  87.4266281
  54.8781319  46.5562668  88.2745590  55.6639366  46.1796761  87.0369568
  10.7648373  29.9948578  78.1417847  10.1626310  29.2550793  78.0623550
  11.4347887  29.6935139  78.7554474  43.5669174  36.5220947  41.2561302
  43.6872330  36.2178459  40.3565788  44.4184456  36.8830414  41.5028038
  29.5207710  47.9974251  12.7981644  29.6280098  47.6406364  11.9164429
  30.3552418  48.4271851  12.9857683  75.6053391  17.7371635  80.8017426
  75.6514206  16.8643303  81.1919556  75.2063217  17.5950050  79.9433594
  50.4979820  69.3436737  41.5681953  50.9817467  69.2644043  40.7460518
  49.6828461  68.8663559  41.4134369  56.6807709  53.7423286  66.6441269
  56.7513390  54.5065918  67.2161026  55.7539902  53.7048950  66.4076691
  52.3462296  67.3234558  86.7477112  52.3036118  67.9018784  85.9862366
  51.4312668  67.1691666  86.9827957  54.4879608  50.1594849   8.1499615
  54.3225479  50.2477188   7.2112999  55.2563934  50.7072525   8.3102760
  48.4639816   6.6522193  62.2894897  49.3039894   6.7257061  61.8364754
  48.3639717   5.7153163  62.4581375  46.1101952  32.3209305   7.2265606
  46.0501175  32.8388367   8.0293026  45.6234169  31.5200653   7.4212294
  19.1068153  55.5711517  72.3119812  18.1778316  55.3671227  72.4196625
  19.5594654  54.9105415  72.8363190  63.7105751  64.1018143  81.8819962
  64.1612015  64.8449631  81.4808807  64.0153198  63.3413429  81.3869781
  62.2598953  71.5624771  11.3967543  62.7153854  70.7461624  11.1908360
  61.4462013  71.2833939  11.8165722  44.2866096  33.1436272  39.8017349
  44.3070030  32.6547737  38.9790306  44.2395782  34.0613861  39.5339012
  15.4668026   2.5435426  78.9981842  15.6325245   2.1356952  78.1482239
  15.9635210   3.3613653  78.9723358  54.6992073  14.0303335  52.9469299
  54.8458328  14.1762514  52.0123482  54.5963478  14.9086685  53.3132362
  72.2544174  28.2737236  10.2754908  71.6392059  27.8649368  10.8842869
  72.2057419  27.7333736   9.4868927  68.4605637  58.0327568  79.7435608
  67.6295242  58.4570923  79.9569626  68.7109909  57.5783882  80.5479660
  20.0083256  64.9198456  36.8002281  20.7167225  64.4449844  36.3655815
  19.3745804  65.0941467  36.1043701  83.3415298  41.7758827  29.2316246
  83.7054443  42.1305618  30.0427971  82.5625076  41.2939072  29.5092258
  69.7949677   3.2179587  15.3954859  69.7756500   3.2465703  14.4389086
  69.4300308   2.3612051  15.6168995  42.7635574   4.4522414  71.3303452
  42.5341492   4.9225192  72.1318665  41.9783211   3.9490836  71.1147842
  83.2609558  16.5567284   1.9009261  82.3066788  16.6135368   1.8522431
  83.5658340  17.4293365   1.6522632   0.7629113  27.6343994  75.4437332
  -0.1841431  27.6357307  75.5827179   0.9199256  28.3742390  74.8570328
  53.3528976  40.4905510  12.8451691  52.4643326  40.8412819  12.7846088
  53.4965858  40.0557785  12.0045986   4.3544798  50.9174500  74.5883865
   4.9288921  50.1524506  74.6208954   4.5369954  51.3180618  73.7384338
  84.1632767  65.1725464  39.2460594  85.0337830  64.7901917  39.3567924
  83.5856323  64.6047516  39.7561378  53.7215500  22.7594757   0.7290636
  54.5828667  22.9462719   0.3556038  53.7828979  23.0612450   1.6353767
  75.8485336  41.9527359   9.6552038  75.2748718  41.3059502   9.2443352
  76.0915527  41.5592690  10.4932709  72.7351303  68.0420609  10.6138830
  72.3287582  68.4123993  11.3974257  73.6328583  68.3738022  10.6300869
  71.7698288  65.5143585  71.2136917  71.5421524  65.4091492  72.1374435
  70.9308624  65.4764709  70.7544098  76.7445526  28.7607517  16.4778404
  76.6487503  29.3112946  15.7006950  75.8536911  28.4750519  16.6802731
   8.6094942  13.3668127  67.4311142   9.3800402  12.8261242  67.2574768
   8.9234171  14.0467815  68.0272064  72.4121094  45.1919594  28.2416229
  73.0269241  45.8462372  28.5735226  72.8419189  44.8309937  27.4662552
  57.0720634  45.1596222  62.0515060  56.9354248  44.4650002  61.4072495
  57.5498924  44.7349167  62.7639236   7.5657687  58.9029503  56.5334969
   8.0668478  58.5709343  55.7885704   6.7335072  59.1864510  56.1550789
  84.5181427   3.6335819  77.6661758  83.8049393   4.2280660  77.8988876
  84.2382431   2.7813621  78.0002594  65.5668335  55.4524727  53.9132042
  66.4460297  55.5694542  53.5532570  64.9903641  55.8832283  53.2820473
  55.0102425  45.0904388   9.2759724  54.6646690  45.9830780   9.2734203
  55.0813980  44.8585052   8.3500271   0.3786605  -0.0245235  36.4743538
   0.9287117   0.7564585  36.4131737  -0.5134907   0.3008634  36.3542633
  61.7751122  20.9967957   7.5035009  61.3435707  20.8811436   6.6569629
  61.1868973  21.5692501   7.9959726  84.3645248  23.8390694  30.0825081
  85.1465302  23.6771297  29.5548038  84.4382553  24.7567291  30.3446102
  23.2278271   9.3285646  29.1030941  23.9674854   9.9153414  29.2606678
  23.1624203   8.8057060  29.9022007  27.6347542  50.1113129  77.6110153
  27.0034866  49.4536057  77.9028320  28.2682858  49.6198578  77.0881958
  84.3056335  36.3717308  47.5372391  84.5788803  35.4550705  47.5011978
  84.8396378  36.7536278  48.2338181   3.0323024  21.1611996  38.6913910
   3.4146216  22.0387001  38.6988640   3.6658387  20.6198978  39.1624069
  43.1917000  70.3692169  44.0615463  43.4380722  70.1509323  43.1627235
  43.4421120  69.5993271  44.5722275  69.9089508   6.7796993  76.3259125
  69.6549377   6.1472569  76.9980164  70.8371964   6.6047707  76.1710129
  12.4608622  18.9311085   0.7212957  11.5704212  18.6812363   0.9680940
  12.5418997  19.8413029   1.0062717  66.6957169   7.4270272  85.0867157
  67.6429520   7.5597939  85.1234055  66.5543671   6.5876760  85.5246048
  41.7074356  42.1436501  24.7594433  41.1199226  42.2636414  24.0133476
  42.4449310  42.7267914  24.5797691  59.8907204  70.3428116   5.6083765
  60.4396324  69.7707977   6.1447797  60.2854424  70.3054047   4.7371554
  11.1391582  58.2951775  85.3863144  10.2690105  58.6855240  85.4682007
  11.6713238  58.9793434  84.9801788  57.6662865  42.3632736  20.4209385
  57.0989075  42.7381134  19.7472878  58.5403900  42.6890297  20.2063179
  74.2692642  54.8108788  67.0845413  74.8626251  55.1472435  66.4129639
  73.7168884  55.5586662  67.3124084  13.4496794   2.7987897  -0.0780635
  12.8104286   2.4261565   0.5291722  14.2980080   2.5184085   0.2653849
  68.7064590   7.7829862  44.1779442  67.8249588   7.7479496  44.5493851
  68.6230164   7.3609095  43.3228874  71.1379471  32.8764496  13.3402224
  71.4424438  31.9727573  13.2574291  71.2620316  33.2518158  12.4684811
   1.0247049  64.1308441  66.8333435   0.7404586  63.6161308  67.5886688
   1.1489379  63.4858742  66.1370621  56.8726654  43.4854774  59.6149292
  56.5427475  43.0811577  58.8124886  57.7178841  43.0624733  59.7662659
   7.3478060  55.9227791  53.7194099   6.5504446  55.4023972  53.6211777
   7.4239235  56.0687103  54.6623535  76.9031601   6.2028894  45.4741898
  76.7839737   7.0112567  44.9756241  76.1265335   6.1482229  46.0310478
  59.4550629   0.4858672  15.4390850  58.9514885   0.8912394  16.1450005
  58.8104401   0.3154866  14.7523060  25.3113632  57.1070938  38.8074493
  24.8233261  56.2865524  38.7384453  26.1945972  56.8860130  38.5120659
  32.2573586  35.3620529  65.5881348  32.1517601  35.0545006  66.4884033
  32.9601440  36.0100555  65.6372833  70.1528168  52.1630745  49.2300034
  69.8991013  52.5345612  48.3851013  69.5897293  52.6056671  49.8650398
   9.4105759  17.6949825  18.3936806   9.1167326  17.4421291  19.2688675
   9.8758383  16.9254780  18.0656166  24.4089680  56.9095917  23.3456955
  23.6819878  56.7777901  22.7371235  24.9158001  56.0993347  23.2924500
  37.5115356  43.1417923  78.8921585  38.1680069  42.8215637  79.5108032
  37.1184082  43.8969688  79.3296356  28.1868057   7.6035681  12.7789268
  28.1323853   7.6494470  11.8243771  28.2977448   8.5129004  13.0564842
  53.4227982  40.9815102  32.9843788  52.4993935  40.7294922  32.9777145
  53.7334976  40.7298050  33.8540573  10.7304745  18.0166626  83.0887451
  10.7699547  17.0658569  82.9855957  11.4868984  18.3421326  82.6007614
  43.8548508  41.6869621  59.3447266  44.0615273  42.4780731  58.8470726
  42.9041634  41.6009407  59.2738419  57.1940765  34.8173294  59.3200798
  57.1778183  34.6332741  60.2592773  57.8370667  35.5199814  59.2248077
   5.0750446  59.3575439  26.2935467   4.9533305  58.8252792  27.0797482
   4.7711339  60.2296066  26.5452862  70.2505951  55.1519661  79.2055054
  70.8442383  55.8263435  78.8752899  70.7352753  54.3333969  79.0993881
  36.8554764  37.1944733  68.2846069  36.9919853  36.7086220  69.0979614
  36.1694260  36.7081566  67.8273773  19.9404831  44.6688080  15.2416687
  19.5544167  44.4219208  16.0820446  20.0317974  43.8420830  14.7679367
  66.3228989  33.3997154  46.7673035  66.3508530  33.7814331  45.8899574
  67.2158432  33.4951935  47.0986099  55.9929543   6.5137978  19.7285805
  56.3192482   7.1054139  20.4066315  55.9225235   5.6648397  20.1650925
  23.1324368  11.6424685  74.8319016  23.2637577  12.5115719  74.4528961
  23.3036804  11.0379086  74.1098099  76.1755676  48.8425598  38.8385925
  75.2374802  48.6658554  38.9093819  76.4987335  48.7845535  39.7377205
  72.6943130  70.0139542  46.8753891  72.3007202  69.1432343  46.9317360
  72.7322693  70.1993713  45.9370880  84.1198578  45.2868080  32.2259750
  84.5179291  45.7164993  32.9830322  83.2425308  45.6654167  32.1695633
  48.1667252   3.3629878   1.0331124  47.5936623   2.7744343   0.5417477
  48.0718002   3.0844979   1.9439716  72.0326385  45.5772591  80.0876694
  71.0891724  45.5390816  80.2446289  72.2906799  44.6649208  79.9561844
  63.6416359  62.0496407  49.3753510  62.6932907  62.1762543  49.3464127
  63.8050919  61.3251801  48.7714729  37.1835709  28.7772465  88.3369293
  36.5793991  28.8026142  89.0789337  36.8407173  29.4299526  87.7264709
  30.7746449  65.6730499   7.3541136  29.8707714  65.4790802   7.6023493
  30.8725510  65.2856140   6.4843183  84.2718124  57.5472717  18.7849541
  83.9762726  56.8724060  19.3960533  83.5155640  57.7068329  18.2202702
  73.2959824  45.6247673  49.2615395  74.0661926  45.2911720  49.7216644
  72.5545120  45.2161865  49.7082138  65.7746658  24.8359928  57.8973923
  66.6358643  25.2538071  57.8968697  65.9092255  24.0105095  58.3629074
  86.6175232  61.4791603  49.9277840  86.6043243  61.2972069  48.9881287
  86.2092438  60.7105904  50.3263283   0.6516683  33.1036911  81.4943848
  -0.2186459  32.9026566  81.8384399   0.7800399  34.0308876  81.6945343
  55.5476761  68.4520187  59.4495811  56.1656380  68.5251083  58.7222481
  55.0387306  67.6654510  59.2533340  52.3500328  53.6999817   4.2707143
  53.1661110  53.5529709   3.7925549  52.5386276  53.4068336   5.1621885
  80.0210114  39.0509186  36.4294434  79.8929901  39.9930573  36.3189087
  79.2504807  38.7601051  36.9172287  42.5880165  68.0949173  14.5299988
  42.3601875  67.6519012  15.3473501  41.8632812  68.7009430  14.3759623
  26.2168846  56.9247360  75.9307556  25.3253498  56.9216309  76.2791672
  26.4202976  57.8510971  75.8014984   2.8355842  20.6771374   7.0942650
   2.4034541  21.2244282   7.7499838   2.1384063  20.1174526   6.7523170
  64.7354889  62.8100395  68.7365265  65.3923645  62.1534271  68.5049896
  64.9907990  63.1065712  69.6100922  15.3248577   3.7839699  70.6202927
  15.6587410   4.3901916  71.2815399  15.9896832   3.7907519  69.9316711
  35.4724388  33.2922783  64.5268555  35.2161484  32.3956070  64.7425461
  35.8314629  33.2323875  63.6415634  32.6912003  25.8567944   4.0142970
  33.2371140  26.5600109   4.3660045  32.4154968  26.1747856   3.1545870
  34.5600739  55.5566406  31.0114975  34.2833939  55.2663651  30.1423473
  34.4890022  56.5106544  30.9792786  73.6914368   1.1504452  69.4817734
  73.4907379   0.3314387  69.9347458  73.2269363   1.0828212  68.6475677
  11.9971027  53.1992340   4.1386671  12.4088306  52.4082108   3.7908292
  12.3003378  53.9004745   3.5620012  11.3233671  62.8111343  72.0452805
  11.0684910  63.5985603  72.5261383  11.9429970  63.1232529  71.3858261
  10.2906046  49.0285454  32.5411949  10.6932793  49.3426895  31.7316265
   9.4089060  48.7608871  32.2819710   5.5526547  43.5187416  29.7857399
   5.2035055  43.1188622  28.9892330   4.8130240  44.0005836  30.1558857
   1.4841772  22.5156193  48.8935547   1.2322437  22.1535416  48.0440483
   0.6883301  22.4612694  49.4226151   2.8907766  58.2637520   6.1779480
   2.5856392  58.3862381   7.0769029   2.9470870  57.3141670   6.0714173
   9.6510344  65.6897202  27.3476391  10.1746473  64.8944931  27.4459782
   8.8144426  65.4784088  27.7619972  55.5541534  57.7595444  22.0096035
  55.9688377  58.1842346  22.7605419  55.2298698  58.4835167  21.4739437
  76.5013962   0.9700767  68.8369598  75.5670166   0.8214019  68.9820709
  76.8524551   0.1039258  68.6301422  46.5823212   0.1945397  62.9576797
  46.9321594  -0.0148853  62.0916634  47.3360710   0.5237567  63.4472847
  65.6074448  60.3959885  11.2461834  64.8956146  59.7592621  11.1820822
  66.4028015  59.8802452  11.1133518  32.2372704  64.7256622  67.2504044
  32.2485313  65.2680359  68.0390320  31.6229439  64.0202866  67.4535904
  77.1533356   9.9309139  18.2887650  76.4625397  10.3609734  17.7846966
  76.7414703   9.7177038  19.1261082  49.1335449  22.6088238  75.1405792
  49.0649567  21.6932983  74.8697662  48.2996979  22.9991646  74.8787308
  73.5208588  39.8827248  67.1224518  74.1033936  39.3839684  67.6952744
  73.7146149  39.5585518  66.2429047  32.7382889   7.1403317  54.2940865
  32.9282494   7.5362630  53.4435654  33.5204887   7.3122082  54.8183517
  59.7540855  30.7432766  35.1398926  59.4585457  30.7201614  34.2297516
  60.4641953  30.1025238  35.1774750  27.2890415  59.6775894  51.5568161
  26.4515133  60.1388130  51.6021194  27.2545929  59.0472908  52.2763786
  16.4630318  59.1056023  80.2778397  15.8950958  58.3909416  79.9898453
  17.3265190  58.7029915  80.3701553  64.3520279  50.8662796  35.1309090
  64.0914993  51.7019806  35.5181503  64.6440582  50.3385696  35.8741951
  36.7448196  45.9351959  10.5783482  37.4130707  45.8750381  11.2610292
  37.1788712  45.6112823   9.7891026  36.5366364  45.5689392  79.9250107
  36.7823639  46.4760437  80.1067123  36.1685066  45.2508087  80.7493362
  57.7348938  25.4076920  56.4699059  58.3574409  25.6685143  57.1486053
  57.4902344  26.2278748  56.0413322   6.9524403  42.9748039  78.7995834
   7.0888901  43.9217606  78.7697678   7.8245621  42.6119080  78.9543152
  51.5299225  30.8797913  74.7278290  51.9533463  30.1316204  75.1487656
  50.6813164  30.5437164  74.4394608  82.2350006   4.9343395  49.1906815
  82.7088547   4.5100999  49.9060249  81.5550537   4.3058877  48.9478912
  44.5282974  54.7075005  76.5731125  45.1291161  54.1099548  76.1279297
  44.3113556  54.2626419  77.3924255  36.8789177  10.0879812  73.4411240
  37.2992058   9.4582243  72.8554688  36.6972313  10.8466234  72.8864288
   9.5714378  24.8860302  63.1116753   9.2976007  24.1418285  63.6477776
   9.3664722  24.6231346  62.2143974  38.1560478  23.1049976  71.3059921
  37.6106339  22.9220505  70.5409470  38.5648804  22.2651253  71.5150375
  40.6011772  56.7608795  13.3890066  41.2633781  56.0908089  13.5585012
  39.7837868  56.3748512  13.7037888  12.8820868   8.1711264  46.1487846
  13.1162043   8.0919809  47.0735321  11.9868822   8.5099173  46.1565018
  27.7872410  12.3305578  28.6358013  27.8407784  13.2653837  28.8344631
  26.8689194  12.1060276  28.7858124  46.8223686  62.0106506  14.2635860
  46.0397491  61.7935410  13.7570238  46.5265427  62.0089607  15.1739254
  24.0474510  27.0242786  65.0570374  24.4326019  26.2123756  65.3867416
  24.1533966  27.6484528  65.7749634  66.5884552  37.9797325  60.3757858
  66.8164749  37.1179581  60.0271034  65.6317520  38.0015602  60.3537025
  39.7480507  39.0329933   5.9843955  39.0261841  38.4650002   6.2537036
  39.8521767  39.6483841   6.7101245  65.6650314  44.9791603  24.5754356
  66.1224594  45.6812859  25.0380554  66.0906601  44.9396515  23.7189827
  74.8388443  66.9969025  23.8273106  74.3395309  67.7875519  24.0317383
  75.0401230  66.6133499  24.6808968  84.1379395   3.1462033  11.3594332
  84.2157822   3.8444598  12.0095177  84.7971802   2.5026157  11.6191111
  71.2232437  36.7569923  80.1894913  70.7904205  36.8826675  79.3450394
  71.7023392  37.5724678  80.3367844   0.3486895  20.7145519  41.9716644
   1.0359945  21.3799210  41.9381180   0.2682621  20.4075413  41.0686073
  40.3106689  68.2340546   7.9541116  40.7120476  68.6480865   8.7181158
  40.5082893  67.3029099   8.0548210  11.1873074  17.9945164   7.9493508
  10.3027887  18.2556629   8.2055941  11.1488018  17.0396442   7.8948822
  16.1579037  59.9662018   1.4178786  16.7911034  60.6473770   1.1914113
  16.4032784  59.2197838   0.8711776  35.9197502  26.2792130  14.4806366
  35.4276085  26.7818356  13.8314848  35.9689789  26.8559170  15.2430134
  41.3995476  66.1208038  12.7370787  40.5339279  65.9089737  13.0864534
  41.5521584  67.0261230  13.0078974  58.9237862  41.8713684  78.5059433
  59.5503387  41.1477966  78.5163574  58.9453888  42.2197495  79.3972321
  53.7832527  10.3947802  28.9122219  53.6894226   9.4804277  29.1794090
  53.5378342  10.4003468  27.9870358  15.6461029  25.0464935  85.7151489
  15.6438255  24.8248177  86.6463242  16.5697098  25.0208569  85.4651031
  51.8320618  49.0011444  60.4861107  51.0225449  48.5436020  60.2590408
  52.5190620  48.5107613  60.0346832  68.2451630  27.1954479  14.0840759
  67.9333878  27.1060867  14.9846544  67.4469757  27.2536945  13.5589600
  42.6247787  51.5122375  77.1225510  42.6751289  50.9440880  76.3538513
  43.4880638  51.4411430  77.5298843  30.7518749  59.3850899  67.1053391
  30.0710564  59.6005974  67.7427368  31.5690060  59.6456375  67.5303574
  10.1921253  64.8957748  22.8590908   9.6947279  65.4382706  23.4710770
  10.1852512  65.3909378  22.0399475  32.1985092  62.4763641  26.4978065
  32.3571930  63.3246269  26.9119339  31.4824543  62.6397324  25.8839588
  43.5031242  63.2154999  87.2794037  43.1608429  62.9020844  88.1165695
  42.9967690  62.7402840  86.6206131  83.7019958  61.4989395  18.0206432
  83.6913452  60.7866821  17.3812656  82.8845139  61.3957405  18.5077896
  39.0656433  38.0762711  16.3424950  38.4228859  37.6004448  16.8685055
  39.7238655  37.4190865  16.1164780  28.9509029  15.7594128  65.3225098
  29.7273941  16.2841492  65.5173111  29.1839485  14.8739986  65.6017303
  53.3495941  15.2668152  42.4643135  52.9973564  15.8060865  43.1723709
  54.1235161  15.7427540  42.1630440   9.3632736  31.2757339  11.6596003
   9.1872759  30.4517193  12.1137543   8.5574408  31.4601059  11.1770306
  28.7871857   5.7777281  34.6869202  27.9156113   5.5233908  34.9900742
  28.6750164   6.6687808  34.3557472  22.3237000  32.6455460   4.6779337
  22.1644211  32.4894485   3.7470760  21.6848354  33.3155518   4.9211850
  82.9397354  27.5922813  86.6964035  82.9607620  27.0697117  85.8947144
  83.2114563  26.9854889  87.3850327  70.9434280  25.2248459  85.5048370
  70.8404236  25.1328754  86.4520264  70.2011261  25.7653694  85.2345505
  15.1600761   7.0990043  74.2695236  15.1771097   7.0364089  75.2245255
  16.0332680   7.4128690  74.0344543  23.0989857  24.7133293  63.2085190
  22.7849045  24.3284855  62.3903008  22.3583374  25.2263756  63.5317116
  21.9280453  46.1826553  60.2699127  21.2791214  46.0579681  59.5773926
  21.7231236  45.5056992  60.9148712   5.8557262  15.1106892  79.2590714
   6.6757050  14.6222239  79.1864853   6.0344715  15.9446564  78.8245773
  44.9289322   8.2299871  71.7711411  44.3444939   8.6597357  72.3956223
  45.8075371   8.3924341  72.1144943  38.2522049  13.0025396   5.0686774
  38.4226875  12.6660948   4.1889210  37.9415092  13.8967724   4.9270830
  68.9895477  22.7229710   3.9463599  68.2358551  22.4058304   4.4439564
  69.7345505  22.5975895   4.5341387  52.6533623  68.0615768  67.5456390
  51.9322166  67.8682175  66.9466476  52.6342278  67.3469009  68.1821213
  -0.0024532  28.9978867  68.5020752  -0.6394123  29.3198814  69.1399078
   0.7328199  29.6070461  68.5693817  50.9435654   0.9245968  52.3660545
  50.7131310   1.6293718  52.9713821  51.8980408   0.8704405  52.4137154
   6.0214076  26.1733646   2.7501650   5.4499960  26.6771336   3.3297675
   5.4209323  25.6924744   2.1805995  45.4018097  60.9719849  50.8324471
  44.8784409  61.5043907  51.4314957  45.0016174  61.1133347  49.9744835
  72.3038330  10.0610743  31.3978043  72.6076431   9.4570637  32.0753784
  72.4199982  10.9300556  31.7820034  13.3268242  66.2481918  28.3260860
  14.2595234  66.0628052  28.4353333  13.2839422  66.8154678  27.5562859
  68.8036575   3.7376122  51.1275215  68.6598129   3.4151468  50.2378273
  68.7861710   4.6908712  51.0425301  55.6691742  31.4869995  19.3042946
  56.4674301  31.0528755  19.6052227  55.9788246  32.1812782  18.7226391
   2.1763821  67.8147202  44.3385696   2.2797134  67.0901642  43.7216682
   1.2689047  68.0976181  44.2259369  70.1050568  17.7151279   6.5598178
  69.3115463  17.6591873   7.0922194  69.9835434  17.0537472   5.8786111
  32.2919960   7.8741469  22.0565529  31.8106899   7.9030247  21.2296658
  33.1982651   8.0626469  21.8128796  38.7401962  47.6561890  60.2040710
  39.2740288  48.0499840  59.5140114  38.9212723  48.1873550  60.9795074
  64.4819489  50.6203461  66.2355652  63.7470093  50.5024414  65.6337433
  65.0922318  49.9186935  66.0086975   0.8762597  19.0105057   8.7834339
   0.1458453  18.4132843   8.6220207   0.8768173  19.1372757   9.7322025
  36.5522003  58.9905586  85.1563187  37.0651474  58.1895676  85.2636871
  37.0387955  59.5017128  84.5096512  10.3174553  18.5950813  23.0360394
   9.9174623  18.5115185  23.9016342  11.1910019  18.2173615  23.1383820
  22.4083157  69.8447037  66.6666946  22.2156124  68.9104233  66.5878296
  21.9771004  70.2428589  65.9105453  77.7520370   5.0103841  10.8034449
  77.2150574   4.2518778  11.0327063  77.1723938   5.7614293  10.9306345
  36.1266670  46.8881607  77.1887131  36.3554153  46.6468620  78.0863113
  36.4879913  46.1830063  76.6516495  29.7422619  10.5533953  15.9183016
  29.4570522  10.5083170  15.0056925  29.0965042  10.0337076  16.3969994
  41.1364441  10.5461035  32.2053719  40.3189468  11.0385580  32.1317406
  41.1273842   9.9531708  31.4539871  50.7655792   3.5047991  89.2061615
  50.7753944   4.0431538  88.4147644  49.8482552   3.4974282  89.4794617
  85.1763077  37.9378014  55.5578232  84.9243088  38.4325294  54.7780952
  86.1099014  37.7629700  55.4391975  10.6468534  33.0834999   3.3528743
  10.6104736  33.2351265   4.2972884   9.8007851  33.3915634   3.0280693
   6.6860461  29.6672859  15.7234192   6.7134533  30.4638462  15.1933517
   6.6765251  29.9814472  16.6275463  27.9630413  59.4842148  83.9875031
  28.3118401  59.7023544  84.8517914  28.0467739  60.2940102  83.4840622
  31.4175262   1.0804977   9.7922354  32.2532959   1.4639696  10.0580730
  31.3893337   1.2019970   8.8431969  82.6712265  44.9381065  48.3600426
  82.1777802  44.1190453  48.4033813  83.4339600  44.7880554  48.9185715
  70.1674271  65.9439926  82.1980820  70.8563156  66.5112610  81.8518524
  70.4809799  65.6885910  83.0656586  39.5575981  64.4102478  68.8402863
  39.9620972  65.2107162  69.1747437  39.5376434  64.5306091  67.8908920
  38.7824593  39.5217552  68.3967133  38.3875351  40.0427322  67.6975403
  38.0863266  38.9261703  68.6740417  60.5060425  69.2637863  69.2995834
  60.1535721  68.5001373  68.8425980  60.6348076  68.9657211  70.2000351
  20.6590271  56.5747147  19.6261234  20.5807152  57.5231552  19.7289104
  19.7563629  56.2566681  19.6426544  20.2142639  59.4322968  84.6499023
  20.0593987  58.8364258  83.9169693  20.3728809  60.2818871  84.2384720
  13.7758522  35.7948151  68.9653091  14.1098089  36.4542427  68.3571472
  13.4630737  35.0865250  68.4025269  36.8389931  36.1831017  88.2835007
  37.3200302  35.6308975  88.8998642  36.8273735  35.6795959  87.4695129
  62.6193771  71.2511826  44.7690125  63.0665512  71.3019714  45.6138115
  61.6904602  71.3348541  44.9843025  64.0873108  54.4832573   6.5290742
  63.4437370  55.0177155   6.9942636  64.3045273  54.9944153   5.7494836
  21.1815853  63.7599258  42.7187347  21.6658497  64.3192596  42.1113892
  20.2799683  63.7824898  42.3980942   6.5429897  35.5183334  11.5422401
   7.4732966  35.3765755  11.3671217   6.1789446  35.7880974  10.6990738
  53.9306335   3.8751352  60.4663849  54.4734230   4.3911285  59.8702621
  54.5029335   3.6886406  61.2106438  44.1321983  62.0502434  77.1408081
  43.2101288  61.9232864  77.3641891  44.5351524  62.3580017  77.9526825
  66.9616852  57.5422707  27.4061432  67.3750229  57.5257683  26.5429440
  67.5642090  58.0490379  27.9505596  57.3309937   0.4468576  60.3266106
  56.5048714   0.0312053  60.5735779  57.8984795   0.3225431  61.0873604
  67.0080338  52.6758385  15.0146065  66.7837067  53.2883530  14.3140831
  67.3547058  53.2290726  15.7145958   1.8349849  42.7492218  25.3515663
   2.7776463  42.6562195  25.4893036   1.4683418  42.8049774  26.2340031
  17.6289253  54.7014618  17.0889435  17.5752411  55.4090271  17.7313595
  18.5674343  54.5763435  16.9483070  24.4331436   7.3745246  55.2635574
  25.3742695   7.2381773  55.1543465  24.3631630   7.9852638  55.9972687
  78.5032654  51.9446220  88.6778793  77.8013535  51.4735985  89.1269684
  79.1672974  51.2771835  88.5051956  60.1044159  42.1644783  29.7147465
  60.2656822  42.1012383  30.6561413  59.2236557  42.5331078  29.6468582
  69.6739883  25.5594044  48.8083420  70.1121140  24.8337498  48.3637085
  69.1646271  25.1421165  49.5030785  53.2634811  41.7550926  86.3592377
  53.8966026  42.3503952  86.7604980  53.4991455  41.7446404  85.4315643
   9.0221434   5.9336448  25.1899223   8.3207388   6.4853735  24.8437157
   9.8030052   6.2096887  24.7100410   3.3061340  10.0431690  30.0894756
   3.3245549   9.5454264  29.2720737   4.0674505  10.6208363  30.0353489
  56.6489944  37.8205185  35.9723473  57.0352783  36.9835625  35.7144318
  57.3521538  38.2764473  36.4348640   9.5506840  52.9760704  11.1275883
  10.0037842  53.4160767  10.4083347  10.0097733  52.1418381  11.2251997
  29.1711864   6.8814430  86.7645493  28.4698753   6.2438879  86.8984146
  28.7354412   7.6379447  86.3720398  45.4820175  53.7298889  55.0211067
  45.8597450  53.4780960  54.1784019  44.7262688  53.1520882  55.1270561
  49.4166603  52.7684975  37.0543137  48.8796387  52.5944710  36.2812958
  49.2664185  53.6940041  37.2469139  84.5763626  12.9743242  76.3448105
  84.1854477  12.3904562  76.9948196  85.0973892  12.3969221  75.7868042
   5.9845405  69.8680573  77.8914795   5.4278455  70.6392517  77.7838745
   6.5348334  70.0734711  78.6472702  49.5735207  19.8228245  82.0484695
  49.4980507  20.7070827  82.4071121  48.6692848  19.5199242  81.9657593
  79.4987793  63.6972237  89.1998672  78.8304825  64.2799454  88.8392410
  80.3294754  64.0993652  88.9459839  56.3800888  67.8923416  70.7071381
  55.7709618  67.1543350  70.7304993  57.1773376  67.5326538  70.3182144
  11.1127834  16.2867107  64.5005951  10.7567968  15.4703369  64.1498260
  11.4032965  16.7725163  63.7286949  63.8521957  24.6447506  26.5346260
  62.9196587  24.8255043  26.6526470  64.2189331  25.4720802  26.2227592
  32.1331940  63.0120316   2.0513415  32.8404198  62.5247917   2.4740291
  31.3401623  62.5242004   2.2734911  69.9051437  65.2395401  17.2342854
  69.8920441  64.5661392  16.5541477  69.1864624  65.0021362  17.8202572
  72.8289261  68.9663239  64.2553482  72.3962250  68.9040680  63.4038010
  73.4475403  68.2359238  64.2636337  17.5386887  47.5309219  12.8562756
  16.8640900  47.4938202  13.5343399  18.3359966  47.2344437  13.2951775
   3.0937068  54.6791916  19.7060871   3.1232018  53.7611313  19.4367828
   3.9451756  55.0320435  19.4477692  53.3769302  50.7243767  11.2333536
  53.6138344  51.4208527  11.8457479  54.0531502  50.7600403  10.5568275
  34.3663673  19.0127449  45.9060364  34.1534119  19.8232498  45.4434738
  33.5551834  18.5050144  45.8854752  77.7038345  42.9763641  46.5359802
  76.7617035  42.9630508  46.7046318  78.0656586  42.3346825  47.1471748
  79.1832047  22.2086678  21.9069023  78.6664047  22.9332829  22.2591629
  79.9524765  22.6282177  21.5216331  62.2324905  65.7397079  36.9721489
  61.9619141  64.8531647  37.2110138  62.6638107  65.6380692  36.1237030
  25.0039597  66.0462570  48.8903313  24.5043430  66.5821609  48.2743568
  24.8161850  65.1444168  48.6302185  25.1316566  45.2538414  52.9292984
  24.8736916  45.5715294  53.7946091  26.0185299  44.9156036  53.0529289
  74.6771698   7.9261742  80.6047897  74.5051346   7.8135839  81.5396423
  75.4245987   8.5230846  80.5689926  52.3290863  64.7402039  60.8805656
  51.7527275  65.5041809  60.8608475  53.1923370  65.0855026  60.6529579
  17.5525074  11.0952425  18.6006165  18.0865536  11.6044073  19.2103519
  17.9229107  10.2133484  18.6366253  66.4323425  23.2184715  23.3121986
  66.3568573  23.7938862  22.5509949  67.1317673  22.6069679  23.0817719
  40.0743408  67.2732086  20.9031773  39.2644882  67.4799271  20.4366627
  39.8059387  67.1740570  21.8166122  17.5122719  60.9841499   3.7316203
  17.4796829  60.1729317   3.2245703  16.7449017  60.9409752   4.3021564
  80.9406738  49.7470436  61.4283867  80.1650391  50.1273994  61.8406296
  81.5194016  50.4933815  61.2725372  70.8782120   9.7125158  17.6557503
  71.0022125  10.4799032  18.2142944  70.2620850  10.0028372  16.9831982
   7.5031519  32.8903656   8.1638985   7.1344442  32.5361824   7.3546758
   7.7105122  33.8009949   7.9541607  51.4059219  27.0525036  81.5753632
  51.8039093  27.3542461  80.7587891  50.4646721  27.1563892  81.4357529
  84.2700043  60.9938354  81.9181824  85.0825348  60.6540222  82.2930984
  84.3848038  61.9441223  81.9191971  28.0042648  52.5126953  69.0470276
  28.5041752  51.7964134  69.4385147  27.5615349  52.9282112  69.7870102
  69.1013031  65.9911194  34.8050308  68.8742828  65.5829544  35.6405525
  69.3637009  65.2605133  34.2450294  76.1506577  19.1342678  55.9845924
  75.2543716  19.3280640  55.7101097  76.6844940  19.7947407  55.5429764
  62.9474411  33.9119759  23.1800861  62.2841148  33.6404915  22.5456352
  62.9657021  33.2048225  23.8249359  46.3611946   1.3997166  46.2036018
  46.1024284   2.1529250  46.7345886  45.6837959   1.3373455  45.5301971
  53.0504951  23.6238174  64.7087555  53.4202995  23.3072491  65.5329285
  53.4774399  23.0940075  64.0355148  24.1447868  51.0763550  59.6756439
  25.0657177  50.8161774  59.6962395  23.6644917  50.2734680  59.8779335
  36.8188248   3.5509181   9.7929897  36.1962585   3.5291510   9.0662374
  37.0940285   4.4662099   9.8452835  58.8788795  39.3676147  55.3022652
  59.5348969  39.6838722  54.6810875  58.9353752  38.4137802  55.2453766
  68.3358154  30.1533318  58.1407814  67.9828415  30.7877712  58.7645798
  67.9453278  29.3190002  58.4008675   0.3496091  15.5772333  33.1019745
  -0.3667754  15.1239405  33.5464401   1.0481386  14.9251118  33.0469704
  37.8015327  69.7111893  84.0829391  37.3675270  70.4137802  83.5989609
  37.6064758  69.8970947  85.0014343  70.9381027  53.5898132  36.2165642
  71.4055557  54.4098282  36.0575447  70.1609726  53.6453972  35.6604881
  75.5858459  66.1737366  32.5457764  74.8205643  66.0833435  33.1135750
  76.3034210  65.7870865  33.0475998  75.8156128  31.7905312   5.1474161
  75.4990692  32.1417427   5.9796896  75.5071793  30.8844433   5.1370063
  15.1962700  24.2475815  88.4206467  15.7035141  23.7183418  89.0361481
  14.3585634  23.7905846  88.3455887  56.2355766   9.6728773  55.5678215
  56.4268723  10.3697300  54.9400978  55.3129883   9.7975845  55.7903366
  82.0736923  25.3992424  35.3601303  81.8847198  25.1086769  36.2523727
  81.2342377  25.7189941  35.0295181  42.4663849  50.6455040  40.7575150
  42.8444939  50.3516502  39.9287109  43.2194557  50.9221649  41.2795982
  23.1447430   7.9907823  26.4459381  23.0225296   8.6825886  25.7957840
  22.9328861   8.4071274  27.2814064  70.9583817  38.4271011  40.2207756
  70.6377335  37.6287537  40.6403732  71.9033890  38.2949677  40.1451454
  19.1798592   0.6554105  86.3383331  20.0040398   0.5307525  85.8677826
  18.7661400   1.4009926  85.9033890  54.9977112  64.8609543   0.1142595
  55.2236290  64.7313080   1.0353380  54.1508865  65.3066635   0.1357941
  84.4967194  19.4477406  48.3466911  84.5055389  18.7140198  48.9613533
  83.8881760  20.0771179  48.7337265  41.6452217  50.5017738  70.7310028
  41.8238297  51.4004784  70.4541321  41.9757767  49.9601822  70.0143127
  17.4020119   6.3135996  11.8281078  16.8041439   6.0242457  12.5173531
  17.6466007   5.5094814  11.3700666   2.6908584  21.0761986  21.5447006
   3.4767444  21.5362530  21.2498016   3.0046258  20.4747524  22.2200108
  46.0512123  19.4372330  72.8959274  45.3331490  19.3006039  73.5139465
  45.7687798  20.1789112  72.3607864  75.9657974  23.9636593  32.5966835
  75.0339508  24.1093349  32.7599869  76.4088211  24.4267178  33.3076973
  32.8006554  21.6388092   3.8519583  32.8188858  20.8823776   3.2656894
  33.2647858  22.3248768   3.3722444  49.5860634  56.1759911  61.3945007
  49.9034920  55.6593857  60.6538315  48.8922424  55.6409073  61.7798958
  70.9067764  18.8459225   4.0041823  71.7188187  19.3118858   3.8049381
  71.1597443  18.1914577   4.6552696  28.7966442  47.6684074  48.5140572
  28.1392403  47.1831284  49.0126076  28.8880196  47.1778641  47.6972008
  17.1785526  63.8087311  17.5180035  18.0685177  63.9960403  17.2194920
  17.2893963  63.1486778  18.2023067  74.5594788  61.5681114  51.8479156
  73.9516907  61.1509743  52.4584999  75.4251251  61.2792091  52.1367493
  64.2194519  14.9959993  39.1280289  63.6923523  15.7869568  39.2411156
  64.3638611  14.9374104  38.1836014  77.2986908  35.9950104   2.1714797
  77.0645523  35.3668785   2.8547499  77.6956711  35.4623718   1.4823250
   4.7864347  43.5083656  63.1088333   4.2252960  42.7369080  63.0300102
   5.5758476  43.1868439  63.5443573  50.2762947  70.7205276  14.6337175
  51.1529732  70.4330597  14.8887358  50.3261337  70.8273468  13.6838026
  51.9554634   2.8893139  16.6404762  52.7626266   2.3754034  16.6652145
  51.5748444   2.6963689  15.7836609  79.4761276  52.1028404  41.5035362
  80.3733139  52.2403183  41.8074799  78.9696045  51.9695129  42.3047180
  31.1741123  51.2092094  75.0573425  32.0366211  50.8116035  75.1765823
  30.6515503  50.5261955  74.6370392  18.7260132   4.9168258  70.3582687
  17.8814278   5.1697583  70.7310104  18.7086792   3.9597952  70.3533401
  64.7528534  11.2184124  36.8625412  64.0682297  11.8829269  36.9396362
  65.4469681  11.5205660  37.4483261  80.5927048   0.1385985  15.3070850
  80.1647797   0.8912479  15.7152891  81.3989029   0.0199892  15.8092899
  69.0405045  42.1461411  42.4897766  68.5709457  41.7802582  41.7401924
  68.8490219  43.0834579  42.4580574  86.0132828  35.3949394  19.5545139
  86.1483994  36.1950188  20.0623035  86.3447113  34.6952133  20.1173325
  75.7520981  19.3779831  45.6097984  76.1728439  19.5536251  46.4514351
  75.3049698  20.1953850  45.3903389  79.3925476  13.8611250  29.0417538
  79.4815674  14.3753443  28.2393303  78.5232773  13.4655514  28.9775295
  40.8565140  10.6335487  21.3300686  41.6752090  10.4973764  21.8069649
  40.1950989  10.7367373  22.0142574  20.9674702  51.9160347  40.7623024
  20.8988552  51.2790871  40.0510902  21.9047070  51.9647980  40.9505615
   4.7912631  28.2765903  84.6162567   4.3151841  28.8227692  83.9907455
   5.6537919  28.1543827  84.2195969  33.2256737  47.2006226   2.0698588
  33.4818954  46.7757988   1.2512593  32.8011017  46.5082207   2.5763659
  38.4305840   7.5062275  62.4864273  38.5674210   6.5967193  62.7515717
  38.0719490   7.9314337  63.2654076  82.0463867  16.9579582  73.0896606
  81.9847641  17.0258408  74.0424576  82.0149994  16.0175343  72.9140167
  49.5600853  54.4351883  22.2365170  48.9273643  55.1496048  22.3107281
  49.2058144  53.7425919  22.7942257  22.6016579  40.1293259  13.4892960
  22.1024342  39.6833916  12.8050814  22.8970070  40.9421806  13.0790968
  54.5524216  60.7433243   2.8903811  55.4116020  60.9718170   2.5356491
  53.9317017  61.0425529   2.2260013  40.0071564  28.3504410  11.8506441
  39.2389526  28.2571487  12.4140148  39.7874870  27.8544083  11.0620193
  68.8644562  30.4794350  14.8528242  68.7586365  31.4307251  14.8619165
  68.0791855  30.1469269  15.2875900  26.3660164  69.2432251  23.5176983
  25.9985409  69.2240372  22.6340561  25.6985970  69.6820297  24.0451756
  43.5811157  42.9924698  22.9115257  44.1354599  43.7694168  22.8387833
  43.9650726  42.3660088  22.2980480  68.7777481  39.5940933  55.5533829
  68.2566833  39.7977715  54.7766991  69.4580154  38.9999771  55.2363777
  15.8735447  50.5579033  49.9451332  15.3651562  49.7753639  49.7320480
  16.7703476  50.2398911  50.0492821  52.4467926  31.3275051  14.8590603
  52.9345093  30.5062370  14.9213762  53.0010567  31.9694805  15.3027821
  43.9134026  50.0582504  31.4518108  44.8054008  49.7250748  31.5496349
  43.9904671  50.9991341  31.6100311  77.2073364  53.1856804  49.5691872
  76.6198349  53.4445267  48.8592033  76.9013519  53.6840248  50.3269844
  22.9330463  14.0472994  73.1954193  23.5213451  14.6160765  72.6987991
  22.0589237  14.3963547  73.0213470  50.5914459  11.0583620  89.2386551
  50.3774261  11.4883671  88.4106903  50.7676773  10.1489105  88.9976654
  45.4277611  13.8524933  76.1874924  45.6758232  13.3540163  75.4088974
  45.7787323  14.7294092  76.0323486  40.0619659   3.8681867  11.5495520
  40.2466965   4.6109061  12.1244211  40.9233093   3.5764732  11.2508488
  84.4479370  10.4564400  50.3747978  84.6337967   9.5183764  50.3332596
  84.2520370  10.7020636  49.4706268   3.0580478  26.1128082  67.2432709
   3.3522542  25.7195930  66.4216537   2.1026144  26.0775394  67.1970596
  20.6643467   5.4390855  21.3191700  20.2547569   5.3080463  20.4640102
  19.9332542   5.6215024  21.9094734  82.3294449  18.4112682  67.5226974
  82.3837891  17.5209255  67.8699265  82.5760193  18.3246918  66.6018600
  65.7526855  32.7523193  84.4231796  65.9201813  33.2944565  83.6522980
  66.3179626  33.1204300  85.1022873  73.3123398  64.8541107  81.9517365
  73.5508652  64.0797501  81.4421158  73.4203644  65.5844193  81.3424683
  50.4279594  71.7398911   0.0942962  50.6919060  71.6307449   1.0078887
  49.7989311  71.0348969  -0.0591399  51.9614410  35.0220757  65.6383514
  52.7801933  35.0325928  66.1341019  52.1464577  34.4651527  64.8821487
  66.6330414  31.7555618  88.0788116  66.2604446  30.8743572  88.1085739
  66.0448532  32.2826920  88.6195602  77.0138092  16.6088657  66.4900894
  77.8288574  17.0971241  66.6064529  77.2951279  15.7086372  66.3267517
  23.5592442  54.7560539  35.4572487  22.6755104  54.7973709  35.8226776
  24.1216373  54.5751572  36.2103882  19.6731548  35.5405312  88.2130737
  19.7946358  36.1840553  87.5149612  19.3064880  36.0428505  88.9407120
  17.0557022  65.8039017  87.0363693  16.3778381  65.1285553  87.0616913
  17.5635853  65.6635590  87.8354874  61.6641197  71.0506363   1.0261792
  61.2006340  71.8872223   0.9869845  61.4027634  70.6711044   1.8651558
  -0.0809324  10.6095457  71.6760559   0.8076608  10.7134361  72.0164108
   0.0405381  10.2756004  70.7872543  36.1437569  30.9946957  68.6164780
  35.8087959  30.6340065  67.7955399  36.7249756  31.7056065  68.3462448
  34.0700798  53.0151176  80.8725204  33.7519913  53.7130203  80.2998199
  35.0163078  53.1530952  80.9154205   9.9577370  35.2069054  53.9215584
   9.1487494  34.9915657  54.3856697   9.7671976  35.0104713  53.0043106
  26.1226330  25.6560135  53.0630760  25.8927135  26.2622890  53.7672081
  26.1217480  24.7940693  53.4793510   8.0277901  49.5394745  68.8115845
   8.6565084  50.2272377  69.0305099   8.5303183  48.7271309  68.8732147
   2.9895170  38.6492348   4.8795767   3.8443172  38.8256989   4.4866281
   3.1826093  38.4588699   5.7975688  61.4384804   5.1413989  23.6616802
  62.3859978   5.2629218  23.6010437  61.1051979   5.4294043  22.8118515
  80.0331802   6.5238514  72.8510056  80.3124771   5.6797361  73.2055359
  79.3626022   6.3022099  72.2049103  43.0104485  32.6335106  18.1702766
  42.8480186  33.1659737  17.3916035  42.4041901  32.9774208  18.8263321
  35.9457321  66.2797470  32.3434601  36.6504097  66.9247894  32.4033394
  36.0281410  65.7600708  33.1430664  75.8935318  43.0197563  17.1039391
  76.5888596  43.6139946  17.3861389  75.0832214  43.4615211  17.3578453
  79.6190796  21.2572460  85.6753159  78.9723434  21.6176720  86.2819977
  79.2755203  21.4666309  84.8067780  66.7023010   5.1705141  66.4151001
  66.3452759   6.0586386  66.4158325  67.3649139   5.1793075  65.7243805
  15.1260834  68.1924133  85.3979950  14.9250488  67.5933075  84.6790390
  16.0820236  68.2400284  85.4098969  42.6846924  40.7538986  87.3696289
  42.4214211  39.8519783  87.5525436  43.3204765  40.6782074  86.6580963
  39.1032028  21.7859592  86.9508438  38.7449989  21.7134914  87.8355331
  38.8675308  20.9598770  86.5286102  35.4782906   0.8064054  17.3310318
  34.9028358   0.2933870  16.7636719  36.3627968   0.5698589  17.0518818
  13.7179441  65.1366806  47.2045059  13.4085016  65.8535461  46.6508102
  13.7331161  64.3754044  46.6244583  34.3723373  36.6028900   0.8685194
  35.2369614  36.4042511   0.5090754  34.0084381  37.2555504   0.2703184
  62.0426483  30.0998306   7.0804682  61.5025139  29.5311184   7.6291518
  61.5715446  30.1478157   6.2486076  79.1319275  32.6256180  10.9471550
  79.8244858  32.4209137  10.3189125  79.5450439  33.2194443  11.5740004
  77.7857056  22.7431488  70.6164627  77.3267899  22.0222607  71.0476837
  77.3912811  23.5332222  70.9858551  81.4838943  38.8537979  38.6346092
  80.9535294  38.8168068  37.8386383  82.2768402  38.3637505  38.4170570
  80.6719131  30.2643528  61.9514732  81.5428925  30.2310753  62.3471069
  80.7013474  31.0250435  61.3712006  58.9922562  70.6322632  20.8710136
  58.8610115  71.5802460  20.8893757  59.8279724  70.4974747  21.3178310
  36.1362343  56.0998116  56.7524681  35.5052948  55.9491196  57.4563446
  35.6188164  56.0373878  55.9495888  40.2363663  43.4355850   4.9065514
  40.3299332  42.6124649   4.4270215  40.7508049  44.0661697   4.4026194
  32.0501099  30.9400311  73.9582138  31.1260376  30.7120171  74.0598679
  32.0445099  31.7222557  73.4065552  13.2544346  31.8703289   5.5172610
  14.0615673  32.2057266   5.1270318  13.2646294  30.9335785   5.3207264
  22.3492298  38.8897285  23.1738453  22.1930103  39.7981720  23.4318237
  21.6033001  38.6672859  22.6167641  41.1736259  64.4545975  79.9347000
  40.6572876  65.0490799  79.3904419  41.7595787  65.0290680  80.4275208
  64.9460754  62.6340141  71.5452499  65.4466858  61.9079247  71.9172821
  65.1290894  63.3731384  72.1252823  10.4496555   4.2116690  26.7346649
  10.6290207   4.5049067  27.6280136   9.7788467   4.8148913  26.4147129
  10.3263874  44.6931229  70.0556488   9.5646000  45.2571259  69.9221878
   9.9562864  43.8265076  70.2236786  67.1398010  45.6654549  22.4319267
  67.5882111  46.5098915  22.4775848  67.0854797  45.4734230  21.4957619
  60.5437088  40.0346413   9.4923859  59.8772507  40.3741989   8.8950872
  61.3386765  39.9858475   8.9614630   1.8034217  53.5149727  30.9351082
   0.8471404  53.5534058  30.9183445   2.0515985  53.3297920  30.0293770
  53.5684471   7.6940484  22.6731834  52.6889229   7.3361979  22.5522919
  54.0992012   6.9417548  22.9350739  81.8093109  22.1783180  39.8917007
  81.1785889  21.6585045  40.3899078  82.6171188  21.6655579  39.9192085
  56.1137352  33.3752022  53.5576363  56.5956383  32.8233871  54.1736755
  55.2039452  33.3231506  53.8505554   4.0962853   8.8762264  56.0709419
   4.0712004   9.2398052  55.1858368   4.6162519   8.0769730  55.9869156
  84.4973831  55.2664299  50.0835838  83.5833130  54.9847488  50.1205254
  84.9700775  54.6142426  50.6007385  84.4766693  47.3291969  14.0183153
  84.1047134  47.5886040  13.1753511  85.1992188  46.7438545  13.7913322
  12.1752291  69.6013947   6.5387125  11.6875448  69.0184402   7.1205716
  12.4579620  69.0386505   5.8178692  19.1940498  48.8727760  59.1652412
  18.6009445  49.6229210  59.2069550  18.6436367  48.1485367  58.8673248
  65.3045883  50.8322868  77.7751999  64.5156708  51.0875015  78.2534332
  66.0259171  51.1753693  78.3026657  74.4461136  42.0856018  53.3306808
  74.6292114  41.3271599  52.7761803  75.1700668  42.1050682  53.9565735
  40.9793358  51.7200508  59.3413315  40.6570320  52.6178818  59.4203835
  41.0609131  51.4144440  60.2447586  35.6675873  41.0436592  64.2692261
  35.7481651  41.7013931  63.5784836  35.5474472  40.2176971  63.8006325
  51.3176727  68.5333405  81.5637665  51.8080521  68.8905640  80.8233948
  51.7018127  67.6690216  81.7108307  27.8073635  60.4138870  71.9949112
  28.4948711  59.7599220  71.8688354  27.0092316  59.9009323  72.1217728
  20.4271584  65.9298325  51.1946373  20.3905869  66.8102036  50.8206749
  21.3332558  65.6509552  51.0625496  14.1632595   2.7074323  38.7245941
  14.3940716   2.9505484  39.6211739  13.2854252   2.3326399  38.7965050
  26.2544117   4.8258452  35.4501343  25.5892334   4.4395485  34.8804436
  25.7674923   5.4279451  36.0128250  81.0013657  52.1236458  67.8767014
  81.5178375  51.3417473  67.6814346  81.6302414  52.8437958  67.8304596
  85.4887848  25.3850536  26.5812435  84.9476395  25.0227013  25.8797512
  85.6387405  24.6479034  27.1731529  12.0769529   5.4464045  13.5794497
  11.7838869   5.4413104  14.4906673  12.8012934   6.0719714  13.5643110
  22.9212971  22.8522949  73.7585907  23.6285305  23.1009312  74.3537598
  23.3151665  22.8956318  72.8872528   7.9550781  18.6013832  50.6121216
   7.1223154  18.9750862  50.3238792   8.3183250  18.1917496  49.8269577
  83.4321289  16.6317425  30.5765419  83.1898727  16.4625111  29.6660995
  83.3571014  17.5812283  30.6718292  52.6074905  16.7583923   3.2412412
  53.1153336  17.4674530   2.8468311  52.6641426  16.0424747   2.6084034
  86.5988541  54.6327286   2.2174411  85.8365784  54.1422806   1.9098285
  86.2580719  55.5046654   2.4170110  67.3960419  32.5199432   2.4009919
  66.6213989  33.0611496   2.5534637  68.0541763  32.8690071   3.0020349
  48.7659149  11.5516233  75.4702759  48.1689377  12.0785561  74.9390564
  49.2716522  11.0471573  74.8331070  24.4193115  18.4973946   5.6085782
  25.3609142  18.4773808   5.4376535  24.0642872  19.0683270   4.9272375
  71.2725067   7.1343050  15.9043941  70.7945938   7.6450300  15.2509460
  71.2920685   7.6955161  16.6795654  65.7962646  36.4523201  57.3393517
  66.7399902  36.6100616  57.3121910  65.4793854  36.7477684  56.4858131
  79.7507401  57.9464989  18.0536785  79.6722107  58.5917816  18.7563000
  79.3178024  57.1648293  18.3968811  28.7014580  56.7228012  29.6366444
  28.8329697  56.8884544  30.5701847  28.9742870  57.5343399  29.2086239
  73.8841705  20.6951904   7.5088654  73.5658798  21.1023273   8.3145695
  73.1049805  20.3032780   7.1145363   1.5427663  40.7070312  49.4732704
   0.7097582  40.2727661  49.6569633   2.0794868  40.5324364  50.2463684
  61.8004036  69.5115738  40.5061760  61.6518898  69.6787109  39.5754547
  61.2120895  70.1184845  40.9553680  74.9255981  47.7350998  77.2001572
  75.2930145  47.4768448  78.0454636  74.0949326  47.2626038  77.1456375
  21.8358517  37.1608772  64.7777252  22.5939064  36.8414154  65.2671432
  22.0629005  38.0612488  64.5453262   5.0780778  26.6313763  64.5822983
   5.4143033  25.7405586  64.4841690   4.1788659  26.5851212  64.2574692
   3.0256801   2.8625438  74.0596771   2.9218919   1.9176583  73.9471970
   2.6357551   3.0462704  74.9143295  22.4328842  47.0261116  56.1731987
  21.9946041  47.8724518  56.0846176  21.8850136  46.5356445  56.7859879
   6.5684299  51.6364441  65.9511337   6.2785549  52.0176544  66.7799225
   6.4021854  50.6987457  66.0476761  72.9211044  48.7858391  16.3429089
  73.2153854  48.9524765  17.2383766  73.4265594  49.3970528  15.8070335
  42.6034431  54.3248444  12.4290657  43.0192108  54.8283653  13.1289492
  42.4658890  53.4566078  12.8078518  49.2959900  22.9744225  80.7580719
  49.8636436  22.2972012  80.3901367  49.3848991  23.7140408  80.1569977
   3.6864808  37.9635811  69.1692886   3.1115522  38.6278877  69.5492706
   4.2551155  38.4513741  68.5735168  52.7182808  31.4927177  82.4123001
  52.2477036  32.3109169  82.5714722  52.1772575  30.8206902  82.8269119
  83.0164261  19.5253716   3.6224391  82.3248138  19.8790112   3.0631211
  82.5500412  19.0310135   4.2964735   1.4071027   3.8369040  60.6512299
   1.6471367   4.7524133  60.5081978   0.6009466   3.7193389  60.1487160
  84.5920868  16.9770565  25.9209404  84.5414886  17.3618526  25.0459518
  85.1518173  16.2081852  25.8124599  22.4120884  32.4975357  11.4928856
  23.3117638  32.7917442  11.3505497  22.0098591  32.5283394  10.6248455
  12.7592754  53.3671417  52.4223938  12.8903275  54.2594910  52.1018181
  13.5115013  53.2041893  52.9914589  18.9649773  57.3166504  33.3063622
  18.0292873  57.2246819  33.1267624  19.3870029  57.1683655  32.4601135
  57.7301407  31.5912952  48.7411270  56.7737427  31.5971012  48.7023430
  57.9992218  32.2662315  48.1179962  22.7918320  21.3643703  83.7109680
  23.4347973  21.6407928  83.0579605  23.1588173  20.5629387  84.0841446
  55.9229507  40.8367958  30.0965252  55.1720886  40.2696037  29.9212170
  56.6843948  40.2678261  29.9837894  82.1651535  15.9356346   7.6986532
  81.7830963  15.5460052   6.9122353  81.7449722  15.4728642   8.4235868
  78.1915894  12.7337341  13.6026611  79.1272964  12.9344606  13.5828953
  77.8854370  13.1004286  14.4321413  47.5592194  64.6906891  78.3599930
  47.9576759  65.5559769  78.4534836  47.8150902  64.4025726  77.4837799
  76.7574005  36.7659454  44.7319069  76.2139206  36.0240250  44.9972725
  76.2452087  37.5371399  44.9751091  43.7652092  66.3674393  77.6051636
  43.2853394  66.6040878  76.8114700  43.3952065  65.5241394  77.8662796
  84.8182983  59.1626587  21.7561169  84.9434128  58.2166100  21.8307552
  84.6274109  59.3066216  20.8292580  46.7479973  49.9956589  47.3758507
  47.0631638  50.2579880  48.2407722  46.8949966  50.7639656  46.8241959
   2.1391573  56.8322258  85.0772247   1.8150847  56.5040855  85.9159927
   1.9646498  57.7729874  85.1045151  60.6496544  68.4485855  28.0810261
  61.3929710  69.0516510  28.0860176  60.6240387  68.0926514  28.9692173
  32.3968239  43.4542198  29.5417957  32.1390724  43.8108215  28.6917191
  32.6774712  44.2175293  30.0465984  85.2358475  41.3458824  10.9512796
  84.3362350  41.6547318  10.8439016  85.7461624  41.8776779  10.3405380
  35.8705902   9.1949663  35.8241577  36.5140152   9.7480812  35.3811035
  35.1204147   9.7710047  35.9713058  83.0758820   3.6476946  88.9427719
  82.9706039   2.8170359  88.4789276  82.3493958   4.1886315  88.6332092
  61.4716034   9.4936104   1.3312963  61.7526703   9.6637239   0.4322436
  62.2855682   9.4553394   1.8335214  81.5749741  35.4498978  47.1326675
  81.6424942  34.8771553  46.3687057  82.2609406  36.1046829  47.0024872
  66.0555267  31.9511108  18.3754044  65.2795792  31.3928909  18.4256878
  66.1094055  32.3645325  19.2370377  83.4075394  42.9613762   7.9201460
  83.2230606  43.3446770   7.0626612  82.5443268  42.7923012   8.2976437
  52.6726875  35.3811569  13.6395254  53.0022736  35.1754684  14.5143385
  52.2644691  36.2418175  13.7336159  48.2417526  13.7163620  82.7332230
  47.4030266  13.4499550  82.3566666  48.8961945  13.3881245  82.1166229
  65.7148285   8.1798153  25.9562836  65.4551086   9.0461884  26.2696114
  66.5246353   7.9870615  26.4288235  40.3626289  66.0346527  45.9190788
  40.9947205  65.4231186  45.5413055  40.4348450  66.8196259  45.3760872
  17.2343578  44.6323166  31.0862827  16.9387074  43.7812119  31.4094543
  17.6170673  44.4434128  30.2294979  48.6906471  13.7238503  77.6778412
  48.2434769  13.0612288  77.1513367  48.6399040  14.5219936  77.1518936
  42.5767899  46.7329788  88.1556091  41.9725456  47.3253784  87.7081909
  43.2286720  46.5092201  87.4913635   5.2521839  24.4037704  26.7805328
   5.3960338  24.0352631  27.6521645   5.7609773  23.8419151  26.1959991
  76.8343964  26.6665020  40.8157921  77.2147598  27.0334911  40.0177498
  77.2623367  27.1438808  41.5265694  51.3778114  39.0579529  53.1361084
  50.4305992  38.9321060  53.1924858  51.5379143  39.2618790  52.2146873
  38.7418594  61.0676422  13.1977549  38.1891212  61.8328781  13.3562613
  38.7686348  60.6129990  14.0396671  63.8018303  14.0905733  47.2423935
  63.9640160  13.9315557  48.1722527  63.0939140  14.7347136  47.2294693
  39.6864357  66.6693420  42.1223068  40.4457169  66.1697540  42.4225349
  38.9386559  66.2439270  42.5419235  79.8679962  70.2218018  84.6361771
  80.4755859  70.8196411  85.0716705  80.1779251  69.3485336  84.8761292
  72.4000092  33.9224510  56.7251396  73.2088623  33.6391945  57.1514664
  72.2805786  33.3048630  56.0036469  65.8445663  58.5338173  52.6013680
  66.4275208  58.6908913  51.8585854  65.7996140  59.3765945  53.0529594
  64.2676773  19.5681305  67.0629807  64.1285706  19.0021076  67.8222504
  63.4027977  19.9320812  66.8738861  46.3916359   2.0956509  57.8371391
  45.7368317   1.8584505  58.4937973  46.7443619   1.2579112  57.5371284
  78.3820801  12.0405960  20.5901947  77.9050522  12.1191282  21.4163322
  77.8231659  12.4785852  19.9483166  49.5790977  71.2175980  61.0229645
  50.1846809  70.9006653  61.6930771  49.8110123  72.1390228  60.9070511
  64.2187805  70.7377319  41.0857925  63.6790276  69.9548721  40.9761581
  64.3532715  71.0625381  40.1954880  68.2531052   2.2734210  26.5151043
  67.6812820   1.9681174  25.8108044  67.6830063   2.8003497  27.0750713
  45.4948997   5.1149158  37.9319954  45.9859886   4.3965349  38.3307304
  44.6245079   4.7501903  37.7719154  23.3591175  15.4385080  20.4473515
  23.2120972  14.6379595  20.9510784  22.6231270  16.0053043  20.6781979
  66.3390961   1.9624019  40.9956818  65.6825867   1.7461803  41.6578560
  67.1744766   1.7329699  41.4027748  50.2539787  11.7330217  21.1353130
  49.5915985  12.2798996  20.7129250  50.9206009  12.3517170  21.4337444
  30.4677315   8.7523899  19.0777321  31.2850266   9.0844498  18.7062511
  30.5797882   7.8018756  19.0917740  55.4428101  57.2042122  57.5448303
  54.7443390  57.8419876  57.3978157  54.9894714  56.4189949  57.8516655
  32.6752853  56.5960846  46.0564957  32.2101135  57.4293137  45.9818153
  31.9857426  55.9330101  46.0233536  54.9173012  28.8504734  66.8791885
  54.0536079  28.8794842  67.2907944  54.7414856  28.6064053  65.9704742
  74.7306213  34.4257965  52.3675270  74.2453461  35.2338066  52.2006302
  75.4726334  34.6991196  52.9069176  71.0681076  70.6383820  82.6184845
  71.7412872  70.8987885  81.9897919  71.5122375  70.0261383  83.2051163
  50.5233192  54.9890862  58.7861290  50.8029175  54.0750923  58.7344627
  49.7514458  55.0356903  58.2219772  43.6544914  10.9824657  22.4549561
  43.5513611  11.3088799  23.3488522  43.8769417  11.7585688  21.9407463
   3.9113092  38.8529243  55.7577057   4.6567559  39.3289070  56.1237373
   3.8503258  38.0586548  56.2884140   9.1396370  59.9691391  58.8214989
   9.9698315  60.2900429  58.4693184   8.7289047  59.5119553  58.0876617
  81.7225876  58.3141594  26.1463356  82.1023407  57.4399490  26.0581322
  82.4528198  58.9103584  25.9803886   7.3397260  35.1224403  19.0495090
   8.0645781  34.4995461  18.9963531   7.2920685  35.3559265  19.9765720
  36.1156654  35.4465561  78.8644943  37.0604134  35.5423355  78.9849319
  35.7428055  36.2351570  79.2585983  50.9783249  63.2908630  64.5478363
  50.5848961  62.9331856  63.7519035  51.8327522  63.6180305  64.2665100
   0.7208797  56.2653427  23.9001713   1.4336262  55.6376381  23.7809658
   0.6417018  56.7017593  23.0519333  26.0379772  42.9024658  55.4346199
  26.5265331  43.3489876  54.7431259  25.1758575  42.7396355  55.0519104
  38.9648094  56.3424683   7.9590697  39.8667183  56.1170502   8.1870499
  38.7500038  55.7617836   7.2290740  74.1174774  65.4844055   7.9290099
  74.5893478  64.6529770   7.9768519  74.4284363  65.8900681   7.1197066
  48.6669083  69.6265717  82.2775726  49.5684395  69.4463120  82.0111465
  48.6917610  70.5212936  82.6168289  29.0616131   0.3136269  87.6039963
  28.3327751   0.5287668  87.0219803  29.5676842   1.1239111  87.6636810
  41.5709915  66.3997803  58.5345612  42.2532043  65.7283936  58.5413208
  40.9964409  66.1501541  57.8108139  56.2567711  70.4543228  16.6277809
  56.1400490  71.0676041  17.3533840  55.7265701  69.6946411  16.8686142
  20.0064831  50.3741493   7.9464202  20.8226624  50.2430496   8.4290094
  19.5850487  49.5147285   7.9506345  37.8524170  68.3638000  13.5047083
  37.2023010  67.9608841  12.9291735  38.1264610  67.6565628  14.0886164
  71.2293701   0.5855053  54.7646408  71.7620163   0.8857727  54.0281906
  70.7968674  -0.2046830  54.4409523  73.3350677  29.0399208  43.1764641
  74.0633163  29.1713238  42.5693283  73.7220078  29.1585846  44.0438881
  19.8960438  39.1886597  81.5325089  20.3622112  39.9808922  81.2655182
  20.3463840  38.9020500  82.3270416  12.3651543  70.0581360   9.6459646
  12.3331299  70.2698669   8.7130241  12.0923500  69.1418533   9.6931210
  82.6368408   7.1924448  36.2454033  83.1152420   6.6388659  35.6282196
  82.5971451   6.6753263  37.0499153  34.9545174  47.5460587  69.5865173
  35.7880974  47.3187599  69.9984818  35.0460358  47.2493019  68.6810989
  29.6107998  67.7195129  25.6038532  28.9037933  67.2024612  25.9898968
  29.5610447  68.5645599  26.0506821  38.6744576   3.4700599  15.1909132
  38.0354652   3.5997498  15.8916988  38.1793633   3.6173918  14.3850574
  61.0557556  70.3962860  75.7173920  60.9051094  69.6468811  76.2935257
  60.2442818  70.9017487  75.7647629  40.0935059  65.6558533  51.9155807
  39.8464050  64.8702927  52.4034996  40.2867966  65.3389053  51.0333023
  49.9745483  58.9650612  71.3540115  49.0786324  58.6321106  71.4061050
  50.4763336  58.2439461  70.9739609  55.4267883  59.6091461  85.0304337
  56.2937775  59.8359756  84.6941071  55.4473610  59.8804817  85.9481354
  45.6983681   2.3107724  83.2228394  44.8708916   2.5398211  82.7996902
  46.3612595   2.7947142  82.7302856  76.5380096  13.4764519  19.3082390
  76.1963654  13.3609562  18.4215736  76.3415070  14.3881378  19.5237617
  78.5273056  16.6621933   5.1496253  79.1534882  16.0489693   5.5344429
  79.0005341  17.4931946   5.1080656  52.3945427  27.2684174  46.7255135
  53.3005180  27.5474873  46.8580132  52.4182663  26.7525272  45.9195824
  67.2613678  52.9678802  73.7168350  67.4002991  52.3223305  74.4097977
  67.2743835  53.8113632  74.1691589  21.2726974  71.2576752  47.7207680
  21.2463245  70.6691589  46.9663239  22.1020145  71.7268829  47.6296387
   5.3621268  35.6635017   9.2176523   6.0421400  35.5514526   8.5533781
   4.6167045  35.1643143   8.8838978  33.1455002  61.8569908  17.7657452
  33.5607109  62.5412064  18.2907982  32.5003738  62.3221321  17.2331219
  54.4422226  39.0243912  68.9838943  53.6212616  38.6292648  68.6904144
  54.9015694  39.2508507  68.1752243  29.1105709  69.1512527   4.5014639
  28.2114849  69.4733276   4.5658002  29.0176201  68.2210922   4.2955470
  70.3506470  10.5247841  58.0679283  70.1288300  10.7750063  57.1710358
  70.1832047   9.5829649  58.1021996  79.2131729  54.5280685  80.3460159
  79.3529205  53.7260132  79.8426208  78.2731705  54.6943817  80.2754974
  81.7678146  32.2556305  32.6292114  82.5797119  31.8198910  32.3700142
  81.8026962  33.1066170  32.1923637  51.6675873  32.4159508   0.9361823
  50.8751678  32.2004013   1.4279517  51.3481026  32.7006226   0.0799559
  83.0293350  59.3225250  16.1603203  82.3447113  59.8642387  15.7678118
  82.6405182  58.4497643  16.2180748   3.0976436  40.9829254  58.9575043
   2.9836049  41.8140297  59.4184723   2.4778333  41.0259018  58.2293434
  71.6121674  23.4001446  48.3564110  72.0123367  22.6794643  47.8698807
  71.2927094  22.9961777  49.1632538  64.2019119  28.2222080  83.6325607
  64.6378784  29.0277348  83.3545456  64.6449432  27.5289612  83.1433182
  84.5443649  30.5528870  23.4328003  85.0631943  29.8161659  23.7557392
  83.6948853  30.1698761  23.2138824  15.6485777  44.6820793  20.2711220
  16.2636166  44.7359352  19.5396442  14.8216972  45.0050278  19.9130650
  10.6286516  59.0834618   2.1239297  11.3482466  59.5886307   1.7454855
  10.1972761  58.6798782   1.3707590  53.8207512  51.1876564  78.5692444
  54.2058067  50.8878441  77.7457886  52.9056244  51.3679008  78.3541031
  48.6263847  28.8994389  27.5583439  48.7708473  29.4298096  26.7747173
  47.7282791  28.5804749  27.4694595  68.2937241  34.9457397   4.4743438
  68.2388687  35.6492310   3.8275645  69.2100983  34.6701317   4.4513144
  15.2645464   3.1470575   3.2115023  15.4923878   3.9032609   2.6706910
  14.9067507   2.5096862   2.5934634  67.3452682  53.2611542  40.9560852
  66.6307678  53.5749550  40.4017906  67.4294586  52.3334198  40.7359543
  74.7894135  36.6062012  61.7002640  74.4783249  35.7009811  61.6947556
  75.5389557  36.6054955  61.1049347  53.4782867  44.4794884  11.6125011
  52.6593208  44.2423668  11.1774130  54.1175270  44.5409546  10.9026928
  81.4529343  19.7199726  41.4709396  81.9572525  20.1946316  42.1316910
  82.0733871  19.0913715  41.1019745  29.3885345  50.0951843  69.7591400
  30.0029011  49.3689194  69.6527252  28.5360126  49.7226677  69.5340347
   7.3282723  32.9887123  63.1689301   7.2602482  32.7745399  64.0993805
   8.2693920  33.0042076  62.9949036  76.8887711   9.4168577  80.6611557
  77.2494965   9.4818487  81.5454025  77.3526001  10.0900021  80.1631851
  37.9819908   4.2137933  62.5099754  38.8546753   4.3751259  62.1513252
  38.1407280   3.9469149  63.4154091  85.1191406  33.8774490   3.2332077
  85.6180420  33.7232819   4.0354309  84.5222549  33.1313896   3.1752589
  66.5110779  28.6746559  47.2493362  66.3427811  29.4566288  46.7235718
  67.4146423  28.4364357  47.0418434  48.3561821  55.4251251  36.3622398
  48.7429085  56.1619568  36.8352661  47.4206085  55.4800110  36.5569687
  65.5165558  65.8576508  38.7646408  65.1691589  65.0133820  38.4769516
  64.8985291  66.5014420  38.4185219  62.8819466  63.5602226  29.0527668
  62.6733971  64.3779526  28.6010475  63.4012413  63.8306160  29.8100338
  41.8165894   4.2547088  49.7745438  41.5434341   3.6318111  49.1010323
  41.2133636   4.1010656  50.5016899  85.7562714  28.3351269  24.2625523
  84.9757385  27.7823677  24.2243328  86.4847260  27.7170944  24.3227005
  66.9403000   8.8636866  14.7336960  67.4625015   8.0907450  14.5189981
  67.5331802   9.4207468  15.2380838   1.3192425  40.6037865  29.8231354
   1.1888946  41.5465279  29.7207756   0.4644464  40.2722778  30.0981960
  70.5188675  42.8652840  54.6688538  70.9423904  42.4338989  55.4109917
  69.9370880  43.5121765  55.0679665   5.0092511  68.2047348  83.1544037
   5.6817102  68.1533051  83.8336563   4.2137475  67.8852539  83.5802383
  48.9325676  32.4938545  17.2775154  49.5870972  31.7964172  17.3150578
  48.2240181  32.1290741  16.7473030  73.1802521  35.4347038   0.5182925
  72.2909241  35.3709183   0.1700628  73.6833496  35.8473129  -0.1837601
   6.7660241   6.8487043  63.5436363   6.5796204   7.6824121  63.9753952
   5.9036660   6.4815702  63.3492584  35.1269417  33.0887299  88.5511017
  35.8833389  33.1486130  87.9675751  34.4977493  33.7147141  88.1926422
  52.7578087  48.4514351  43.9122353  51.9662437  48.0119057  44.2228432
  53.1108170  48.8859634  44.6886368  71.3235474  31.1438980  82.2313232
  70.8418961  31.9694481  82.2834091  70.6700134  30.4725361  82.4272690
  48.1619263  11.7740269  57.9405975  47.5132408  12.0170631  58.6011848
  48.1934586  10.8180103  57.9762344  51.0080299  32.1864281  34.3919182
  50.4579544  32.2675247  35.1710625  51.7931976  31.7332802  34.6991615
  55.5406456  12.5835123  60.4132271  55.1544800  11.9420786  61.0096092
  54.9157944  13.3085699  60.4040413  33.6169395  54.9852257  87.6561050
  33.2694244  54.6630859  86.8244247  34.5036774  55.2791176  87.4474106
   8.5707207  62.0602608  46.2733116   9.0163651  62.3629036  47.0645370
   8.6897583  61.1105118  46.2797928  37.3199081  52.2244682  79.6442795
  37.2642899  52.8667603  80.3518066  37.9867287  52.5754700  79.0540390
  36.6139450   4.6446748  66.6656265  36.0865440   4.7857542  65.8793793
  36.6362114   5.4995413  67.0956726  36.1849213  49.7773018  71.5613403
  36.9207916  49.1801224  71.4267960  36.1292076  50.2761688  70.7463150
  40.6173744  65.8595734  83.2837601  39.8271942  66.0250778  82.7695007
  40.3338585  65.9481430  84.1937027  70.6336594  39.8470650  77.6082001
  69.9552231  40.0450478  76.9626312  70.3547211  40.3097267  78.3983688
  80.2332916   2.5929408  48.7867241  79.5380783   1.9419776  48.6910439
  80.1759338   2.8720729  49.7005196   4.6035638  24.5376015  19.7004757
   4.5853143  24.4194565  18.7507706   5.4294486  24.9909668  19.8696079
  57.9185028  53.0543671  47.6394844  58.6882553  52.6227341  48.0101700
  57.7025757  52.5351830  46.8648491  40.9295006  53.8424034  22.2442207
  41.5456886  53.7499542  21.5175877  40.7378426  52.9435005  22.5115719
  18.1355019  65.3496552  70.0099182  18.9053230  65.7838058  70.3775024
  18.4692936  64.5212479  69.6656036  77.8567429  67.0077286  13.5541430
  78.3170547  66.6457291  12.7969780  77.3127899  66.2866516  13.8709879
  79.8080597  27.2035770  78.3224182  79.1675415  27.9115429  78.3913574
  80.0839081  27.0414677  79.2245636  26.9915867  70.1357117  51.5530548
  27.8134232  70.1548691  51.0626984  26.4942894  69.4189529  51.1591148
  52.5512924  61.5426140  36.9933701  53.4395752  61.8303146  37.2041283
  52.0506668  61.7058640  37.7927170  39.7491264  29.9430542  87.5541840
  39.8005638  29.1034164  88.0109024  38.8313560  30.0176468  87.2927017
   1.8215123  46.5971680  67.0224838   1.7076162  46.7379417  67.9624023
   1.7903359  47.4754868  66.6432495  56.6214256  14.3231535   9.3727121
  56.1267853  13.8447666  10.0380745  56.8811340  15.1362820   9.8058472
  76.9342270  22.3776207  18.2400875  77.8461075  22.6518116  18.3377094
  76.6889496  22.0492496  19.1050968  18.5848713  16.5160675  81.1247330
  19.4245701  16.8897457  80.8573380  18.0832806  17.2631721  81.4510345
  42.1052132  24.6211815  73.5010910  42.9997215  24.4653950  73.8041077
  41.5523682  24.3245945  74.2240295  39.8936424  11.5122633  18.8025417
  40.3407707  11.1757870  19.5791321  39.0044785  11.7024059  19.1016541
  60.4634743  39.5439606  79.0347137  61.4203148  39.5240860  79.0517426
  60.2007141  39.1360245  79.8598022  46.7650604  17.4810276  77.3641663
  46.7214622  17.0048122  78.1933517  45.8826065  17.4096432  77.0002823
  71.1266708  37.8891411  88.6544037  70.9970245  37.9182701  89.6023407
  70.9045868  36.9907684  88.4097900  42.5776062  47.8287735  17.6909122
  42.8976479  47.9995499  16.8051109  41.7674484  47.3355789  17.5619373
  34.0931816  59.7017441  12.5785093  34.7048187  60.4028130  12.8035250
  34.6115723  59.0903931  12.0552979  43.7442398  21.2374039  81.3123474
  43.1910324  22.0007019  81.1463089  44.6259422  21.5971642  81.4093246
   2.2855661  22.3692036  41.9805222   2.7546978  23.1597576  41.7137413
   2.9597378  21.8088303  42.3648453  18.7452164  65.2446823  46.1090050
  18.4650993  65.3835068  45.2042999  18.2704258  64.4622421  46.3893547
  73.4504089  37.5575180  17.5005665  72.7970963  38.0279121  16.9827366
  73.1800385  36.6406059  17.4514885  75.9814072  23.0930462  25.3025265
  75.7595901  22.1704483  25.1766644  75.8737183  23.2392197  26.2423496
   3.7471089  48.1869164  88.7116776   4.6291480  48.0219574  89.0448914
   3.7562165  47.8308029  87.8232346  21.2615376   4.2931609  24.6987438
  21.5863094   4.7430511  25.4787140  21.8028889   4.6302872  23.9849396
  80.7220001  53.5707321  18.5812492  80.5550003  52.6850128  18.2589989
  81.4351273  53.4659615  19.2110958  44.5235329  58.7074165  79.3315277
  44.2094994  59.4294357  79.8758545  45.4720116  58.7052422  79.4604263
  78.4949265  59.7539520  88.0630722  77.9644775  58.9807434  87.8707123
  79.1901169  59.7371712  87.4053040  27.8332386  21.1713982   3.5589187
  27.6234245  21.9389172   3.0268240  27.1294441  20.5503120   3.3714159
  62.8803062   1.5965676  67.1171036  63.0198860   1.7595158  66.1842575
  62.1757736   0.9491715  67.1443634   6.1396351  50.2926331  17.4449577
   5.3674612  50.3250389  18.0096951   5.8100276  49.9680939  16.6069431
   2.4246707  38.6274490  86.6456223   3.2715340  38.1869240  86.5749512
   2.5155690  39.2004852  87.4069366  62.7450981  24.2407665   3.3169322
  63.3916702  24.9406147   3.4085371  63.1316719  23.4957943   3.7771626
  35.8953285  26.5602627  74.5385132  36.5769272  26.2607040  73.9369202
  36.3658066  26.7827091  75.3418808  23.4342976  31.6039219  75.7951508
  22.7851505  32.2139015  76.1455307  22.9179173  30.8705349  75.4608917
  78.8303680  18.0502491  21.6271038  78.8340759  18.3844681  22.5240517
  79.6873322  18.2939377  21.2771587  73.0394287  33.6232109  75.2854767
  72.7282562  33.9692459  76.1219406  72.7965393  34.2914276  74.6445999
  73.4026947  68.4519424   2.0582080  73.8878937  67.6501617   1.8633635
  73.7310333  69.0904236   1.4251454   8.8483009  38.9337997  46.2355080
   9.4524002  38.9425087  45.4930649   8.9677963  39.7875366  46.6515465
  31.8307571  68.4519348  51.6137962  32.4242249  69.0189362  51.1213150
  32.3257980  67.6432343  51.7447968  41.0499306  45.4923477  42.4504967
  40.9161606  45.3447647  43.3867416  41.6827164  46.2093544  42.4090614
  47.8115463  29.1950626  20.6057301  48.0312347  30.0377178  20.2083645
  47.8967896  29.3447781  21.5472984  36.2092400  33.6113892  17.2404423
  36.0660477  32.8617935  16.6626606  35.9592247  33.2956696  18.1088009
   7.6858177   1.6010206   7.5190678   7.5562491   2.5406470   7.3904381
   7.6200876   1.4775951   8.4659986  73.7965775  20.6999969  42.9288368
  74.4963150  20.4460907  42.3270683  73.1031189  20.0585880  42.7740936
  85.6793823  54.0794792  87.5883484  85.2223816  54.1201553  86.7482758
  84.9917450  53.8878593  88.2260590  28.9150906  65.5101013  69.0653152
  29.8210640  65.4713058  68.7588196  28.4259758  64.9819412  68.4344101
  71.9668503  52.8880463  78.9960022  72.2119827  52.5998726  78.1167374
  71.5805054  52.1126823  79.4031525   2.4439454  24.7060738  15.3162317
   2.5706186  23.9007816  14.8145447   2.8320487  24.5192738  16.1710491
  75.2064590  24.7759838  58.7035027  75.5618515  23.8872528  58.7130280
  74.2599030  24.6546364  58.6291580  73.2119980   8.9408140   3.6360717
  73.9171295   8.4070311   4.0022597  73.4719467   9.0900831   2.7270195
  49.8339195  60.6171265  73.2245789  49.9679337  60.1252441  74.0347214
  49.9161949  59.9628677  72.5307465  64.8531570   9.9790564  44.6347237
  65.1585464  10.8550968  44.8703537  65.2537842   9.4026585  45.2854919
  22.3299160  46.0622673  43.2765808  21.6448040  46.3289032  43.8895683
  21.8566151  45.6577454  42.5495453  44.3016510   3.0185356  34.6078110
  43.8683739   2.6859925  35.3938904  44.6049309   2.2337563  34.1513290
  19.7673607  15.0692940  66.4478455  19.9515972  14.4313211  65.7584381
  20.6163921  15.2280712  66.8603592  14.9140072  47.9350128  22.7086067
  14.5049047  47.7657356  23.5572605  14.2710915  47.6310501  22.0679054
  13.5387697   6.4388270  25.7937794  13.5509396   6.3317533  26.7448940
  13.5257597   5.5447249  25.4522457  33.4785156  59.9266014  32.5450745
  34.1713486  59.4435120  32.9954567  32.6889191  59.7434120  33.0541992
  32.8537712  61.0293312  57.1067696  33.6168518  60.7747192  56.5880051
  32.5530930  60.2134018  57.5068779  67.1834869  66.2784958  53.1527176
  67.2928543  65.7252274  52.3793068  67.8402939  65.9583359  53.7710533
  12.4891052  49.8798599  30.3936405  12.9447365  50.5440865  30.9107819
  13.1896563  49.3849640  29.9687443  14.4206209  59.4036293  24.0761738
  14.6254387  58.5836754  23.6267757  14.1082468  59.1321487  24.9392815
  64.7629318  40.9067268  70.5820694  65.0869370  41.7973900  70.4480209
  65.5520859  40.3831902  70.7212524  61.8309708  17.8878498  70.7141724
  61.0893669  17.2836285  70.7484055  62.1792755  17.8902912  71.6057510
  77.6474152  10.0688915   3.7283421  77.5889130  10.0590992   2.7729816
  77.7497711  10.9938126   3.9525666  77.0062332  32.0439186  78.0380020
  77.6208725  32.0463600  77.3042145  77.4729156  31.5901680  78.7398224
  46.9062996  54.3646278  65.3958893  46.7497520  55.3014565  65.5145340
  47.3777122  54.0987015  66.1853790   2.3972111  56.1349373  59.3512268
   2.5278349  55.2840614  58.9326859   2.6781802  56.7710571  58.6934700
  75.5987396  43.8054008  64.4902954  75.5621719  44.2258492  63.6311569
  74.8330307  43.2313156  64.5087891  32.0084801   0.8014790  88.0139008
  32.1332855   0.5773613  88.9360886  31.3988571   1.5393268  88.0271149
  49.9354172  24.4807472   5.7760053  50.3480034  23.7698936   6.2666106
  50.3439407  24.4434910   4.9111638  84.6598129  13.6715841  50.6795120
  85.0231018  14.0472078  51.4814873  84.3450394  12.8064051  50.9414597
  32.6442413  18.9634781  73.7992172  33.0920639  19.7536030  74.1015167
  32.5317497  19.0971527  72.8580933   4.2551079  28.9400826   7.2349639
   3.9842157  29.6123238   6.6097107   3.5852079  28.9646111   7.9182382
  60.3518600   4.0611124  89.2039108  59.6797905   4.6360440  88.8378448
  60.9591331   3.9109280  88.4794159  61.9293785  64.9805222  43.6228142
  60.9974251  65.1952438  43.6626320  62.2560692  65.1675491  44.5028839
  70.7860718   7.1569629  71.7295609  70.2624359   7.7620215  71.2042694
  71.5193176   7.6857519  72.0441589  20.4382191  30.4003906   4.5746269
  20.2528648  31.2849216   4.2592192  21.1357708  30.5173550   5.2195864
  53.4518585  16.7434826   9.2913313  53.9212990  15.9186201   9.1669998
  53.5325432  17.1940517   8.4506702  11.3019638  63.9115829   3.6854091
  12.2332668  63.9488792   3.4674280  11.2438850  63.2513733   4.3760495
  55.6155167  25.8384457  77.7619629  55.6322212  24.8935051  77.6101685
  56.0136719  25.9494152  78.6253281  80.5362549  22.7916737  12.5180197
  79.8072662  22.6641541  13.1251068  80.4673157  22.0605793  11.9040318
  70.2166061  58.6739464  86.1771164  70.1781998  59.5923271  85.9100494
  70.2408142  58.1859589  85.3540039  61.4005089  15.1752157  67.5987930
  62.0924301  14.5252962  67.4759827  60.8100128  15.0393400  66.8577957
  42.3343544  15.9185400  77.5757904  41.9548759  15.0461960  77.4697418
  42.4912796  15.9987078  78.5166321  38.1785011  49.4742279  39.1553764
  37.5183372  49.1979828  39.7910690  38.9126816  49.7779884  39.6891785
  73.1518478  51.6796112  18.0616379  73.0397034  50.8158569  18.4585991
  72.3522873  51.8151588  17.5531521  74.5166245  64.0641327   3.1098647
  74.8536987  63.1692467   3.0675199  73.5837784  63.9600792   3.2974803
   3.8055327  49.9053764  19.0508423   3.5914912  49.3970604  19.8331680
   3.1510203  49.6385574  18.4053555  60.4103165  13.6104622  86.3196564
  60.2503281  14.5479488  86.4280701  60.6614799  13.5150204  85.4009399
  48.4580040  38.2376060  20.9592819  49.4001961  38.2369232  21.1281357
  48.1009254  38.8561974  21.5965176  27.8603001  62.4796333  22.1266918
  28.7434406  62.6983185  22.4241390  27.9938927  62.0168839  21.2994995
  84.4980011  42.6428833  51.9734879  83.7170334  42.2661552  52.3789482
  85.2147751  42.3932686  52.5567245  54.8809929  13.2161741  50.1017036
  53.9753227  13.1827326  50.4097176  54.9897308  12.4145212  49.5900764
  62.1983414   6.0389404  39.3610420  62.2023354   5.6759315  38.4753571
  61.4570198   6.6444335  39.3683777   5.4165668  33.0751152  26.3613682
   5.7134433  32.2733727  26.7918434   5.0145245  32.7745857  25.5463371
  35.6448059  37.9115982  79.9990692  35.2211990  38.6194458  80.4846039
  36.1865692  38.3581886  79.3484726  27.0986137  52.7344360  52.9083214
  27.0963326  51.7952385  53.0930748  28.0047874  53.0053177  53.0556374
   7.6088433  36.1603928  79.0870743   8.3215961  35.8966331  78.5051422
   7.2683377  35.3371353  79.4371262  65.9369736  37.3032417  74.8580322
  65.1184158  37.7835159  74.7334061  66.1783752  37.0093803  73.9796295
   4.5351467  47.3305321  49.4699593   4.9501061  47.6151047  48.6556740
   4.0101800  46.5706787  49.2184334  24.2036629  33.1966743  85.9429092
  24.3364925  33.2158241  86.8906479  25.0421982  33.4791107  85.5777740
  14.3344946  27.6814861  54.8990211  15.0832071  28.0955696  54.4698410
  13.5818491  28.2064705  54.6267166  14.6980238  45.1928940  27.4236755
  14.4803181  44.7230682  28.2287216  15.5176182  44.7959251  27.1288662
  16.3300896  42.0631638   8.6511574  15.8686171  41.2996063   8.3043814
  17.1449738  42.0984344   8.1502056  56.4059677  55.7620964  61.0882797
  56.6657333  56.6078987  60.7230835  57.2200584  55.3850937  61.4219780
  45.9322815  25.7601395  17.0520630  45.2111015  25.3281574  16.5943279
  45.8421631  25.4771156  17.9620113   4.6972961  42.1236801  37.1163368
   3.8366036  42.2814140  36.7283173   4.5231323  42.0215912  38.0520058
  60.7473221  13.7165918  53.8579445  61.2864532  13.5200081  54.6240540
  60.0866470  14.3293476  54.1808548  49.0236092  35.3878326  62.0797539
  48.7659225  34.9233017  61.2834892  48.3250351  35.1962891  62.7054863
  58.6147003  15.9469318  60.0536766  58.2329369  15.8947353  59.1774559
  58.5995712  16.8800888  60.2663269  16.6953125  67.1298065   7.9817557
  17.3607368  67.7357407   7.6557350  16.1148529  66.9866867   7.2342167
  63.6203461  59.5826263  24.7899475  63.8002243  59.9596863  23.9287262
  63.0261536  60.2074471  25.2056026  71.8525314   1.2622479  40.8380280
  72.0699768   0.5517771  40.2345543  72.6337204   1.3618623  41.3821335
  54.4451256  58.1631699  74.1774521  54.2937393  57.8530197  73.2846375
  55.3978767  58.1737938  74.2689972  19.3829746  34.3396835  80.1988297
  19.7152386  33.4420242  80.1924286  20.1351128  34.8716278  80.4587479
  75.0468826  26.0302925  80.4974823  74.1729202  26.1382923  80.8726501
  75.1107712  25.0949306  80.3044815  71.1345444  39.5264091  84.6641312
  71.8154297  39.3757820  85.3198395  70.3139725  39.4710121  85.1538467
   1.5245159  34.5220947  76.0258942   1.8050553  33.7981606  75.4660263
   1.6169933  34.1853714  76.9171219   4.1776390  30.1449394  82.6589279
   4.4949689  30.1157913  81.7563324   3.2815700  30.4738121  82.5872726
  82.9902954  37.3091393  57.5480042  82.3089523  37.5675583  56.9273415
  83.8031006  37.3560104  57.0446281   2.2484329  26.8686390  18.8962803
   2.6738539  27.3214207  19.6244545   2.9155338  26.8383999  18.2105007
  21.6273384  53.9957886   3.1938457  21.8366985  54.0193253   2.2601185
  21.3762646  54.8948402   3.4057441  64.0122604  36.7200623  85.3371353
  63.7351913  35.8664131  85.0043488  63.2764015  37.3017845  85.1464996
  32.1197052   8.8082075  68.2643051  31.1995983   8.8875999  68.5159683
  32.3568954   9.6791258  67.9457550  12.2433090  25.8088779  62.7705536
  12.9804134  25.2451210  63.0052605  11.5057049  25.2077751  62.6664009
   2.6978772  65.4080353  76.9442902   2.9983330  66.1965561  76.4924088
   3.4994683  64.9203491  77.1336060  74.0141678   8.2947464  54.3767204
  74.4257660   9.0265818  54.8363228  73.7514725   7.6922278  55.0725632
  49.2484398  24.4620991  12.5451593  49.7096024  23.6246948  12.5932589
  49.7472076  24.9739761  11.9084139  57.2054062  42.5019989   1.1676410
  56.8576279  41.8974686   0.5120288  58.1272202  42.2586060   1.2527707
  35.5836220  64.2374954  64.1284561  34.7124290  64.3947372  64.4925003
  36.1627007  64.8018341  64.6407318   0.8099867  26.1664066  24.6196976
   1.6911589  25.8850517  24.8658829   0.3210215  25.3512688  24.5070190
   9.9239016  18.8926926  52.5534935   9.1785088  18.9199314  51.9535942
   9.7224445  18.1744976  53.1533623  67.3384094  31.0423737  82.7659225
  67.3429337  30.3756313  82.0791397  66.4638672  31.4286480  82.7189713
  55.0672455  51.3375816  46.4715424  55.6824226  50.8502426  45.9235535
  54.4109383  50.6901016  46.7289505  29.6771336  57.6595802  32.3200302
  28.7212963  57.6844177  32.2754440  29.9250736  58.5300560  32.6315231
  84.3810349  39.0067863  67.7008438  83.8776093  38.2212563  67.4869766
  85.0766983  39.0316925  67.0438309  83.1136475  14.0198689  31.4621067
  83.8303375  13.7823544  32.0504723  83.4071655  14.8278370  31.0410767
  43.1096573  36.2763824  13.5375338  43.3040581  37.2120628  13.5917788
  43.9218521  35.8470383  13.8062916  72.3557281  61.5236626  67.1113052
  72.4066162  60.8606987  67.7998734  72.2266998  62.3475685  67.5811539
  64.8665390  63.0923080  16.8612328  64.5423584  62.5116882  17.5497227
  64.6909561  63.9742241  17.1893044  21.2793941  10.1949453  58.4435539
  21.1274414  10.5009375  59.3377075  21.1723022   9.2450933  58.4940071
  52.6003418  32.4787331   7.6174893  52.3460464  31.7634411   7.0344582
  53.4983673  32.2701492   7.8749270  16.7307320  21.3208542  74.2846146
  17.3859749  21.5630703  73.6302261  15.8955717  21.3803158  73.8207169
  29.8199692  13.6557322  25.0000172  29.9980927  12.8553038  25.4937954
  30.6606560  13.8848028  24.6037807  86.8639908  47.6314201  59.3334770
  86.1938400  47.5030212  60.0047798  86.9839325  48.5802193  59.2931671
  12.9669170  61.0701866  86.3114700  12.7234001  61.3214722  87.2024155
  12.6701441  61.7995987  85.7673035  17.0645962  43.6804695  86.8567505
  16.9758492  43.9632111  87.7669220  18.0094185  43.6507721  86.7062149
  48.0949364   2.7797830  54.1033211  48.9945526   3.0987585  54.0313721
  48.1705971   1.9564385  54.5856171  44.2151108  61.3939171  48.2792549
  44.6322823  62.0432739  47.7131004  43.3849564  61.1961746  47.8456993
  56.2947578  19.5763893  64.3503189  56.5517540  19.9147987  65.2080231
  55.7207489  20.2516060  63.9886093  50.4889412  69.9770508  21.5548763
  49.6414719  70.3953247  21.4029636  50.8578911  69.8585815  20.6796207
  26.5871162   6.8591452  20.0154419  25.6843567   6.5673685  19.8884678
  27.1191521   6.0943408  19.7957993  86.2550888  69.1980820  31.8592205
  86.0163269  68.2779694  31.7468834  85.4243088  69.6420746  32.0292244
  24.6402073   6.1617360  71.4203949  24.6374798   7.1149507  71.3331833
  24.0269356   5.9847322  72.1336975  56.5089149  16.2063580  81.6326218
  57.3712158  16.4880009  81.3270874  56.6562309  15.3316917  81.9924698
  51.9663963  65.9375687  69.0289230  51.7966843  65.1394348  68.5285187
  51.2233047  66.0070572  69.6282730  70.7331543  32.3643036  25.9179802
  69.9685440  32.5684624  25.3795433  71.4017029  32.9859047  25.6300793
  69.6035080  37.6926613  46.5830536  69.2376099  36.8749695  46.2458076
  69.9322739  38.1460762  45.8068047  61.8289261  16.0293465  46.9006729
  61.6591034  16.3775158  47.7759819  61.8329201  16.8000221  46.3329773
  36.4794731  30.4846401  86.5601730  36.2506790  31.3970490  86.7373505
  36.2442360  30.3527298  85.6417542  10.9577179  41.5525360  72.8830261
  11.6359253  41.4850273  72.2109299  11.2495279  40.9624100  73.5778809
   6.9967566  68.9755249   6.0916424   7.1299767  69.8208008   5.6627016
   7.8745689  68.6999664   6.3557382   6.3989525  43.3492508  40.5837860
   5.7152581  42.7907219  40.2138710   6.0396051  43.6458092  41.4199409
  76.6613998  34.1510735  81.2652435  76.2087708  34.2767105  82.0992508
  76.0258636  34.4253845  80.6041183  10.6394348  37.9971085  38.4479294
  10.9292269  37.5327110  37.6627007   9.7390594  37.7013931  38.5825005
  58.5063095   1.2174624  72.6945648  58.3727074   2.1611826  72.7827377
  59.1625023   1.1320459  72.0029449   0.8857821  47.2495842  62.6304436
   1.7853997  47.4539642  62.3751984   0.9292586  46.3536072  62.9644585
  48.1522102  13.4021711  17.0079899  47.2703819  13.7242403  17.1947441
  48.7322617  14.0935669  17.3269615  72.4088669  41.8177643  31.4184818
  73.3171844  41.5333595  31.5199928  72.4153519  42.7382584  31.6809330
  69.0289612  31.5466995  55.7893448  68.7925415  31.0502739  56.5728607
  68.7311935  32.4379654  55.9715843  17.8403511  67.9995193  27.8350182
  17.1354122  67.3725815  27.9970226  17.4086132  68.7410278  27.4107571
  81.0614853  10.8782701  65.1321945  80.3769379  10.2193575  65.0161819
  81.2552795  11.1810637  64.2450714  32.9675598  64.2623062  20.7086754
  32.1535378  63.7694244  20.6053638  33.2172508  64.1235733  21.6222610
  25.0299854  15.4984360  13.0305538  24.0996742  15.2999144  12.9240599
  25.4797649  14.7141304  12.7162361  65.6946030   1.6825848   6.8115611
  66.3192444   1.4166255   7.4863396  65.7277603   2.6391876   6.8181481
  38.6092339  25.5768280  83.6681137  37.6912422  25.5065365  83.4062347
  38.6640396  25.0804157  84.4846878  19.9873524  54.2802696   6.0972633
  20.1604233  53.8357887   5.2673740  19.6084251  53.6028023   6.6573377
  79.6323013  28.4794273  15.7198286  79.2294540  27.7142982  15.3093157
  79.3946686  28.4081688  16.6443195  39.3933449   9.5406466  76.6548080
  40.2521591   9.9291964  76.4883728  39.5702209   8.8172369  77.2561569
   6.6477070  46.3533630  74.1366959   6.2987742  46.3799667  73.2457581
   6.1820745  45.6290398  74.5547562  61.1359825  24.1236839  48.0483093
  61.8096657  24.3056450  47.3931198  61.1021042  23.1683788  48.0980797
  80.3106766  16.0389614  60.7149277  79.6453705  16.5999146  61.1135941
  81.0158615  16.0071774  61.3614044  66.5166550  56.7144051  19.4857883
  66.8113480  57.6113129  19.3278561  65.5611877  56.7705269  19.4732819
  85.2185364  50.4084816  49.7006378  85.8254242  51.1229210  49.5070000
  84.5422592  50.4794655  49.0269547  45.7904739  69.2586670  71.7272720
  46.1418991  68.5334396  71.2107773  46.1070175  70.0449371  71.2825012
  75.6296692  60.4078293  87.7627716  75.8138504  59.4723816  87.6776199
  76.4614716  60.8352585  87.5587082   7.0333257  63.9896698  45.1093864
   7.3642836  63.1462288  45.4180984   7.3663969  64.6243744  45.7437706
  53.6115417  10.9786730  38.4625740  54.2365265  11.5132122  37.9727859
  53.1201782  11.6080208  38.9905090  71.8347855  27.5034428  17.9106064
  71.8102188  28.3489971  17.4626503  71.2884369  27.6275883  18.6866989
  30.2358837  43.2777901  77.3446884  30.5618896  43.3467331  76.4473648
  29.3252640  43.5679436  77.2916412  54.4191208  11.0255232   1.2432032
  54.3174629  10.1642694   1.6483440  53.5783005  11.4592896   1.3884523
  58.9937973  31.6625900  66.5438690  58.0384598  31.7177162  66.5209732
  59.1911278  30.7862167  66.2133179   3.0393689  17.9143963  59.7562866
   2.8100181  16.9853745  59.7329102   2.2256923  18.3559246  59.9996262
   3.3420446   4.2588329  27.6830311   3.9676039   3.5690572  27.9046516
   2.9102890   3.9444270  26.8886948  46.9112206  64.5946045  39.2373390
  47.1736603  64.3061371  38.3631859  45.9875412  64.8281937  39.1452103
  23.0506840  20.7049770  79.7531357  23.5903416  20.8689251  80.5265198
  22.6136532  21.5397587  79.5846939  35.1216049   0.0798944  44.3652458
  35.6024818  -0.2022869  43.5871964  35.7994957   0.3851103  44.9681892
  62.1075974  12.9305153  70.6408997  62.9128952  12.4195623  70.5593491
  61.4062958  12.2802687  70.6010437  20.2237377  61.6741638  32.7957001
  20.5194588  61.3135185  33.6315918  20.2760124  60.9384995  32.1855354
  26.7409096  70.4400635  72.1501389  27.0812626  69.6132584  72.4918671
  27.3728523  71.0976257  72.4408112  50.6527481  53.1665611  63.6089973
  51.1650734  52.4101105  63.3234558  50.6298103  53.0939255  64.5631638
  64.6437225   1.2093449  74.0833969  64.9623260   1.9570086  74.5890961
  65.2037659   1.1889153  73.3074036  62.4102478  38.3071671  20.5489426
  62.9196053  38.8854942  21.1166821  62.8675995  38.3330269  19.7084713
  82.4870224  45.7007408  11.4719267  82.4546204  44.7656212  11.2701073
  83.2032013  46.0373230  10.9333782   8.3336620  55.0905685  17.5636692
   8.9658346  54.8100853  16.9019146   7.5173483  54.6576500  17.3137836
  67.6919708  56.1394234  22.0298767  68.4279709  55.5286026  21.9919701
  67.4454193  56.2744598  21.1148853  83.8370590  42.6956940  43.0195961
  84.6634903  42.8928223  43.4604797  83.1634140  43.0199203  43.6173553
  74.4915543  68.1387939  68.5372391  74.7204056  67.2291870  68.3462830
  73.8676910  68.3777847  67.8517456   4.8260531  48.3197403  70.2900620
   4.6865816  47.3876190  70.4571915   5.5433807  48.3448181  69.6567764
  12.7488337  22.6956196  22.8680630  11.9305429  22.2793350  22.5972519
  12.6134911  23.6267548  22.6922703  36.4645653  46.2003593   5.4629831
  36.9254036  46.9158669   5.9010572  36.3554649  46.5023117   4.5612330
  80.2502594  30.3870296  72.8102112  80.4389648  30.5538750  71.8867493
  81.1061935  30.2136765  73.2020645  46.6938744  68.9830017  13.0060005
  46.4476624  68.0587387  13.0427151  47.6492882  68.9788589  13.0643063
  83.0460358  51.7559509   5.8792348  83.7468719  51.6611748   6.5242801
  83.2303696  52.5893478   5.4459891  78.2500305  15.6318312   8.4737062
  77.6383667  15.9518433   7.8106132  77.6960602  15.1899509   9.1172037
  20.6806755  61.7704124  57.1042862  21.2516155  61.7120705  57.8703537
  20.9354839  62.5883789  56.6774025  42.7858429  62.6307716  11.0580158
  43.2825241  61.9619980  10.5865488  42.1370430  62.9380760  10.4248838
  67.0687332  36.4128914  79.7673645  67.1853790  36.7870903  80.6406326
  67.1951370  35.4721680  79.8910522  29.9902611  33.7520790   9.3315382
  30.4638615  34.3854942   9.8707228  30.6518421  33.4047050   8.7333136
  10.8078651  62.3157501   6.0466776  10.8651905  61.3636093   5.9668608
  10.4499006  62.4615746   6.9223652  84.8983612  16.9244995   7.9089870
  85.1227798  17.1567230   7.0079098  84.1282120  16.3620663   7.8266578
  29.8577290  31.3636284  70.0537872  28.9163666  31.2650719  69.9111099
  30.2595043  30.9824505  69.2730713  56.5624542  61.1328392  39.8510590
  56.1218567  60.2879448  39.9419365  56.5943604  61.4832954  40.7412262
  35.8957024   0.4428569   0.4627518  35.7094078  -0.4935340   0.5312979
  36.5877800   0.5017902  -0.1958732  70.8482513  14.4849157  59.1267815
  71.3343353  13.6884995  59.3405037  70.7754211  14.4722290  58.1724396
  20.8843861  67.5174103   0.4468364  20.7640324  67.7818985  -0.4651915
  20.1431465  66.9396591   0.6284825  42.9894104   7.6078191   3.8934960
  42.1460800   8.0581512   3.8462858  43.0681190   7.3421803   4.8097234
  45.9061279  36.3938293   6.5206022  46.3196945  37.1133804   6.0436916
  46.0437012  35.6272850   5.9640813   5.7158155  13.5744762  87.5942917
   5.5710902  13.3473644  88.5128326   6.4160032  14.2267685  87.6163025
  32.1179962  18.4555264  71.1709290  31.2024555  18.4637508  70.8917313
  32.2237053  17.6172371  71.6207352  54.1610909  20.5190945  61.3159599
  53.8767891  21.0590019  60.5784607  53.7774696  19.6589527  61.1450157
  38.1308746  68.5360489  79.8236771  38.2087250  69.3084488  79.2637100
  37.3629875  68.0734100  79.4881821   6.3003159  70.3635101  55.4705276
   7.2127786  70.6417770  55.3917198   5.9447794  70.4551163  54.5865402
  47.4829178  63.3141479  70.7666855  46.6667671  62.9940338  71.1509476
  47.2492332  64.1555328  70.3746567  35.1950645  22.8560162  83.0942001
  35.1742859  23.1824875  83.9937592  36.0915451  23.0189362  82.8009186
  19.3749256  65.4763184   0.7382162  19.4288921  65.0235825   1.5798533
  19.4477634  64.7793121   0.0862140  54.0675964   2.5072186   7.1253147
  54.1517868   1.5996319   6.8330293  54.7106323   2.9874625   6.6036758
  70.4593353  70.3071213  41.8959923  69.9222641  69.9134827  41.2083664
  69.8269958  70.6379623  42.5338974  86.6582718  10.2751751  62.0969048
  85.8709412  10.3955193  61.5660057  86.3293915  10.1368475  62.9851227
  48.9924202  16.3380775  61.6393623  48.4943123  17.1482334  61.5309029
  49.5970535  16.3275089  60.8973770  52.7751770  34.6845360  16.3819542
  52.8186569  35.5175095  16.8515244  52.5144844  34.0477829  17.0474014
  41.4043045   6.9764199  33.6144180  41.5215454   6.7756886  32.6858749
  40.8982849   6.2395339  33.9567299  31.8042583  20.9552479  64.0781250
  31.6325245  20.0812149  63.7276955  31.3474236  21.5469933  63.4803200
  80.0066147  39.2987709  31.5671368  80.3176651  39.6410751  30.7290974
  80.7927170  39.2453880  32.1106720  18.5757160  15.6111956   7.4663920
  19.2562504  16.2229576   7.1855869  17.7580605  16.0975151   7.3607278
  39.0251961  64.7235184  32.2046013  38.9372253  65.4183731  31.5521660
  39.3443871  63.9690781  31.7094631   5.3284492  26.4810677  57.2088928
   6.2201467  26.3666363  56.8802414   5.3469419  26.1032734  58.0881882
  72.2857285  39.1714897  15.0768709  72.3304443  38.5471344  14.3527088
  71.3604584  39.4108162  15.1299877  74.0656967  66.5083084  49.7268829
  74.1206970  66.3687363  48.7815132  74.6365051  65.8375092  50.1016350
   9.4152327  43.1358490  57.0591164   8.4590816  43.0945740  57.0417099
   9.6433287  43.0175133  57.9811821  85.1757431  27.9443302   3.2776217
  85.0912476  28.5978966   3.9718418  84.9612198  28.4188881   2.4744995
  84.9221802   8.7626705  64.1131744  84.5656281   7.8753185  64.1545563
  84.3979416   9.2609177  64.7402039  19.0888214  29.5202351  82.0280838
  18.5687561  29.5006676  81.2247314  18.6914806  28.8523903  82.5869598
  70.1338120  69.4404602  15.2360430  69.3662033  69.5044937  15.8042927
  70.5937347  68.6587219  15.5419579  82.7006607   2.4665198  67.0412979
  83.4270859   1.9054148  66.7698135  82.1068802   1.8797628  67.5096664
  83.3633881  35.7649918   0.2356622  83.3724213  36.5474854  -0.3155664
  83.7050858  36.0621338   1.0789765  42.5640450   9.4908056  14.9806204
  41.7821770   9.6906261  14.4658537  42.7690048   8.5817699  14.7618113
  14.9159842  62.6313362  12.2399387  14.5883379  63.5272484  12.1610260
  14.4935770  62.2904053  13.0283346  18.3998184  25.1674080  84.8311768
  18.7932243  24.9032612  83.9994965  18.9372463  24.7386932  85.4972153
  62.7428436  46.4514389  50.5001183  62.2395973  45.6372147  50.4970741
  62.1343346  47.1078377  50.8393631  80.8833389  45.3610344  36.7419128
  80.8615265  45.7035370  35.8483543  79.9820938  45.4458961  37.0530128
  77.8618469  20.0084438  71.9652176  77.4950256  19.1820984  72.2795868
  78.7795563  19.8083515  71.7808075  70.2291031  43.4343414  12.2251797
  70.5950165  44.2349854  12.6010904  70.0974350  43.6424561  11.3002024
  17.0921593  14.9283514  67.2587280  17.4078999  14.6737852  68.1257553
  17.8747768  14.9226456  66.7076263   4.8509717   3.4636457  43.4406662
   5.4224606   4.2188625  43.5795174   4.1708221   3.5519989  44.1083641
  34.4256325  67.9835052  81.1891251  34.9199638  67.5153961  81.8619919
  33.8330841  67.3253632  80.8258667  42.9692039  12.8307390  75.4699249
  43.6807747  13.4334326  75.6859283  42.8088684  12.3488531  76.2812881
  32.4711189   2.5369756  50.0490303  33.2368660   2.3092833  49.5217552
  31.7239056   2.2656536  49.5158424   5.8831625  14.2977657  26.6911640
   5.3511043  14.4378452  25.9078865   5.2840700  13.8929338  27.3184052
  30.7302036  54.5382309  45.2227974  30.3010273  54.2848663  46.0400162
  30.2861614  55.3440971  44.9589081  33.7704887   1.2355238   3.8421192
  33.1846924   0.9842852   4.5562286  34.0492973   2.1243100   4.0624785
  70.9817123  15.5980434  68.4232483  71.3736725  16.4704990  68.4608994
  70.1320419  15.6984701  68.8524475  31.1764679  63.0149651  16.3891678
  30.8778114  63.8868294  16.6478004  31.5141258  63.1311264  15.5010643
  48.0802727  45.4052277  48.5162163  47.1546860  45.6304855  48.4224968
  48.3057556  44.9715538  47.6932220   3.5725906  65.2683029  69.8931656
   3.3594353  65.7569656  70.6881561   4.4247599  64.8727493  70.0764084
  31.3448448  56.9126472  66.2068329  30.9386215  56.7242355  65.3608322
  31.2454700  57.8585205  66.3148880  28.7506580  39.1881027  15.3061638
  28.0579548  39.7650185  15.6279736  29.3098450  39.7571526  14.7772703
  39.2684097  52.1924477  30.1685219  38.8734016  51.3698235  29.8795738
  39.3492432  52.7130394  29.3693466  24.2279472  53.5796547  58.7851448
  23.3647366  53.8841553  59.0651093  24.1671047  52.6249237  58.8170586
  10.3166218  52.4354668  36.2832527   9.4779997  52.2176056  35.8764610
  10.4457092  51.7557640  36.9447441   9.3525496  14.9843922  14.1739674
   9.5130167  14.1872711  13.6689138   9.1067066  14.6710291  15.0443678
  39.4528427  12.9589539  63.3789749  38.7515450  13.3514032  62.8589745
  39.5329132  13.5300980  64.1429214   5.8961873  36.8624611  17.3432159
   6.4141111  36.4886322  18.0561237   5.0933347  37.1682892  17.7652683
  12.8022079  65.4549484  55.2058563  13.5707788  65.9229050  55.5322685
  13.1503763  64.6311493  54.8647232  67.8342896  60.7529297  76.9972687
  68.6317749  60.8479996  77.5180511  68.1416397  60.4570198  76.1404114
  26.6309509  54.9493599  82.2928085  26.9647255  54.0887794  82.0393753
  26.3944321  54.8523788  83.2152481  30.6317806  50.4525642   4.8386955
  30.7240829  50.0156021   5.6853223  30.4582787  51.3677292   5.0591540
   0.3611626  65.2183838  78.3305588   0.0735837  64.3068161  78.3812561
   1.2024090  65.1791916  77.8755875  56.4880791  21.2448959   1.9949020
  56.4044228  20.6368484   1.2603877  56.7555542  22.0712032   1.5925275
   0.8037691  63.2356224   2.7956867  -0.0401757  63.1367378   3.2363806
   1.3959682  63.5481796   3.4796751  26.4149399  51.3600273  67.2322006
  26.0546036  52.0182571  66.6379623  26.9496422  51.8607025  67.8483582
  73.3226471  37.1609650  22.2578297  73.6246490  37.4853935  21.4094353
  73.7617569  37.7205582  22.8983555  25.7131939  68.5726395   9.1736660
  25.5736313  68.1359024  10.0139141  26.5187874  68.1840897   8.8326664
  25.5411263  67.6358109  60.6245651  24.6506786  67.2878952  60.5767174
  25.5809002  68.2890396  59.9260368  66.1111069  61.3128700  39.6673698
  65.3479462  61.1707268  39.1073608  65.7604523  61.7491035  40.4438858
  43.0308952  61.1946030  73.0908356  42.2323837  61.2744713  73.6125946
  43.2947998  60.2804451  73.1952591  60.4723892  11.2589006  69.4758301
  59.8172989  11.8093948  69.0468292  60.0932083  10.3801222  69.4616013
  60.3417473  25.0872650  67.1624756  59.5778122  24.5105553  67.1561279
  60.7166824  24.9977818  66.2863235  38.0283394  65.4074249  17.4515419
  37.5283051  64.6219406  17.6733837  38.8782501  65.2770309  17.8721104
  47.2336044  59.5165634  10.9826527  47.8944206  60.1259193  10.6536503
  47.6219521  58.6508789  10.8561373  70.4574890  60.5000343  37.5787239
  70.8540039  61.3650818  37.6821594  70.8479004  59.9727135  38.2756767
  81.6152878  56.8656425  45.1284866  81.8583221  57.0357628  46.0385551
  80.6582260  56.8818207  45.1291351  22.8790722  39.3726425  61.2644043
  23.2945099  39.0619278  62.0688286  22.9071369  38.6196785  60.6740761
  80.2240524  32.7176437  64.2872849  80.3634262  32.0859985  63.5817146
  79.6300354  32.2735825  64.8924103  45.6708221  50.3132706  53.8796959
  44.8757896  49.8722115  53.5803261  45.7172165  50.1146545  54.8149147
  20.9045486   6.9108224  59.0939980  20.7832298   6.2822499  58.3823738
  20.8445759   6.3845181  59.8912697  25.6967525  14.3441553  58.4459229
  24.9161549  13.7910042  58.4155350  25.8650169  14.5714035  57.5314407
  35.0583801  41.5862732  87.5543365  35.7656021  40.9728661  87.3548355
  35.4971313  42.3337746  87.9605026  71.4819489  28.0016251  65.1184769
  72.0429230  27.7871189  64.3731384  72.0205460  27.8107014  65.8863907
  80.4927139  54.7478638  29.0595284  81.2083817  55.1976891  28.6104012
  80.7255249  54.7936974  29.9868546  79.9076080  19.5771580  19.4989662
  80.4920120  18.8905487  19.1776047  80.4216919  20.3815269  19.4286518
  83.5746307   7.6910744   7.1416101  84.5217514   7.5857821   7.0516043
  83.2196198   7.3900838   6.3051853   8.8228836  51.5946960  15.1168585
   8.6459808  51.7659683  16.0418453   9.7078228  51.9312286  14.9759359
  74.8949585  13.3366337  17.0858135  75.2474289  12.4847813  16.8282337
  74.6410141  13.7501707  16.2607498  52.5447731  18.9131908  87.6214142
  52.9852486  19.1029758  86.7930450  51.7647133  18.4186440  87.3700867
  33.0101662  40.8078880  70.4176254  33.5247345  40.0633850  70.1059113
  33.5832367  41.5643044  70.2924805  39.9185562  29.2132149  76.1944199
  39.5152245  29.3955193  75.3457031  40.6862221  28.6810093  75.9854126
   3.0203600  62.1531372  39.7897110   3.1133485  62.4036484  40.7088585
   2.9962201  62.9846115  39.3161087  55.1578712  40.6857185  75.7444077
  56.0866165  40.6897964  75.5127945  54.7657967  40.0453033  75.1507950
  83.6242065  65.9515228  20.5064487  83.1031799  66.0178375  19.7062206
  83.4906769  65.0520477  20.8053455  10.0241089  57.8222046  66.1912460
   9.8548107  58.6507225  66.6397247  10.9132271  57.9127274  65.8484573
  17.3798580   9.7873383  15.4625063  17.8747215  10.3489618  14.8659143
  17.9950294   9.5862179  16.1677341   0.6919413  13.8383083  55.4080315
   1.1156545  13.2813129  54.7549973   1.1685017  14.6671295  55.3613815
  20.6462021   1.7288381  24.3791428  21.5196209   1.5842423  24.0151863
  20.6590729   2.6378305  24.6788082  50.9018631  16.5855637  55.2957382
  50.3116188  16.8577785  55.9984055  50.5725403  17.0363483  54.5181961
   7.5172386  12.9752321  62.0856857   7.1764293  12.3363628  61.4596443
   6.7948780  13.1207609  62.6966286  63.6367149  26.5094738  17.2924404
  63.6847572  27.1605301  16.5924053  62.6993752  26.3944302  17.4486198
  24.4460945  70.8907089   9.9311790  23.9722462  71.0218124   9.1098928
  24.9140778  70.0647736   9.8084707   1.2448646  31.9622765  87.5411530
   1.2227186  31.1575966  88.0590668   1.1697872  31.6655273  86.6342163
  44.3077850  63.5136490  43.3445358  45.0762978  64.0597382  43.1790009
  44.0826530  63.1509514  42.4878006  48.2094269  48.1033821  19.5507793
  48.8776970  48.7815399  19.6494980  48.6955948  47.2799644  19.5938702
  60.8814850  30.7607956  19.7764797  60.9611816  29.8759441  19.4202271
  61.4761314  30.7714844  20.5264893  40.0299187  65.4586258  39.2375069
  39.3692818  66.0645218  38.9018250  40.3140717  65.8481750  40.0643883
  59.9895325  58.5680008  48.3835068  59.7672081  59.1248512  49.1296425
  59.7130127  57.6907730  48.6485329  24.9773312  60.2845879  38.9975548
  24.5006657  60.8866005  38.4260597  24.6432056  59.4183083  38.7648582
   0.2299119  39.0759277   7.0982556   0.1823570  39.9703522   6.7606511
   1.1653234  38.8731041   7.1082258  62.5228844  19.6187038  85.5039673
  62.3759308  18.8302727  84.9814606  62.5708351  20.3264542  84.8613052
  82.1768417  22.2055454   1.9854522  83.0137634  22.6189842   2.1972744
  81.7214584  22.8502731   1.4439915  47.3718758  42.2525406  36.9335709
  46.7243309  41.8762054  36.3375092  47.5975609  43.0957069  36.5406723
  10.0603418  49.2790070  80.5824509   9.2868681  48.7163734  80.5448456
  10.4783001  49.1689873  79.7283783  35.7449112  15.3944902  11.8633289
  35.3717613  15.2372618  10.9959927  35.4108620  16.2553883  12.1153116
  75.9099884  23.5053577  78.1931915  75.4807663  23.4455299  79.0466614
  76.8365250  23.3540936  78.3799286  64.5855179  30.5649338  36.1389351
  64.9662018  30.7742252  35.2859955  65.0524368  29.7792263  36.4233284
  65.6169586  44.8316193  29.9811192  64.6818085  44.6303902  29.9460335
  65.6543198  45.7517624  30.2422180  72.1033936  13.6281633  18.3348312
  72.9510574  13.4348345  17.9344234  71.7576752  12.7724361  18.5886784
  37.3233452  60.4971352   9.9285021  38.0167198  59.8841667   9.6840954
  36.8292236  60.0406876  10.6094818  39.8398781  25.8063450   7.7143087
  40.7800598  25.6813736   7.8434305  39.6864510  25.5476818   6.8055816
   3.6537771  14.2107763  80.1971283   4.4781051  14.6000977  79.9053345
   3.2902613  13.8026276  79.4113159   0.5963472  14.1764545  39.9081116
   1.2535282  13.6611547  39.4403381   0.5677813  15.0105009  39.4393044
  14.8149920  29.0661774  74.3701324  15.5810471  29.0199661  73.7980728
  14.5280390  28.1574383  74.4600372  49.8876457   5.7435188  51.1811600
  50.8404579   5.6745505  51.1209908  49.7362480   6.3283095  51.9236755
  58.4077835  37.7051163  52.5397224  59.1374207  37.1313057  52.7733917
  57.6272011  37.2238312  52.8141022  43.9841423  50.0945129  86.6829147
  44.4672546  49.6669922  87.3900604  44.5265198  49.9586143  85.9059982
  14.5061226  32.9500008   1.0661644  13.8236818  33.6206779   1.0926530
  15.3267193  33.4421806   1.0909312  76.7193985  20.2547054  60.3726959
  76.6473694  19.8089199  61.2166862  76.5567322  21.1762657  60.5739326
   0.6507168  23.6744823  75.3216019   1.2623767  24.4039116  75.4217987
   1.2096246  22.9123363  75.1699905  46.2237167  60.5195389  20.0045738
  47.1595116  60.5847740  20.1950130  45.9197769  59.7897453  20.5442524
  17.3105030  57.2346077  39.2166176  16.7926788  56.6136703  39.7289886
  17.8919926  57.6463432  39.8558159  48.5234337   7.0618029  78.9814377
  48.2167320   7.4226031  78.1495819  48.3122559   7.7359653  79.6273041
  72.8776627  53.3595505  45.1921539  72.9101868  52.4161339  45.0335884
  73.0573807  53.4514923  46.1278267  27.1927185   2.9587719  68.5847626
  27.5152264   2.2192116  69.0998077  26.3378201   2.6721873  68.2634354
  20.9871216  44.0099792  87.3982086  21.4358902  43.2735405  87.8135376
  20.2301006  43.6156654  86.9650040  35.1013641   4.4104152   0.5652687
  34.6394920   4.7943883  -0.1800304  35.1131706   3.4710727   0.3816162
  67.1554794  53.5618629  60.6337776  67.0142365  53.4771881  61.5767059
  67.4089050  52.6836090  60.3497353  73.6322784  20.0358696  54.2938347
  73.7104263  20.9820995  54.4153862  74.0133667  19.8729477  53.4310112
  45.7799225  44.5576210  22.3237438  46.0254936  44.2694588  23.2028847
  46.0464668  45.4763298  22.2896404  59.5426903  18.6771545  41.6933098
  59.1820984  18.0530682  42.3231659  59.6528587  18.1694641  40.8893547
  48.8153801  34.6275520   5.6787748  48.6270142  34.3563995   6.5772328
  49.0930481  35.5402222   5.7572603  13.0855627  46.3137627  53.2956505
  14.0239801  46.2906380  53.1083832  12.6965828  45.7321129  52.6424980
   7.6399674  69.0090714  40.5198708   6.9132524  69.3021164  39.9701042
   7.3356457  69.1530685  41.4159088  38.3686981   4.2944703  31.9728680
  37.6611900   4.9364276  31.9132462  37.9741173   3.5436757  32.4165382
  66.0891495  51.1873512  57.3207207  65.4503174  51.1777954  58.0334854
  66.3262787  50.2679749  57.1992760  52.6949768   8.5268021  53.2522545
  52.5405769   9.3985186  52.8882408  51.8191071   8.1651869  53.3876038
  43.3556213  58.4581451  64.6176071  42.8455811  59.2434921  64.8159027
  42.7998466  57.9556999  64.0218735  86.3990860  54.6151505  81.1681137
  86.2664032  55.4495544  81.6180038  87.2361755  54.7176285  80.7153244
  35.0017395  53.4301987  16.0347157  35.8930435  53.0819626  16.0114460
  35.1166229  54.3783493  16.0982647   9.5148315  33.6539536  18.4350319
   9.1649485  33.7045097  17.5455055  10.3392668  33.1767044  18.3413601
  22.5102234  57.2817841  36.8235359  22.4262829  57.3620872  35.8734131
  23.4404926  57.4281616  36.9950142   8.1904469  46.4035835  27.0215187
   8.1101961  46.2186775  27.9572544   7.3700857  46.0867500  26.6435509
  63.2148857  52.9687614  59.9797020  62.3913765  53.2654915  59.5923805
  63.8505058  53.6415405  59.7356033  79.1419754   0.7856845  42.9712067
  78.7594681   0.9914471  43.8241882  78.5556793   1.2016339  42.3391724
  11.7154093  68.3947830  32.3203812  11.8967142  67.8299408  31.5691757
  11.0940542  69.0427933  31.9883556  23.6127815  53.0641823  63.5831184
  23.2989922  52.2206612  63.2571716  22.8913460  53.6699409  63.4133644
  51.2741203   4.1231799  24.6428757  51.6957169   4.4779983  25.4255581
  50.3945122   3.8818362  24.9331779  44.4336700  50.4281883  81.0696030
  43.5100632  50.4047127  80.8193283  44.4549065  50.0388527  81.9437866
  46.7349586  44.3415642  25.1385078  45.9107399  44.4267311  25.6177139
  47.1667900  45.1882019  25.2523613  29.8555393  55.5578423  74.1113205
  30.4042473  54.8559418  74.4613037  30.0473499  55.5668449  73.1735764
  52.3515053  50.7159576  21.7486591  52.9096222  50.8286362  22.5181026
  52.0602188  51.6017113  21.5322762  54.1660728   8.9517937  35.9837799
  54.9464340   9.3777351  36.3385201  53.5410919   9.6653681  35.8555412
  43.4365425  24.3954506  16.3031216  44.1074486  24.0188332  16.8725758
  42.6499672  23.8822002  16.4877853  48.6097412  69.2158813  59.5605621
  48.7645149  69.3878860  58.6317482  48.9888535  69.9709702  60.0103951
  81.0124741  71.8967514  61.7959213  80.5264969  71.2245255  61.3182411
  81.4150620  71.4275131  62.5266495  10.3927088  23.8402424  13.3454580
  10.4144220  24.0395641  12.4094925  10.3233700  22.8864040  13.3856668
  82.8756104  27.3059826  26.4717178  83.5072403  27.1585503  25.7677765
  82.3559341  28.0529270  26.1746616  72.8523483  50.3339958  73.2163849
  72.8236923  49.3794785  73.1507492  71.9799271  50.5791740  73.5246124
  72.6161728  69.4709320  66.9865417  72.7232132  69.4481506  66.0356216
  72.3711929  70.3761520  67.1783752  44.7610703  46.5478325   5.3446488
  44.2958794  45.7261276   5.1877303  44.8311996  46.9522705   4.4799266
  59.2701683  49.6423531  37.7638206  59.0677109  49.4951859  36.8399239
  58.8877831  50.4977646  37.9594994  52.1423569  22.5236931  24.3454895
  52.2760162  22.2498398  23.4380932  52.4903450  23.4147091  24.3804970
  50.1886253  55.4471893  16.1213760  50.8502846  55.6282310  16.7889557
  50.2345695  56.1975975  15.5289173  63.6780472  12.2038250  24.3337154
  63.3593788  13.0157461  23.9394226  63.2925415  11.5102091  23.7984467
  71.5052567  68.4052887  74.0037842  70.8212891  67.7893066  74.2664490
  71.6601028  68.9381256  74.7837448  81.7984695  70.2910461  73.1089172
  82.0312424  70.5701294  72.2233887  80.9822998  70.7535858  73.2990494
  82.6239624  47.6641464  41.8383408  83.4005814  47.5299568  42.3815575
  82.5013504  46.8298073  41.3854904   7.3536081  25.5264606  19.9376488
   7.1135659  26.4267502  19.7183571   7.9901900  25.2782516  19.2672844
  21.5534096  48.8266296  66.4221115  21.9279118  49.6641426  66.6951523
  22.1742020  48.1714096  66.7407608  37.4351273  66.2676086  66.1736832
  38.0836525  66.7953186  65.7076721  37.0507507  66.8688812  66.8116150
  14.6059065  68.8529968  81.8178482  15.3872681  69.3936157  81.9337463
  14.8945742  67.9658203  82.0319138  80.0180969  58.5082283  56.1158905
  80.8118286  58.9691315  56.3875275  79.3644104  58.7498245  56.7720604
   2.7449958  58.4453354  18.3509617   2.6888528  59.3570824  18.6369667
   1.8342443  58.1576691  18.2876301  24.7647018  59.7214622   0.4154557
  25.4101276  59.8793526   1.1044600  24.0235500  60.2804146   0.6489026
  49.0810051  69.7111816  53.5101700  48.4900093  70.4441452  53.3377724
  49.8445854  69.8845825  52.9596138  64.9606857  14.1545982  22.6687889
  65.3889694  13.3204489  22.8611565  65.6504135  14.8090477  22.7792702
  34.0794144  55.0385513  21.3047543  34.9994392  54.8527336  21.4925251
  33.6614609  54.1777802  21.2798481  77.5695648  41.9885597  87.8693390
  76.9518890  42.7191734  87.8391800  77.6998215  41.8234329  88.8031464
  47.6483459  16.0859909  28.8302612  47.3077278  15.4625158  29.4717350
  46.9316902  16.2037048  28.2067375   7.3802242  16.9011402  30.0183582
   7.7154298  16.5787010  29.1817570   8.0437860  17.5220737  30.3189526
  86.0026093  62.7132568  79.4105835  86.5709610  62.2239685  80.0053940
  85.3730774  63.1489830  79.9850998  79.9598999  64.6312714  40.2029991
  79.5627670  65.4752350  40.4180527  79.2250671  64.0180969  40.1862946
  66.6762238  29.0386429  81.1472168  65.7517166  29.0810127  80.9028397
  66.8148193  28.1267014  81.4029312  13.8142576  41.5140495  54.3696022
  14.4833975  41.3078651  55.0222664  12.9853745  41.3169212  54.8058662
  13.8486414   2.0543544  14.7955484  14.2458973   2.3911288  13.9924288
  13.4524355   1.2224928  14.5362053  45.7399330  17.5719147  61.0726166
  46.0770912  16.6777229  61.1271782  44.9655914  17.5706673  61.6353149
  44.2756462  56.6822624  32.4635429  44.8601227  56.2572174  33.0912018
  44.8420753  56.9134445  31.7273750  72.7669373   5.1001763  47.7650070
  73.2446136   4.5329118  47.1598091  72.1063004   5.5286584  47.2207718
  30.8355923   4.1058688  35.7905998  30.1065483   4.5285392  35.3366470
  30.5379696   4.0231490  36.6965866  77.7245178  12.5663118   4.7695832
  77.1703033  13.2759838   5.0942979  78.2347336  12.9644184   4.0642996
  70.5351410  48.8395500  23.9924450  71.2403412  48.9520264  24.6298466
  69.7446899  48.7451515  24.5239525  50.5311584  22.1628265  67.1651154
  50.2384872  23.0656185  67.2897797  51.4866829  22.2192650  67.1606522
  35.6019211  42.0599022   5.4172468  34.9242668  42.0167122   6.0918975
  35.1520920  41.8114319   4.6096897  70.4262695  47.1108322  71.1293640
  69.5116196  47.3321571  70.9542313  70.7681656  46.8191719  70.2842178
  44.4693909  62.8568993  52.4546165  44.8450966  63.5778084  51.9492798
  44.6890869  63.0614967  53.3635178   3.6448574  61.7098846   1.3193706
   2.9035339  61.2291069   1.6875075   3.6216059  61.5065956   0.3842963
  27.5218010  42.1621590  77.7875290  27.5876255  42.5096092  76.8980484
  27.1365242  41.2928963  77.6772156  82.3577042  55.4271317  26.9065228
  82.8972015  54.6462288  26.7825699  81.6164932  55.3027306  26.3137646
  13.4192743  56.1875038   5.9027109  14.1577520  55.5786629   5.9167476
  12.7011414  55.7023811   6.3091278  81.8978653  34.2014656   2.7571516
  82.2276154  34.4993019   3.6049652  82.6104355  34.3852463   2.1450231
   9.2414799  50.6626854   8.1693602   8.9668694  51.5466881   8.4129982
   9.1561499  50.6395187   7.2162528  49.7403297  10.4671621   9.1071959
  48.9192772  10.1948833   8.6973610  49.5978012  10.3294067  10.0436478
  17.5797138  56.4622040  19.0989037  17.7844963  57.3953056  19.0387592
  17.6099396  56.2702866  20.0361786  64.8650131   4.7042851  64.3030777
  65.0151367   5.0114231  65.1971436  65.3377609   3.8735006  64.2526703
  41.7874336  64.2658005   2.6197743  42.1241875  63.4874954   3.0636950
  40.9233894  64.0047760   2.3011420  27.7444763  55.9264107  47.2345543
  26.9900455  56.2343903  47.7367630  28.4880333  56.4042664  47.6019974
  19.8824196  59.7961960  30.6198235  19.7810993  60.1497459  29.7361012
  19.1344948  59.2091064  30.7301254  60.2577171  12.6006956   6.5240064
  60.5041237  13.4130077   6.0816650  59.3515778  12.4475355   6.2562699
  35.7271500   5.6299796  48.7040672  36.2731552   6.1523604  48.1165047
  35.3730659   4.9358797  48.1481171  41.3515511  32.3782310  86.7304688
  41.2919502  31.4392109  86.5546341  41.8839951  32.4400826  87.5235062
  23.8819656  18.1641693  16.0963879  23.7181587  18.7460232  16.8385773
  23.3312588  17.3996868  16.2652740  56.8116798  13.2998915   3.4068265
  56.0399323  12.7778845   3.6262467  57.5341377  12.6719751   3.4091890
  67.7376480  20.0648308  72.5011673  66.8868408  19.8261452  72.8691254
  67.5519791  20.8135872  71.9344940  25.7054081   7.4352160  33.7673721
  26.3163719   7.7154007  34.4488792  25.7625732   8.1180334  33.0989952
  29.3519516  29.2517033  72.0893936  28.8086777  29.7655945  72.6868896
  29.7699013  29.9027557  71.5257568  15.4268036  53.4825859  67.1671143
  16.2294121  53.7392883  66.7130737  15.4734001  53.9342461  68.0097656
  73.3425751  53.2764359  30.7327328  73.3448715  54.1499290  30.3412762
  74.0249557  53.3125687  31.4030209  35.4798851  55.2280388  47.7568207
  35.7650681  56.0727234  47.4083900  36.0540543  55.0720749  48.5066490
  73.4879837  61.5263023  46.8665695  73.2217102  61.9419479  47.6866722
  73.0368729  62.0269547  46.1868057   8.8308477  37.4402657   2.0308571
   8.4063320  37.3876648   1.1745557   9.7676411  37.4177933   1.8355517
   4.1387315  58.3764839  28.8744850   3.5667856  57.6139603  28.9620590
   4.7667375  58.2884407  29.5914841  72.4893723  24.3426228  40.1592827
  72.0068512  24.9961452  40.6655579  73.2309189  24.8237801  39.7920914
  25.4482899  28.7445717   9.2755661  25.1555214  28.4770432  10.1467419
  25.2427654  29.6783390   9.2300854  13.8232603  50.8236542  76.5578461
  14.5876513  50.5291023  76.0626907  13.3355522  51.3709793  75.9423752
  31.3233433   6.8279200   5.7204466  30.6324730   6.1658263   5.7441359
  30.9538517   7.5411081   5.1998014  76.2397766  42.4800034  69.3974838
  77.0393066  41.9907913  69.2034302  75.6957169  42.3687210  68.6178360
  68.4334030  23.4232311  36.3877487  67.5166626  23.2175732  36.2046547
  68.6409760  22.9147491  37.1717072  26.8523102  64.3591690  18.2954159
  27.5737171  63.8106499  17.9873066  26.1345310  64.1731339  17.6900940
  58.2835846  40.4110413  22.5969162  57.8883667  41.1486511  22.1321945
  58.8237801  39.9746246  21.9381580  76.8360825  64.6359177  56.7403564
  76.9639740  63.7799225  56.3315163  76.8693161  65.2564468  56.0122948
  43.0112267  37.6372261   2.2040048  42.7162933  36.8721695   1.7101076
  43.9665375  37.5980530   2.1583958  75.6247025  44.0640488   6.3024569
  76.5372162  43.9276886   6.0475936  75.6484756  44.1188507   7.2577910
  85.8225021  11.2645731   3.1220772  86.0646133  10.7897482   3.9171588
  86.2534103  12.1147337   3.2102275  17.3207569  49.7298470  44.3157196
  17.6563339  50.1047974  43.5014534  16.4169388  50.0406837  44.3679237
  63.7966499   7.3220053  30.5182190  63.2448044   7.4110675  29.7411957
  63.5139351   6.5004420  30.9198875  56.8321991  53.2124443  29.2098770
  56.5408211  53.6651611  28.4184361  56.0223503  52.9631538  29.6551113
  35.6400566  14.2312012  32.1725807  35.0264168  14.7497444  32.6929550
  35.6878815  14.6882887  31.3329277  63.3803368  41.5716782  20.7518959
  63.4924278  40.8974953  21.4220791  62.7884369  42.2096138  21.1505508
  71.1288147   3.0595417   0.2650562  71.3030090   3.3485184   1.1608124
  71.4018326   2.1421967   0.2519627  64.6581421  49.3733597   1.3537877
  65.5676346  49.2736206   1.0725337  64.1527939  49.3556137   0.5410538
  66.4258347  55.3133278  56.7021217  66.3029099  56.0895462  57.2485695
  66.7388763  55.6566849  55.8652611  83.8809662  36.6487846  31.3779736
  83.1114960  36.7620277  31.9359398  84.5661469  36.3454208  31.9735641
  58.5611877  59.5557938  33.6734085  59.1561699  59.5864716  34.4225960
  58.7908974  60.3259125  33.1534271  54.6278229  36.8902969  66.6076584
  54.6202164  37.8472214  66.5858536  55.5339012  36.6626663  66.8160782
  36.9548416   0.4107929   9.2747774  37.7892303  -0.0553506   9.3270540
  37.1964378   1.3368639   9.2907705   7.5852337  54.9572868  87.5720139
   8.3244810  54.4923401  87.9638901   6.9930410  55.1264153  88.3047714
  71.7689056   2.8206851  55.9072571  71.3799744   2.0513647  55.4911919
  72.4743118   3.0821457  55.3154259  11.4369631  25.2242908  21.0108967
  11.9557838  26.0235538  20.9201412  10.9490871  25.3466167  21.8252964
  67.0617142  16.9908752  89.4383774  67.2990189  16.2392101  88.8953094
  66.8423615  17.6798210  88.8111038  24.8899498  18.0611801  57.4443169
  24.8018990  18.0455589  58.3973312  24.2123528  17.4619064  57.1313248
  57.5623894  66.0763168  51.9447403  56.9129868  65.4335861  51.6594238
  57.8732681  65.7449265  52.7872162  82.3776093  41.8602066  11.0879555
  82.0561523  42.3946304  10.3618088  81.7554321  42.0209274  11.7973928
   9.7159672  65.8278961   2.2828178  10.4537888  65.3297195   2.6344833
  10.0169506  66.1285782   1.4253615  84.3982849  53.7379036  13.4271736
  84.8970032  54.5496178  13.5200768  83.4982605  54.0258904  13.2746801
  39.6273766  65.9473419  85.7848206  38.8630180  66.5232010  85.8042526
  39.4808731  65.3305588  86.5019989  71.2226334  37.1279831   8.4383631
  70.9306717  37.9823265   8.7563114  70.8940887  37.0814972   7.5405173
  39.7571983  69.9192581  82.0443039  39.3689461  69.8781509  82.9182587
  39.0118484  69.8508301  81.4476395  33.9248199  59.2450409  80.9603271
  34.2897263  58.3823700  80.7631531  34.2863770  59.4676552  81.8181992
  27.3583794  11.0057726  36.1347504  27.1209106  11.9238224  36.0042763
  28.1669960  11.0378637  36.6459656  35.6579628  59.0027237  43.9009361
  35.9114265  59.0044403  42.9779053  34.7965393  59.4198875  43.9135437
  18.5621605   5.7893453  15.4951096  19.2166080   5.1096125  15.3341999
  18.0153084   5.4342260  16.1958771  56.1573677  68.1590881  50.9491768
  56.6298103  68.9452896  50.6754570  56.8420639  67.5587006  51.2440605
  35.0829124  29.8254433  11.4727669  34.2296982  30.1787796  11.2209454
  34.9359055  28.8836060  11.5597439  68.0506821  27.1770515  16.8646355
  67.2522583  27.1064129  17.3878536  68.6157608  27.7632675  17.3678989
  70.1579742  60.2414894  73.0330963  71.0226593  60.6041641  73.2255096
  69.8541260  60.7371941  72.2727127  49.5364380   6.5758948  57.7342567
  48.9285545   5.8366365  57.7486229  49.0154381   7.3080239  57.4044495
  47.1790352  21.6870537  35.3854446  47.6851501  22.2277145  35.9918785
  46.8216171  22.3087463  34.7514229  60.7490044  27.7301865  19.3672428
  60.4333534  27.1575241  20.0662804  61.0592499  27.1308823  18.6884098
   8.2220469  65.8846283  66.2998428   9.1132822  66.2334518  66.3158340
   7.8039346  66.2601395  67.0747070  15.5016994  24.4589901  26.2203465
  15.6397047  25.2818012  25.7511253  14.7349997  24.6222153  26.7696743
  40.0754509  61.4435692  20.3042107  39.8048897  60.6725807  20.8028145
  39.8063850  62.1855698  20.8457546  13.4171991  53.2337608  46.3157959
  13.0519037  53.5770874  47.1312218  12.8791113  52.4677200  46.1161232
  86.3736954  63.4111519  27.1923809  85.5919266  63.7704811  26.7729244
  86.9597931  63.1999474  26.4656658  72.2596359  46.0132103  15.3962851
  73.0117340  46.5816422  15.5620108  71.9262238  46.2989998  14.5457611
  42.7372169  47.6737862  79.3251572  42.1878319  48.4571686  79.3520126
  42.6751480  47.3073654  80.2072601  50.1597710  50.5822754   1.9485224
  50.4279060  50.2150269   2.7908187  50.3831787  51.5109978   2.0101485
  54.1402893  66.3085632   5.4458590  53.7486916  66.9699173   4.8753381
  53.8100090  66.5196762   6.3191185  59.3115540  44.2620010  69.9309006
  60.2259483  44.0099831  69.8020630  59.2654419  45.1650009  69.6167450
  79.3743820  49.8291969   2.8742869  79.0186768  49.8657036   3.7621920
  80.1488571  50.3909569   2.9032474  82.1528091  67.6225586  74.2888489
  82.0034714  68.4354935  73.8060760  82.8411179  67.1748352  73.7969055
  59.8037529  39.1935234  14.4047165  60.3623848  39.0094566  13.6495495
  59.4210854  38.3460388  14.6317997  14.7949200  56.1768036  71.7668533
  14.3406792  56.9089966  72.1837311  15.0730286  55.6215096  72.4952316
  57.9462891  20.2113323  32.0005264  58.0362129  19.5741081  31.2919426
  58.4234467  20.9816055  31.6919289  73.6619263  37.9003639  64.0742798
  73.9963455  37.2311440  63.4771690  73.4523239  38.6432571  63.5082283
  83.4216919   6.7325702  78.7969360  82.9142761   6.8601184  79.5984955
  83.5923691   7.6187673  78.4779510  49.0172691  31.8647556   2.3487539
  48.3850174  31.1571808   2.2229586  48.4807434  32.6345329   2.5380032
  55.6250305  60.4746666  65.6537628  54.8388786  59.9461365  65.5164719
  55.7108421  60.9892654  64.8512344  59.5773315  22.5675163  39.0670052
  60.1590271  23.2971554  38.8537254  59.2349319  22.7800674  39.9352303
  73.5713577  49.6644783  40.9146957  74.2444229  50.0969810  41.4402046
  73.6669312  48.7347260  41.1212349  76.0732346  64.7391968  30.3089294
  76.9365768  65.0979538  30.1035995  75.8114929  65.1896286  31.1119423
  39.5376930  64.0398407  49.4432716  38.9973183  63.2655640  49.6004906
  38.9371796  64.6762314  49.0551643  30.9278946  58.8666115  52.8946838
  30.6286545  59.7535858  53.0945969  30.1224785  58.3611870  52.7847633
  56.3016586  30.6940269  51.8419266  56.2957687  31.1123524  50.9809952
  55.5254517  31.0406151  52.2819366  81.6447906  39.8096390  51.5111542
  81.8925629  40.4720039  52.1562157  80.9273224  39.3293877  51.9244652
  52.9612770  13.8491945   4.8184075  53.4675789  14.4443512   4.2655239
  53.3799820  12.9967651   4.6988926  62.6218414  17.7663708  42.0188103
  62.5114250  17.7107334  41.0696297  63.5180054  17.4677753  42.1735954
  36.8158722  29.0167465  79.0848007  37.2055397  29.8184528  78.7360077
  37.5648384  28.4720535  79.3268509  74.0157166  70.6389923  22.0812759
  74.8131790  70.7081375  21.5563927  74.2493973  71.0275345  22.9242840
  17.7068195  32.0692711  82.9810486  18.6021709  31.8193531  82.7527618
  17.5197906  32.8251152  82.4243164  19.7852192  62.6110077  78.2067261
  20.4654293  62.4035416  78.8474350  19.0118065  62.1404839  78.5176468
  59.5898361  62.7673912  13.8390102  59.6385689  61.8114586  13.8317766
  59.4942360  63.0093193  12.9178352  19.4514084  14.8035421   2.2944696
  20.3359833  14.7770615   1.9297014  19.5463314  14.4498615   3.1788514
   9.7703257  40.5368271  12.7415180   8.9269562  40.0940208  12.8357477
   9.7125568  40.9850349  11.8977137  35.4987030  33.2644997  77.3602524
  35.3088684  32.5575981  77.9770889  35.8390923  33.9734993  77.9058533
  30.0812569   0.6774519  58.5707092  30.6308804   1.3767818  58.2170372
  29.9952087   0.0529681  57.8503990  21.1949635   3.0861809  84.3996964
  20.8209972   2.7027433  83.6063766  20.5475330   3.7324293  84.6815262
  82.5597610  42.3521004  16.6275883  83.3762665  41.8538246  16.5918465
  81.9002686  41.7571030  16.2708302  49.5957947   0.3370599  37.0237350
  49.4296379   0.2418768  37.9615860  49.2040787   1.1800717  36.7954407
   5.3328648  40.7604713  43.9638863   6.0829773  41.0411682  43.4397011
   4.5717378  40.9593506  43.4185753  33.8394890  11.1511097  87.8311462
  34.6105156  11.3670483  88.3556671  34.0610695  10.3204155  87.4103394
  18.1416759   7.3958888  74.6050873  19.0466747   7.2521009  74.8817368
  17.7337875   6.5317907  74.6615906  65.9855194  26.1070194  79.3874054
  66.7925949  25.5933971  79.4197922  65.7329559  26.0983028  78.4641724
   8.3415823  60.9824295  67.8618088   7.7435265  60.7368317  68.5676727
   9.0922413  60.3984108  67.9698181  46.3220367  56.5662537  18.0302010
  46.6224289  55.7375832  17.6569748  46.4300041  57.2010422  17.3219509
  49.0813332  70.2914658  17.0741138  48.6080627  69.4648895  16.9791431
  49.3415222  70.5223083  16.1823483  25.7885799   2.4122605  46.4389915
  26.5105324   1.8910263  46.7901764  26.1998100   2.9862945  45.7927704
  44.4279976  49.0831146  83.5062790  45.2031898  48.7272453  83.9406357
  43.8016319  48.3593102  83.5033112  26.0785332  67.9826813   5.1488605
  26.2217121  67.5992432   4.2835803  25.2365494  68.4320068   5.0753789
  26.6209373  54.2543907   2.2208943  26.9135323  53.3607979   2.4000907
  27.4120560  54.7867355   2.3043892  76.6244278  12.4184875  55.4488869
  77.1768570  11.7528801  55.8587875  76.6925278  13.1767502  56.0290871
  36.9216461   5.9454851  78.0260239  36.4366913   5.8201847  77.2103348
  36.2924881   5.7295170  78.7143173  48.9900551  61.2874107  81.4425125
  48.5909729  62.0220490  81.9086380  49.8106766  61.6397209  81.0980072
   0.4611124  26.2035866  41.0391006   0.8749334  26.7232933  41.7282257
  -0.4599172  26.4630585  41.0638161   8.4998264  41.6879692   1.9269452
   8.1879063  41.6256180   1.0241441   8.0472908  42.4519157   2.2844782
  49.3160553  29.2696056  87.6259766  48.8283653  29.9315434  88.1161118
  50.2265129  29.3964672  87.8928223  58.8160553  51.6704445  85.6480331
  58.8528404  52.6067696  85.8434143  59.7155762  51.4384079  85.4172668
  49.9833183  24.7567062  72.5817108  50.4080849  25.5594273  72.8841095
  50.5287819  24.0513382  72.9297943   4.6282511  50.6827888  57.8620834
   4.8805265  49.8552246  58.2716255   4.8390818  51.3482170  58.5170517
  75.2866364  22.0029736  76.0424576  76.1953125  22.0018806  75.7415695
  75.3250275  22.3857365  76.9189606  43.5557365   8.4126616  24.3969994
  44.0494347   8.5978365  23.5981216  44.1039848   7.7937827  24.8793354
  11.5178709  45.2455368   6.9868255  10.6829596  45.2826233   7.4534945
  11.4254322  45.8837433   6.2794514  45.7212830  38.3585701  68.6264801
  45.5358276  39.2275543  68.2705231  46.6205177  38.1752281  68.3544693
  73.3843002  54.4537468  15.3994637  73.5037994  53.7994881  14.7110624
  72.4497604  54.4187546  15.6035271  63.3720818  11.7762527  85.7909317
  62.9440575  12.4605732  85.2764130  63.7913284  11.2138081  85.1396866
  74.5485153  31.2319221  76.4233246  73.9408035  31.9530582  76.2593689
  75.2743683  31.6341572  76.9003830  52.4337006  25.1331120  27.4481316
  53.3720856  24.9810696  27.5601540  52.3428955  25.4084167  26.5358849
  76.4288559  54.2296371  44.8132744  76.1861038  54.9815254  44.2729378
  76.0500031  53.4765663  44.3598595  43.9765587  33.1309547  60.3819084
  44.9284592  33.1770859  60.2925224  43.7107658  34.0289917  60.5796852
   5.2690134   6.8654304  66.3909378   4.5336146   7.1759629  66.9191360
   5.6461029   6.1497645  66.9026566  16.8927345  34.5149307   0.7998944
  17.1270313  34.6053810  -0.1237693  17.5502491  35.0317612   1.2655011
  75.0348434  29.9943676  26.0819016  75.4166489  30.3804111  25.2935944
  74.1962204  29.6360703  25.7910938  45.8549004  57.8268127  29.9601097
  46.1490021  58.0946655  29.0894833  46.0738220  58.5676537  30.5253143
  24.9789944  29.0554199  82.7664795  25.1448326  28.8989220  81.8368378
  25.2141476  28.2317581  83.1936951  12.5851593  71.2120819  34.3749466
  13.5276279  71.2659607  34.2165794  12.4975300  70.5757217  35.0845947
  23.2889938  65.6263885  50.9039536  23.9381313  66.1773911  50.4666367
  23.6186543  64.7345200  50.7938042  78.2726593   6.1035161  69.0678253
  79.2288208   6.0753236  69.1025009  78.0445633   5.5663915  68.3090820
  16.3453217  27.6216221  26.2115459  16.4368839  27.9789524  25.3282776
  15.9275284  28.3228645  26.7114868  82.8645859  61.7761955  30.5208511
  83.5447922  61.1715088  30.2243595  83.2745438  62.6398506  30.4732094
  41.0293503  41.2683830  59.3317070  40.7353210  41.0090752  58.4584732
  40.2433357  41.2134895  59.8752098  24.3171387  68.8667221  18.4004517
  24.3734913  68.4261093  19.2483387  23.5552597  69.4408264  18.4790382
  41.7122307  39.8207474  68.6672516  42.0670166  39.2663383  69.3622208
  40.7924156  39.5639801  68.6021042  67.3517532  48.4408493  24.3749561
  67.1969757  47.7939301  25.0632668  66.5001450  48.5482635  23.9513359
  32.6652107  49.2451286  69.8949051  33.4969673  48.8118248  69.7034302
  32.0007095  48.6578789  69.5346222  59.7189217  55.4241486  52.9507065
  59.9238586  55.1141434  53.8328247  60.4940071  55.2047768  52.4336433
  56.1000977  19.4070301  53.8071365  56.8582344  19.8475571  53.4232140
  55.5498047  19.1802979  53.0574684  56.7721405  10.0302706  29.9180260
  55.8628120   9.9752798  29.6241989  57.2860413   9.7518520  29.1599884
  10.6859741  18.6461678  87.1500778   9.7731400  18.7203178  87.4284058
  11.1823616  18.5983505  87.9671097   8.4449720  27.0820007  76.7455902
   9.1898813  26.9423771  77.3302612   8.7622185  26.8101749  75.8843689
  42.6301308  38.0675240  87.5228882  41.9042587  37.8275414  88.0988617
  43.2572060  37.3503914  87.6163177   8.6122456   0.5301139  49.6451874
   8.0054703  -0.2073737  49.5806313   8.0690336   1.3018943  49.4854774
   4.3896127  34.1070633  44.6265945   3.7483530  34.7792397  44.3959541
   5.0112610  34.5557060  45.1997452  10.0783443  60.9642868  22.3471603
  10.6321201  60.7185555  21.6060925   9.7708340  60.1306572  22.7031536
  65.3667221  70.6727905  64.8260956  65.3968658  70.6795731  63.8693924
  65.1202850  69.7757645  65.0516052  85.0545425  18.9638939  54.4416924
  85.9104385  19.2013912  54.7984467  85.0647964  19.3050003  53.5473900
   5.0411611  51.7611008  71.3963699   4.1666203  51.4365578  71.6110382
   4.9567814  52.7141304  71.4254532   1.1186002  58.0970535  29.2567577
   0.2795470  58.3227463  28.8551540   1.5149901  57.4730034  28.6487579
  23.1884480  63.4563026  64.1707840  23.8874245  63.9992638  63.8062897
  22.7388000  64.0296326  64.7915421  76.7845612  12.5955200  37.1524162
  76.8113098  12.2314968  36.2675400  77.2334290  11.9451847  37.6926117
  86.1483994  57.3867149  48.9338760  85.7567520  56.6048660  49.3231812
  86.4376221  57.1032104  48.0665741  84.1731949  65.8825760  58.3664970
  83.9171371  64.9699554  58.4998741  83.4468918  66.3904190  58.7281570
  84.8153687  71.1445389  46.0344772  84.0910950  71.1563263  46.6601868
  84.3971024  70.9940186  45.1867561  69.9177551  11.8729229  26.1162891
  70.5634460  11.7486000  26.8118896  70.0276642  12.7850714  25.8477039
  53.9395485  69.3458176  50.7140312  54.2455788  70.1929703  51.0379257
  54.6968689  68.7673264  50.8037148  76.0052795  45.0631790  39.7191086
  76.6387177  45.0572777  40.4367065  75.6627579  44.1696968  39.6946297
  83.3068390   9.5852461  53.1035690  83.6449738  10.0026445  52.3113098
  83.0071030  10.3129454  53.6484032  40.0945549  54.2628975  32.4921455
  40.8371887  54.0008965  31.9480095  39.4326515  54.5592537  31.8674145
  49.2304726  17.8602352   1.6157697  48.7962914  17.7697582   0.7675170
  49.0285301  17.0457535   2.0762818  40.0349655  41.1265564  19.4257736
  39.9830704  40.8844910  18.5011425  40.8182716  41.6733246  19.4866142
  20.4658394   6.6820168  13.7277222  20.3543072   7.6099072  13.5208120
  19.6275406   6.4188666  14.1075125  46.5665703  48.9441795  69.0495605
  46.1473045  49.7400894  69.3766327  46.2500877  48.8589859  68.1502228
  13.0445585  51.9465485  19.5193233  12.2006054  51.8203087  19.9529572
  13.3746767  52.7722664  19.8735008  30.6786156  62.7857056  82.2209549
  30.8906918  62.4315491  81.3573456  31.3554573  62.4316673  82.7978210
  79.1768188   4.8943877  41.7148094  78.3120728   5.2997532  41.6505585
  79.2897644   4.4376440  40.8812256  33.8545036  13.1463795  73.2079163
  33.3520432  12.5366068  73.7482376  34.3991776  12.5848141  72.6563721
  58.9635391  70.2399521  56.9481583  59.6593781  70.8816452  56.8057938
  58.4502373  70.5997772  57.6715355  69.0152054  71.4586029  44.0978355
  68.1850815  71.1461334  44.4576683  69.5803833  71.5709763  44.8621521
  72.7133942  28.1380825  30.0752697  71.7950974  28.0301361  30.3228912
  72.8568344  29.0842915  30.0938358  72.9067154  29.1545944  25.0278931
  71.9599152  29.0915089  25.1536388  73.0123215  29.3463974  24.0960732
   9.3410892  21.9536037  64.2586594   9.1670074  22.3087044  65.1303406
   9.2294092  21.0081959  64.3584824  58.2770920  70.9479675  29.2278099
  57.5883064  70.3917923  28.8638344  58.6900177  71.3492203  28.4631386
  48.7167625  30.4382496  76.9311600  48.9030609  29.5024490  77.0073318
  48.8709335  30.7854443  77.8097534  62.6417160  37.7475929  32.5755043
  62.2230530  38.0228271  33.3911018  62.5914536  38.5173912  32.0088348
  35.3423767   9.8182478  14.9327688  34.5586395   9.5866623  15.4311256
  35.8559113   9.0109367  14.9051847  59.0525703  38.9822121   1.4781034
  58.1640663  38.6647301   1.6393383  59.6180229  38.2576141   1.7454087
  30.1885986  38.6535225  12.1452885  31.0108337  39.1261940  12.0158987
  30.2712116  38.2629318  13.0152578  43.8093491   5.5644226  61.9905739
  43.8672867   5.8426142  62.9046211  43.6827202   6.3768520  61.5005188
  10.8210754  36.5121689  61.4544067  11.7105341  36.7404976  61.7245178
  10.2996979  37.2858315  61.6685066   2.4067566  19.7611504  49.5789108
   2.5970571  20.5443230  49.0625229   1.7713033  20.0536251  50.2322769
  75.7609406  55.2348175  28.0877476  74.9934006  55.4911385  28.5990372
  76.4136047  54.9878654  28.7429314  67.3358994   9.0979710  82.3413239
  67.7104721   9.5668879  83.0870056  68.0948639   8.7725391  81.8572769
  21.4434757   4.9110346  57.0639000  21.1789551   5.6860723  56.5683441
  21.7210369   4.2833381  56.3966751  39.5689278  45.2965698  85.0353165
  39.4569702  46.2280884  85.2249680  40.4723053  45.1073799  85.2889938
  45.2577896  68.0090714  33.9611397  44.6358833  68.0447235  33.2343712
  45.6076279  68.8980484  34.0208397  60.2394981  16.6153755  27.3752041
  59.3861427  17.0258789  27.2355461  60.2961311  15.9434795  26.6958065
  57.7245216  12.1452312  50.3233566  57.4414291  11.4325552  50.8962288
  56.9181404  12.6134834  50.1072006  58.7087135  35.2939377  10.4625130
  58.4759560  35.9144630  11.1531687  59.6195107  35.0629463  10.6450462
   9.4238653  13.0260363  42.4423599   8.9883165  13.5144873  41.7438278
   9.1094713  13.4317646  43.2503052  59.5656357  55.5214195  57.9191208
  59.6895905  56.0765724  58.6889763  58.9101067  55.9816437  57.3949966
  74.3536606  34.1788101  60.5586128  74.1172180  34.0912285  59.6352158
  75.2004776  33.7386093  60.6318092  62.9091187   2.6484263  17.2618713
  63.0065651   3.3923891  16.6675186  62.2401733   2.9273913  17.8871117
  38.7007790  14.7410908  82.3512878  38.0719337  15.4326115  82.5576553
  38.2928581  14.2518206  81.6368332  86.7030106  48.4681969  28.9742737
  86.9577408  48.2091370  28.0887051  85.9829178  47.8787537  29.1984596
   7.5934319   0.5278714  57.4762039   7.1904430   1.2085024  58.0152512
   6.8552122   0.0872959  57.0553017  20.6269302   6.8341651  76.0251541
  21.3119526   7.2470493  75.4993210  20.6999855   7.2510862  76.8836823
  34.6407013  58.6905441  17.9035778  34.2904434  59.1974182  17.1710262
  34.3024368  59.1311302  18.6831264  37.6528511  23.4960079  13.1713762
  37.8545837  24.3565235  12.8038855  37.5316315  22.9318504  12.4076586
  45.5751648  63.6788139  75.1639862  44.9422455  63.0433922  75.4984741
  45.0382957  64.3808594  74.7963715  22.1922131  46.8147774   9.1707888
  21.9413509  46.2210846   8.4630966  22.9876423  47.2426414   8.8538399
  60.1909294  44.1212158  75.7386780  59.7618446  44.9751205  75.7931137
  59.5699883  43.5149612  76.1425552  56.8659134  67.2987595  88.4696732
  56.2103806  66.6012573  88.4688263  56.4455147  68.0231247  88.0062180
  45.9500237  29.4565144   7.9724512  45.3898849  29.0325775   7.3222561
  45.7733459  28.9835262   8.7856550   1.9684632  42.8893814  47.9465218
   2.0703444  42.2055168  48.6084747   2.1817803  43.7014008  48.4062462
  35.2511368  50.2978668  78.4698257  35.8971367  50.8801155  78.8696976
  35.6274109  50.0705986  77.6195374  55.2598610  54.5661621  44.8536644
  54.8082695  54.4251862  44.0215454  56.1415215  54.8427467  44.6038475
  75.4463501   1.5018743  32.9049759  75.2645035   0.7096027  33.4104156
  75.6636276   1.1826202  32.0291328  76.2112122  15.1711359  10.1567907
  75.4752121  15.3506813  10.7418528  76.3422012  14.2250528  10.2200480
  57.4633980  19.3451309  12.3355055  58.2147598  19.1400681  12.8919535
  56.7042770  19.2357731  12.9082260   7.1978216  19.1865501   2.3667383
   6.9402003  20.0243473   1.9820879   6.3735447  18.7154942   2.4888289
  76.0008087  45.1218414  61.9189453  75.7385788  45.1434937  60.9986191
  76.9232864  45.3772049  61.9112167  76.2853317  44.9230156  83.9179001
  76.8393707  44.3265114  84.4213333  75.4681244  44.4410782  83.7908325
  56.9947052  23.6324120  51.9758682  56.4187088  24.3611755  52.2068672
  57.4390907  23.4097557  52.7938995  53.0068779  31.2374916  31.0098991
  52.3826752  30.5261803  31.1535625  52.5953331  32.0022392  31.4124184
  13.4485931   7.4803228  48.8534698  12.7104769   8.0298443  49.1169891
  13.9883623   7.4105453  49.6408768  10.3031197  27.9247036  24.6524010
   9.4864998  28.1366539  25.1045532  10.5002747  28.7057247  24.1353245
   3.7103133   5.4704504  49.8477058   3.9142799   4.7909727  50.4903107
   3.1779516   5.0248370  49.1887283  55.7862892  48.4284134  39.0473747
  55.4830513  49.2040672  38.5755310  55.6747932  48.6514359  39.9715309
  65.2811584  54.3437881  31.0923061  66.2296295  54.3182564  31.2187405
  65.1056519  55.2294502  30.7744484   8.5220776  19.3632526  64.3644409
   8.7798471  18.4473171  64.2602768   8.0311460  19.3819695  65.1859436
   0.4983624  26.1111126  67.7070084   0.4081233  27.0426636  67.9077606
  -0.0364892  25.6708393  68.3675537  10.6372385  68.4326019  42.9860344
   9.9343691  68.1289444  43.5604935  10.6660109  69.3795547  43.1227036
   8.6816082  29.0273743  12.9480886   9.0853605  28.3802032  13.5263481
   7.7419434  28.9368744  13.1064301  74.1933212  65.6583405  54.2192154
  75.1051178  65.8678207  54.0167809  73.8438644  66.4603577  54.6076508
  72.0401611  17.5936489  33.0244675  72.1556396  17.1192951  32.2011299
  72.8290405  17.3941002  33.5285378   1.8928584  17.7268715  64.6642303
   0.9818632  17.4354382  64.6269989   2.2229221  17.3761272  65.4914322
  52.0929794  54.0736046  11.2754898  51.2762527  54.5573807  11.1524057
  52.2488594  54.1030350  12.2194529  23.6221409   8.5655928  84.5171738
  23.8235664   8.6228962  85.4511871  23.0200119   9.2922382  84.3569870
  54.8503456  71.1520081  69.5645218  55.7798882  71.1307983  69.3370743
  54.8019943  71.7374344  70.3202896  11.0249014   8.2600565  20.7814980
  11.8252726   8.7747173  20.6777496  11.3326378   7.3657455  20.9289379
  80.9563904   2.4609325  17.7182465  81.1773453   3.0245347  18.4597073
  80.3036728   1.8530481  18.0656242  76.5566559   6.9408083  20.4914169
  77.3779526   6.8843303  20.0030441  75.9170456   6.4940019  19.9368916
  32.8371391  58.2685432  56.8638153  33.6837616  58.6734695  56.6754150
  32.7556458  57.5704308  56.2140198  65.5329590   2.9970989  38.0867844
  65.7636108   2.5902309  38.9219437  65.4348907   3.9268196  38.2922897
   7.3999987  58.9054604  70.9851913   7.2038574  59.7801361  70.6494827
   7.1701035  58.3160858  70.2668533   8.2928057   7.8175516  14.9278450
   7.8060441   7.9981346  15.7320118   7.8476529   7.0626860  14.5428152
  74.9758224  53.8725166   0.9894423  75.3213577  53.5531807   1.8230245
  74.8273010  54.8070145   1.1339717  37.7657967  24.6916008  76.6515961
  38.0305710  25.6107025  76.6887360  37.7926903  24.3976173  77.5621338
  80.0095901  60.3881989   7.3477631  79.5680313  60.9795418   7.9573274
  80.1483994  60.9152641   6.5608931  25.9531174  63.4561005  80.9250870
  26.1945286  64.2835999  81.3412552  26.5732975  63.3617249  80.2021103
  23.5436039  69.9287491  54.3864365  24.4197063  70.2063675  54.1188507
  23.3430138  69.1864624  53.8163414   2.9623859  13.2693729  48.4262047
   3.7449238  13.8079271  48.5437927   2.3561578  13.8302050  47.9422798
  74.6811523  36.0089645  87.1966019  74.0083237  35.7761574  86.5568008
  75.1769333  35.2007217  87.3276520  78.9143677  40.6749344  64.2520370
  78.2993469  41.1919518  63.7317696  79.7748871  40.8979149  63.8970490
  39.3987885  55.5132561  39.3496704  39.4967537  55.6767960  38.4116478
  38.8900032  54.7040291  39.3998604  68.5990067  64.9521942  56.9678688
  68.4258728  64.9558029  56.0264626  67.7486115  64.7686615  57.3670845
   4.1227837  54.3116760  40.9474182   3.4450271  54.2644119  40.2731438
   4.9279604  54.0587234  40.4958229  62.0738220  44.9625244   4.5953751
  61.3957253  45.6277504   4.7132392  62.7881584  45.4239044   4.1559587
  84.1190414  53.8436432   1.0982784  83.6145935  53.0673599   0.8550681
  83.4775696  54.5540771   1.1038247  67.8660126  64.3578873  66.8599854
  67.0461197  64.2199631  67.3343201  67.6326447  64.9507904  66.1456833
  59.3407822  46.4446411  37.0016708  59.4093399  47.0586929  37.7327499
  58.8529129  46.9234734  36.3316460  40.9369278  47.5121918  38.9323044
  40.1828003  47.0044594  38.6327477  41.6063042  46.8557129  39.1251869
  19.9929485   6.6702714   3.7786810  19.6972256   7.1145186   2.9840586
  19.3835526   6.9616556   4.4568887  18.5007095  47.6716385   7.9144125
  18.1968555  46.9552917   7.3569570  18.4794922  47.3109093   8.8007851
  58.4909859  47.1145058  43.2550888  59.3498611  47.5283432  43.3405342
  58.0676117  47.5871582  42.5384369  83.0674973  16.2785053  28.0378990
  82.5539627  15.6481781  27.5327263  83.8492661  16.4308090  27.5069809
  76.0827637  63.4552193  47.5119171  76.4213562  63.0712013  48.3206863
  75.1344070  63.4831200  47.6387253  81.8203125  67.9419708  27.3326492
  81.4500732  68.3189850  26.5345135  81.7926559  66.9964676  27.1860962
  59.4981689  14.5873985  19.7484837  59.2790947  15.2348909  20.4185524
  58.6682434  14.4111280  19.3053322  52.5693436  44.4933472   2.5063176
  53.0620728  45.2128754   2.1116934  52.8880653  43.7102890   2.0574632
  20.9189720  69.1462250  72.6095657  21.3179951  69.8593750  73.1079941
  21.0431137  68.3717957  73.1582718  21.9503918  65.8571701  65.5994110
  21.4317741  66.5557938  65.2004318  21.7510300  65.9146652  66.5338516
  65.3536835  34.1397133  44.1150017  64.7475586  34.4807739  43.4573364
  65.1620483  33.2027168  44.1542969  40.0191879  55.4759598  42.7119217
  39.2679901  54.8828354  42.7236938  39.8742104  56.0308914  41.9455910
  41.9986801  50.0659981  12.4892359  42.6170540  50.4277878  11.8544474
  41.6617432  49.2738342  12.0706882  59.6067352  34.4629364  61.2706985
  59.9206085  34.1545296  62.1207581  58.6535568  34.3977890  61.3293152
  45.9608765  60.2691422   4.3567438  45.2198792  59.7402840   4.0610018
  45.9565353  61.0320168   3.7786112  78.9497833  44.7279243  16.3210201
  79.2052994  44.0209389  16.9135666  79.2944183  44.4622078  15.4684639
  75.4546814  16.6140099   7.6221509  74.6433716  17.1205215   7.5840764
  75.4768524  16.2638321   8.5127220  39.0789642   8.2231131  69.6150436
  39.2656631   9.1359348  69.3956528  39.8236771   7.7351642  69.2635574
  21.1134319  44.6854668  83.2657013  20.8139477  45.2392044  83.9867477
  20.7199154  45.0751991  82.4850006  81.1353531  68.2569351  56.1671104
  82.0900040  68.2842560  56.2313232  80.9633865  67.7731857  55.3592453
  59.9995728  56.2817001  18.0131073  60.7512474  55.7269821  17.8045387
  59.6862946  55.9535751  18.8559742  46.1070137  13.3792725   6.2715464
  45.4223785  14.0305176   6.4244819  46.8915367  13.7590837   6.6671433
  83.8824539  34.4462090  15.4005919  83.0728302  33.9719696  15.2112799
  84.2034760  34.0568886  16.2139874  59.1250038  36.2885094  40.5536385
  59.4986649  37.1559029  40.3979568  58.2672920  36.3176003  40.1297073
  42.3826027  19.5890007  84.4333954  42.3664436  19.1775074  85.2974777
  42.9198494  19.0037823  83.8994293  68.0057220  41.5978584  57.2268410
  67.2904663  41.1167107  57.6429482  68.4115448  40.9617157  56.6378937
   7.2732763  37.0528831  88.7113190   7.3970332  36.2003632  88.2940292
   7.5855560  37.6843414  88.0632629   5.3033552  19.2801571  54.2464142
   4.4221873  19.2359524  53.8751717   5.6825418  18.4199047  54.0663719
  86.5756226  45.5167427  13.8328962  86.0863724  44.9573135  14.4361391
  87.0375290  44.9047279  13.2599068  77.4551544   6.6127405  53.1278114
  77.8229446   5.7978191  52.7859612  76.5090103   6.5100641  53.0252762
  38.8261871  57.7436256  60.1511421  38.5337143  56.9398003  60.5807419
  39.7724876  57.7609482  60.2941399  15.3352575  53.3123932  12.0141563
  15.6734438  53.7351799  12.8035307  14.3981028  53.2100983  12.1800098
  60.5296402  48.5834808  72.0345001  60.3910217  49.3365402  71.4601135
  59.9311028  47.9148445  71.7014542  85.2062531  36.0522881   6.8587160
  85.7059784  36.8624725   6.9592724  85.0526581  35.7528343   7.7548008
  25.6595135   3.1088991  72.6529388  25.1271534   2.9983752  71.8651505
  26.2933426   3.7874546  72.4204407  17.5429802   2.1660106  66.0515366
  16.8945065   2.1645906  66.7556076  17.9566250   1.3044688  66.1051636
  27.9463291  37.0919876   4.0581369  28.3243790  36.6544685   4.8209534
  28.4242554  37.9189301   3.9950306  55.9497719  10.1412249  82.2891159
  55.4393578   9.4285393  81.9046860  56.4730377   9.7202444  82.9711761
  21.5195522  65.9937286  25.8646488  21.8818398  65.1222305  25.7050591
  20.9684029  65.8857346  26.6397648   7.4725561  62.9580383  33.7175407
   7.1744480  63.4634171  34.4738197   7.7167692  62.1063538  34.0797920
  62.1373787  14.1202917  12.8479023  61.5347824  13.4173069  12.6051636
  62.2902832  13.9920893  13.7840738  18.2125797  18.7447109  28.2298450
  18.7150459  19.3823643  27.7227402  18.1070213  17.9987679  27.6393700
   7.1720209  19.1071148  46.4002457   6.3301210  19.3817654  46.7635689
   7.6241798  18.6890259  47.1330414  69.0404129  65.5897064  49.2297783
  69.9395599  65.2678070  49.1653519  69.0471802  66.1682053  49.9923553
  80.2301788  15.7220716   2.0253932  80.2531738  15.9859753   1.1055791
  80.2357254  16.5467072   2.5113747  58.7933807   2.3904517   7.7352886
  58.2242203   2.1016090   7.0219464  59.2439461   1.5950912   8.0192347
  79.8487701   3.4310074  44.0115585  79.5987854   4.1047769  44.6438408
  79.9062424   3.8955781  43.1766319  68.5728607  26.8930206  86.1476135
  68.3138885  26.6890945  87.0462723  69.0992050  27.6887836  86.2247543
  73.0117874  21.5845375  69.5654373  72.8515701  21.0144367  68.8134155
  72.4890823  22.3666992  69.3887100  24.5127239  55.1510239  14.4050779
  24.6593857  55.4212341  15.3115587  25.1067696  54.4115601  14.2764797
  27.8577671  53.0674896  35.4353447  27.5233612  52.9384308  36.3228951
  27.2725506  52.5508499  34.8814163  72.3398514   6.4359832  25.6159077
  72.1290741   5.9291492  26.4000797  73.2517929   6.6995139  25.7389908
  61.1599503  16.6092472  32.2128563  60.4694862  16.4959564  31.5596657
  61.4994011  17.4897175  32.0523071   7.1456170  63.1994514  10.8838596
   6.9401731  63.5979195  11.7295828   7.4878335  62.3330727  11.1041079
  42.9675865  19.4020672  60.5800018  43.6436195  19.1533585  61.2103615
  42.4895668  18.5906372  60.4088097  29.4819565  53.6565628  54.0023766
  28.9905262  53.4299927  54.7919312  30.2819595  53.1341629  54.0600357
  81.7961502   3.6861105  15.3234329  81.3146973   3.3986490  16.0991917
  81.2827454   4.4174771  14.9802847  63.6156120  37.9274902  17.7375031
  63.0654984  38.2725067  17.0342445  64.1768036  37.2819824  17.3078327
  56.6021957  55.3550377  38.9838371  55.9186859  55.9283829  38.6369629
  56.9688530  54.9249077  38.2113190   9.5422335  56.2179680  58.6780434
  10.4101429  56.6078644  58.7826729   9.0956774  56.4022484  59.5043983
  83.2093582  25.5548077  18.1728573  83.6750793  25.3779430  18.9902039
  83.0481796  26.4982128  18.1883450  65.4960480  59.2671204  48.7656326
  64.8700485  58.8621330  49.3659134  65.5302963  58.6711693  48.0173645
   4.2592983  23.0857067  81.1462631   3.6704051  22.8188610  81.8521194
   4.8578200  23.7098103  81.5567551  25.2641048  35.2420044   6.3725238
  25.1257095  35.1711578   5.4280348  26.2157040  35.2584686   6.4745879
  81.2511826  34.6793709  88.2204590  82.1336823  34.9089851  88.5114746
  81.2628708  33.7248077  88.1503754  19.2337265  58.7911873   6.5821185
  18.7122612  59.3749199   7.1330829  18.8724308  57.9202271   6.7468181
   2.1504893  61.9484940  21.4675121   3.0206642  62.2219505  21.7577667
   1.7681146  61.5162811  22.2311974  74.2799683  68.7803040  40.2153778
  73.3847580  68.4567261  40.3160553  74.2796631  69.6279907  40.6599579
  67.5501251  50.5311050  49.0931702  67.9116592  50.9244232  49.8874130
  68.2940369  50.0877113  48.6854630  46.5131760  43.2420769  72.5990372
  46.2147903  42.7315636  71.8463287  46.5323334  44.1455002  72.2832870
  55.8249664  44.7316055  68.7330322  55.8171577  45.4240799  69.3938217
  54.9210243  44.6878510  68.4212494  55.8946075   4.0800858  41.8787498
  55.7416306   3.8173354  42.7863770  55.8295975   5.0349884  41.8916321
  84.3622742  10.6681509  15.1801786  83.5744324  10.2194605  15.4871216
  84.8605881   9.9910536  14.7225142  30.3777065  42.2278900   4.4063163
  30.9302082  41.7209053   5.0012445  29.7399521  42.6556358   4.9777484
  26.1323719  65.5691299  73.6515884  25.2177868  65.3818359  73.8629837
  26.5394650  64.7071762  73.5646820  19.0960007  51.1132088  45.7923813
  18.4765816  50.5510216  45.3270912  19.9453869  50.6907005  45.6648560
  63.9837418  60.3053131   8.2409496  63.7014046  60.5855904   9.1115599
  64.3953171  61.0815887   7.8611774  34.4275856  11.1767235   4.2470655
  35.2923965  10.8306437   4.4674282  34.5147858  12.1241112   4.3523498
   6.3011851   5.3087215  85.8387222   6.4518852   6.0727153  85.2820892
   7.0214481   4.7140512  85.6293869  43.8752975  65.3710632   4.0902028
  43.0582314  65.2431641   3.6082556  43.8419647  66.2825699   4.3805094
  73.4812393  56.1003647  45.2404671  73.0976715  55.2316322  45.1204414
  73.5694122  56.4479523  44.3529778  22.6400547  36.5813904  74.8287582
  22.7932091  35.8583488  75.4370193  23.3365345  37.2088318  75.0223236
  78.7137909  47.6739731   5.9961553  79.0086136  48.5846367   5.9957371
  79.3395157  47.2193871   5.4321880  54.7162209  18.0348015  13.7050982
  54.1314049  18.3421268  13.0124426  54.4799919  18.5609913  14.4690037
  20.4812431  36.8481636  80.2123032  21.4193153  37.0382843  80.2226868
  20.1221218  37.3752785  80.9260406  23.6250343  56.5657272  69.6029510
  23.6085377  57.4957581  69.3771133  24.0662651  56.1475105  68.8635941
  72.1785736  24.5614796   9.6399603  71.4042511  24.7343559   9.1044569
  71.9552841  24.9094143  10.5032768  59.7929344   1.8796984  66.5350342
  59.2278671   2.0630913  65.7845001  59.8198853   0.9242765  66.5867462
  71.9591141  57.6674728  28.4548569  71.6794662  58.4605293  27.9975948
  71.2310715  57.4592743  29.0403843   4.7871399  28.1183414  14.5141029
   4.8881636  28.4658794  13.6279631   5.5120163  28.5034714  15.0065060
  53.1691360  59.3329086  65.0901718  52.3739281  59.6604462  65.5104065
  52.9698448  59.3500786  64.1541061  85.6788712  22.5628414   0.1627145
  85.2932663  22.6027946   1.0378985  85.6890564  23.4720936  -0.1362629
  21.6745892  65.7389908  40.9419212  22.5672703  66.0796585  40.8844643
  21.2639236  66.0032730  40.1186714  43.2182198   6.6679764  42.7542953
  43.8374138   6.0137863  42.4304695  42.7539978   6.9662151  41.9721298
  55.8122749   0.2940198  63.5483627  55.4530678  -0.2854171  62.8764610
  55.2491341   0.1556995  64.3099213   8.1175337  11.1890287  16.2935200
   8.8471651  10.9528961  16.8663292   7.8741374  10.3684254  15.8650322
  69.0317459  64.5250626  41.5331116  68.6448593  63.7247658  41.1780434
  68.4440842  65.2235031  41.2448921  70.3940582   1.9426911  12.0296593
  71.3003464   1.8377243  12.3192434  69.9307251   1.2012205  12.4192486
  23.7389011  19.1906109   1.1046014  23.6835670  18.3133812   1.4836005
  23.8172531  19.7733459   1.8599242  24.7897320  56.9208984  60.8414803
  25.7458153  56.8992844  60.8005981  24.5369453  57.5761337  60.1910934
  11.0800934   0.7711576  12.0992489  11.5540514   1.6018637  12.1382790
  10.1591177   1.0164707  12.1878910  57.9772949  18.6341839  29.4296970
  57.1498451  18.4238205  28.9969101  58.4478722  19.1760693  28.7963333
  82.9369888   5.2727056  67.5641632  83.8617554   5.4242530  67.7593002
  82.8047104   4.3410845  67.7397003  68.3749847  10.3274908  40.1030350
  68.8286362   9.4854383  40.1402283  68.3146667  10.6075974  41.0163422
   5.0109067  55.1507950  28.5242939   5.7817154  55.7161713  28.5736523
   5.3125324  54.3753891  28.0510101  30.8576145  52.7239380  57.4988060
  31.7327251  53.1064148  57.4345589  31.0064907  51.7788620  57.4688530
  34.4914894  16.8697987  67.7474899  33.6087189  17.1061020  68.0322800
  34.9319115  17.7087193  67.6115646  34.3745918  20.6808910  74.8428421
  34.8280754  21.5078468  74.6793594  34.9610939  20.0121346  74.4892731
  43.9595070  42.4504433  62.7948990  44.3425865  42.5162849  61.9201736
  43.8515930  41.5103226  62.9389725  15.5029812  39.3855362  76.1689835
  15.0863304  39.7450523  76.9521713  16.1410332  40.0505638  75.9104156
  32.8991432  69.7193069  74.8817673  33.7451591  69.3042984  74.7136612
  32.4130363  69.6119385  74.0642090  18.3411732  51.2574081  35.4373741
  17.9410954  51.4231186  34.5837288  17.6829224  50.7543106  35.9167786
  41.7253418  59.0633888  49.6204147  42.4812012  58.5205040  49.8444290
  41.8385658  59.8583298  50.1414528  80.3625259  23.1326580   3.9211228
  79.5172882  22.7007465   3.7976365  80.9833832  22.5862179   3.4392793
  44.8995514  62.3063736  83.8399048  44.9759445  61.3881645  84.0993042
  43.9972305  62.3942146  83.5327682   7.9528456  71.1531372  18.5673733
   8.8018312  70.8691330  18.9061909   7.3132062  70.6528854  19.0741634
  44.2274170  44.2312279  83.7969360  44.7389336  44.6952362  83.1341553
  43.5737648  43.7428627  83.2964630  75.7635040   7.6865644  28.2151203
  75.4122849   7.3273635  27.4003487  76.6391983   7.9954805  27.9828320
  82.9174423  36.9044952  22.4509125  82.1489029  36.3387184  22.5249443
  83.0946121  36.9460831  21.5111713  50.4233208  69.5747452  29.3247433
  49.6708832  70.0986252  29.5997448  51.0628433  70.2171249  29.0171738
  64.3860245  36.6023445   5.1608667  63.9685211  36.9705276   5.9395618
  64.8073196  35.8008575   5.4712887  27.1229801  25.8318863  80.2223511
  27.7760429  25.2672577  79.8088989  26.6037083  25.2393112  80.7658920
  71.1706619  50.2352028  39.8671303  71.4863739  50.2541351  38.9636955
  71.9643402  50.1581917  40.3966370  31.1012669  47.4138985  83.6979370
  31.6223373  47.0767708  82.9691925  30.3030739  46.8857117  83.6861496
  69.2345581  48.0427208  19.0031567  68.3258896  48.2705116  19.1998005
  69.4492188  48.5616989  18.2280350  47.6542282  34.0908737   3.2164772
  48.2090607  34.8215027   3.4895656  47.0483780  33.9642487   3.9466436
  51.8413506  61.2650948  53.7678757  52.2132301  62.1455040  53.7147636
  51.0166931  61.3239212  53.2854767  42.6789169   6.6731672  39.7577820
  41.8340454   6.3347621  40.0542831  42.5816574   7.6247439  39.7934914
  54.2035675  69.4666977  46.7711372  53.3277893  69.8530197  46.7699738
  54.3937531  69.3016129  45.8476601  20.9171181  16.4932537   6.4031401
  21.7744637  16.7564163   6.7377095  21.0317440  16.4558830   5.4535632
   4.1791191  11.8592882  19.0115414   4.5669293  12.7030458  18.7793579
   3.2350700  12.0038509  18.9474735  46.7077446  68.4222946   3.5636952
  46.8055992  69.3663330   3.6880014  46.2780991  68.3360367   2.7126987
  83.9187622  29.3703880  53.5076218  84.7586746  29.5980129  53.9063225
  83.9465485  29.7773724  52.6416969   5.3616552  70.9157410  40.1331024
   4.6635218  70.2666855  40.2201271   5.3113403  71.4310303  40.9381943
  74.2380829  10.7751303  70.1166153  73.5651474  10.4579391  70.7189255
  75.0051880  10.9214878  70.6701126  17.8572445  44.8017273  22.3166428
  17.9356956  45.6667786  22.7188435  16.9514694  44.7615395  22.0097427
  65.7521362  35.5732002  40.2419548  66.4019089  35.2891769  39.5990295
  65.3559418  36.3532028  39.8535500  15.0938120  46.7992516  39.6069069
  15.9344721  46.4427948  39.8940659  15.1217537  46.7390518  38.6520119
  60.0178680  51.2068062  66.8911209  59.2305870  51.1769714  67.4347458
  60.7350731  51.3224449  67.5143967  78.9742279  70.2378616  32.1766472
  79.2206955  69.3135910  32.2114220  79.3903732  70.6258392  32.9464073
  52.3113022  41.2543907  42.1684418  51.7085457  41.3856583  41.4365349
  52.7164993  42.1113052  42.3016663  29.8610992  60.9455643  56.2594223
  29.6711349  60.7301559  55.3463287  30.7523727  61.2942619  56.2428169
  56.3272743  51.2278633  16.3052158  56.2655449  51.4819603  17.2260056
  56.0113983  50.3245239  16.2843361  52.1940041  50.8420410  39.7923431
  52.5716133  51.4065208  39.1178017  51.7260094  51.4424171  40.3726540
  29.0067711  25.0028267   9.4527388  28.6917191  24.9748459   8.5493059
  29.8435555  24.5386467   9.4290714  56.6212997  23.7608070   0.5779223
  57.0040512  24.3663979  -0.0568954  56.7673569  24.1792698   1.4263254
  10.3998260   0.1156964  25.2895489   9.9633570  -0.6979303  25.0370846
   9.7251272   0.6174798  25.7469635  58.0957756  18.3480377  33.8302765
  57.3105927  17.8407917  33.6243134  58.0320930  19.1244354  33.2740555
  39.7687912   7.6550736  15.3850336  40.3069649   7.1008892  15.9502592
  39.8530693   8.5321188  15.7590933  47.0386391   1.0841624  66.9125824
  47.0233994   1.9564091  67.3065186  47.2327461   1.2419920  65.9886551
  76.3317719  39.7047310  61.0056267  75.4817429  39.4360580  60.6570740
  76.1680298  39.8719940  61.9337654   0.3423977   6.4773493   3.3820319
   0.3255681   5.5203605   3.3930037   1.1797314   6.6975088   2.9738235
  36.9805679  15.9802961   2.4490180  36.9728851  15.0679522   2.1595337
  37.0783920  15.9290705   3.3998275  66.2024460  60.4005203  72.2230911
  65.4441910  59.8497353  72.4178009  66.7182159  59.8869514  71.6014252
  14.2061729  10.7097330  46.6432648  14.1229124  10.5598145  45.7015495
  13.3847761  11.1336985  46.8918419  23.3173561  58.3981094  43.8230820
  24.0537682  57.8075714  43.9818192  23.1907883  58.3735466  42.8746033
  81.3045883   5.9682059   9.0619574  81.7472229   5.5431862   8.3273401
  81.4600372   6.9029894   8.9268761  46.6701622  58.3963547  41.2535362
  47.1324806  58.8090134  41.9830627  46.5369835  57.4913940  41.5355721
  54.3371315  63.4075012  75.5293808  54.8993988  63.0334396  76.2077332
  54.0363007  62.6521416  75.0242386  48.4487877  46.8444328  75.1257629
  48.8253212  47.4573097  74.4942245  48.6770744  45.9794006  74.7854156
  77.5802307  13.9039974  69.8837204  77.1186066  14.5076494  69.3017044
  77.7452164  14.4146128  70.6763611   4.8388071  47.2362251  46.7039680
   5.1753588  48.1317673  46.7351799   5.4950538  46.7510338  46.2038078
  70.1585541  22.4074078  70.3623810  70.2068253  23.2053204  70.8889160
  69.4699402  21.8879204  70.7773209  81.6091003  70.8643036  19.5848675
  81.7537003  70.1068268  19.0178127  80.6608276  70.9942856  19.5737267
  83.8138885  15.7341671  46.8948441  83.0938263  16.2415123  46.5202141
  83.4084320  14.9134903  47.1747131   1.4336452  23.4670639  63.4615326
   0.5139989  23.4944420  63.7256012   1.4144773  23.5959110  62.5132370
   8.7733507  37.1491661  64.6685867   9.0608501  38.0292625  64.4256821
   8.2133121  37.2826767  65.4332886  33.4500847  47.8543739  60.6718521
  33.7661858  48.3022118  59.8871536  34.0995255  48.0614929  61.3438339
  23.1150665   4.8243198  16.7240429  22.9030457   3.8941662  16.8021049
  24.0410900   4.8795171  16.9599819  33.2276649  35.5471535  73.7129135
  33.7870827  35.9406395  73.0432510  33.5059624  35.9600983  74.5303879
  67.3840332  44.3330307  41.2530937  67.9558945  44.9824524  40.8438759
  66.6034927  44.8263130  41.5054092  38.4767990  55.0926857  72.6022720
  38.8344650  55.6977005  73.2520905  37.5276909  55.1738052  72.6963348
   5.6008525  61.8655357  16.8445511   4.6742625  62.0658112  16.7120686
   6.0443792  62.7081223  16.7467651  55.0156288  15.4624481  47.5896416
  55.1029282  16.0035934  46.8049278  55.9030075  15.1489620  47.7643356
   7.8574963  14.5851994  73.0403137   8.1449499  15.4757376  72.8389587
   7.0452690  14.4780111  72.5453110  61.5168266   4.2320051  72.5078888
  61.8239403   4.4366817  71.6247025  62.1943932   4.5845947  73.0847931
   6.9439712  24.6310787  74.0674057   6.0647020  25.0093727  74.0639954
   7.1011939  24.3822708  73.1565781  80.7480164  62.4521942  10.1350164
  81.2547760  63.0069618   9.5420094  81.2127075  62.5070496  10.9700499
  52.8358345  47.9241371   6.9261022  53.7400131  47.7319374   7.1745968
  52.4431267  48.2926369   7.7174425  44.0555534  14.2101517  87.1753311
  43.7054253  14.6362686  86.3929901  43.4005470  13.5499640  87.4019394
  48.7982864  60.4323463  20.6738567  49.4284363  60.5034027  19.9568539
  49.3334999  60.4617348  21.4668980  58.4727287   8.1102619  25.0550213
  59.3322296   8.5042124  24.9057026  58.2218781   7.7527547  24.2032623
  46.4729462  35.2840843  67.2623901  46.8991165  34.8435402  67.9975967
  45.5422783  35.0898857  67.3736649  69.4003525  52.6555099   4.7154889
  68.9642181  52.0479851   5.3129268  69.2807007  53.5153351   5.1187458
  19.6061287  15.0559673  20.5604649  19.2449799  15.0947609  21.4460697
  20.3358593  15.6753139  20.5720425  57.3205147  63.7039909  25.2740040
  56.5894699  63.9354515  24.7010899  57.7771683  63.0033340  24.8084049
  68.8545532  20.4033756  19.6981773  69.6492462  20.8910542  19.4816875
  69.1715240  19.5585308  20.0175476  81.1807709  45.8530540  85.2326431
  80.2814789  46.0381088  85.5033035  81.6968002  45.9515839  86.0327911
  28.8245888  26.9744492  11.1909266  28.3016396  26.5390797  11.8641338
  28.9455395  26.3087635  10.5138254   3.5937569  30.1954193  39.9307251
   4.4989371  30.3660622  40.1910362   3.1225212  30.9951534  40.1643791
  62.2069931   7.0982866  28.3307362  62.0372963   6.1949759  28.0634060
  62.3555641   7.5671902  27.5095863  67.3280029   8.8887739  54.7020531
  67.3640289   9.0355778  53.7568626  66.3935471   8.8916597  54.9094429
  74.5346451  69.5529327  84.1003799  74.4826279  68.9947891  84.8762665
  75.4720688  69.6287766  83.9223022  37.7901001  26.0830040  89.1490479
  38.7064476  26.3028870  88.9811630  37.3139534  26.8961391  88.9807358
  82.5895691  59.5230331  49.3485718  82.5085297  60.3295364  49.8577042
  81.7061462  59.1545982  49.3412781  76.9303055   0.9393185  16.7568645
  77.6187286   1.2132440  16.1508389  76.1537094   0.8369742  16.2067204
  56.2996101  50.4519272   2.0838020  56.8773232  49.9425240   2.6521258
  55.5645790  50.6959572   2.6463056  70.2189865  35.0145645  88.8360443
  70.2425079  34.1991844  88.3352127  69.2902145  35.1565933  89.0189514
  29.2705441   5.9991407   1.0598177  28.5641041   6.0314531   1.7049000
  30.0703716   6.1041660   1.5750628  60.1988525  54.8105774   7.1417665
  60.5498619  55.4245796   7.7867665  60.6078186  55.0705376   6.3162971
  46.0056190  58.6308861  51.8228493  46.6200790  59.0373955  52.4339333
  45.5998116  59.3674889  51.3657227  17.2624016  58.1323547  73.5532532
  16.9896297  57.2301025  73.7198868  18.1984921  58.1403427  73.7530136
  73.8049316  66.6054611  34.9910316  73.4620895  65.8492355  35.4672775
  73.4411469  67.3625870  35.4499969   2.7725785  31.7686157  70.9581680
   3.3057580  32.0825729  71.6884995   2.4272902  32.5646973  70.5541153
  81.3273468   9.4799490  76.4328461  82.1687317   9.8333826  76.7216187
  81.4889297   9.1764956  75.5395203  76.8083954  30.3180199  86.1023178
  77.3536224  30.4351158  85.3243484  76.6094360  29.3818340  86.1166687
  62.8938637   4.8960752  70.1330948  63.2651558   4.0187383  70.0400620
  62.2783699   4.9742045  69.4041977  37.6645203  45.1506577  76.0287552
  38.3729782  45.1154938  76.6714706  38.0820007  45.4715958  75.2294235
  68.4847946  10.3078337  16.6583481  68.1576080   9.7868748  17.3916836
  68.1489334  11.1891212  16.8219337  81.2688599  24.3484612  57.7033157
  81.3057327  25.1761360  58.1827202  81.8342590  24.4864578  56.9433708
   0.1287688  10.5750055  78.7484818   0.7153512   9.8224411  78.8246460
  -0.0815069  10.6213617  77.8158188   5.5542016  59.9135704  20.9233036
   5.0237865  60.6740646  21.1610832   6.4316092  60.2686310  20.7807617
  75.3867493  35.4797134  19.7746658  74.5633087  35.7753220  19.3863449
  75.8447647  36.2870598  20.0084209  31.3073483  20.4452095  11.4428177
  31.9851856  19.8298302  11.7222385  30.9842396  20.8314762  12.2568388
  28.1881542  36.5543938  14.9386148  27.3450089  36.3881340  14.5170746
  28.1939926  37.4981117  15.0985909  60.1460800   6.8869739  73.1857758
  60.9796791   7.3263645  73.0176086  59.9554367   6.4163332  72.3743744
  84.0312424  66.8248444  36.8381920  83.8760681  66.2829056  37.6117859
  83.8524399  66.2437439  36.0988770  25.9696960   0.6161731  22.3042126
  26.8752022   0.7504956  22.5839405  25.9777431   0.8079960  21.3664646
  53.0207100  47.4346848  53.4182625  52.6761055  47.8451805  52.6251831
  53.9000626  47.1449661  53.1752892  78.5704956  36.4888077  69.5107956
  79.1172638  36.8348694  68.8054504  77.7977142  36.1406860  69.0659943
  71.9055023  10.0640020  62.0095406  71.7483215  10.8440256  61.4774818
  71.9079056  10.3855410  62.9111176  27.1142006  16.5823784  10.7981472
  26.6318798  16.3744087  11.5983648  27.9539623  16.9230366  11.1063395
  13.9666376  44.8435974  70.3494415  14.7120838  44.2432747  70.3370514
  13.3342772  44.4281616  70.9357605   6.5288687  65.6650009   2.0802815
   6.7409854  64.7328873   2.1293375   7.3655291  66.1086807   2.2194891
  76.4926834  51.2645950  26.4360485  76.0955124  51.4959183  27.2756767
  76.6641464  52.1056366  26.0123978  17.0575542  20.8421593  85.5415039
  17.9405479  20.9666805  85.1935806  17.1884041  20.6866703  86.4768829
  44.8480225  70.8378067  26.7514515  43.9129982  70.8175125  26.9552917
  45.0995712  69.9163742  26.6888504   5.2255125  57.5584946  72.0133743
   4.8330359  57.1007042  71.2699890   5.5393329  58.3852310  71.6469727
   6.8346043  22.5460739  87.6755981   6.7734823  23.4525471  87.9769287
   6.2278385  22.4978237  86.9368515  44.5645981  41.8250198   5.5964956
  43.9158325  41.2341461   5.9788623  44.0858841  42.2982635   4.9159775
  18.2895737  71.4628754  24.5450897  18.2152195  71.4418869  23.5910130
  19.2276974  71.5571823  24.7101994  46.2488823  46.3768501  70.8526993
  45.5753632  45.9961472  70.2890778  46.7484093  46.9525490  70.2736740
  24.0855675  23.5403709   8.6714964  24.6999779  24.1836872   9.0248737
  24.1175137  22.8124790   9.2922897   6.8009048  31.3759403  70.7269821
   7.0790963  31.2447681  71.6334229   6.9986763  30.5458889  70.2932358
  58.9859238  22.4946003  26.7114620  59.8437538  22.7697716  26.3879814
  58.3635864  22.8675461  26.0870895  75.6740189  51.9703369  43.6738930
  75.3274460  52.0017166  42.7821884  76.6242065  51.9460449  43.5608406
  10.6485367  58.1080475  40.9962196  10.6082096  58.0502090  41.9508171
  11.5124092  58.4783287  40.8149834  23.1637745  23.5763512  32.0716286
  22.8948822  24.0983219  31.3156700  23.7512035  22.9136314  31.7083626
  77.3434372  38.8944092  66.4323196  77.9036102  39.6316986  66.1897583
  76.4564972  39.2542458  66.4229279  77.7598877  29.8359795  71.6785583
  77.8766251  29.9065933  70.7311325  78.6358719  29.9742451  72.0387878
  10.7846098  28.0469189  74.0546112   9.9773769  28.5519390  74.1523819
  10.8426142  27.8673496  73.1161957  86.2504425  47.8886681  53.6147041
  86.1324463  48.7628517  53.2430687  87.1928482  47.8182945  53.7668533
  13.5610361  56.4040146  33.9283257  13.4284849  56.0073051  34.7893028
  13.9328690  57.2657661  34.1163597   6.5906186   2.3278239  48.7126007
   6.8249292   2.9618177  49.3903770   6.2094116   2.8565099  48.0115967
  41.2597923  41.1668396  72.9254532  42.1886826  41.0569611  72.7221756
  40.8036385  40.7677269  72.1846008   8.0797567  27.7767353  25.8402901
   8.2878428  27.4215126  26.7044373   7.2859721  27.3121510  25.5751534
  49.1338654  24.6904049  32.0179977  49.7979050  24.9163437  31.3666668
  49.6324501  24.3448963  32.7584496  60.1961098  33.9823074  48.9916306
  59.6996384  34.4035988  49.6932449  59.5311852  33.7017403  48.3628273
   6.9460478  17.0719700  40.6926765   7.4981666  16.3186455  40.4831543
   6.2092614  16.7012138  41.1783905  60.8509827  23.7627754  54.0771675
  60.9507408  24.5241032  54.6487083  61.6310043  23.7758121  53.5225258
  65.4289398  53.0129585   2.8837616  64.7586899  52.3312912   2.9320097
  65.5234833  53.1900826   1.9478551  58.3695831  46.8514214  50.1703644
  58.2046204  47.6130600  50.7261734  58.3554611  47.1983109  49.2783432
  18.1153469  39.9010315  68.8055954  18.9361782  39.4086494  68.8105469
  18.2652512  40.6102524  68.1804810  66.5822144  40.0365257  53.8093605
  65.9161072  39.5585976  54.3034363  66.2397156  40.0702095  52.9161682
  46.6631126  53.4766693  75.3589172  47.3246346  54.1654358  75.2939224
  46.5674133  53.1512604  74.4638290  13.4645662  58.2248268  36.6869545
  14.3685856  57.9102402  36.6910362  13.2087822  58.2305183  37.6093292
  10.3531761  30.4830132   0.2848379  10.4079132  30.3616886   1.2327387
  10.7294006  31.3498402   0.1321985  35.3165398  51.8245926  53.3535423
  35.4237671  50.9281120  53.0356560  36.1731148  52.2302704  53.2196274
  45.3862724  17.6206570  69.3618164  45.9310913  17.2556190  68.6645660
  44.6864700  16.9783764  69.4800644   0.1018676  41.7292671  87.4733810
   0.7769493  42.3978729  87.3573380   0.5663384  40.9832535  87.8528061
  35.2015991  12.7738323  16.5723591  35.1943474  13.7215347  16.4380474
  34.8509941  12.4137802  15.7576990  75.9458008  44.9155350  32.9161911
  76.7886505  44.8803596  33.3685226  75.3181610  44.5722389  33.5521545
  80.5508881  14.5997305   9.4298172  79.6056519  14.7352390   9.3634892
  80.6413422  13.7392483   9.8392324   7.9731545  56.4532471  13.7896795
   8.4356041  57.0199966  13.1722908   7.0562601  56.7184982  13.7177219
  12.0595417   0.4130254  75.7014999  12.0490761   1.0282187  76.4347534
  12.5810032   0.8509971  75.0288239  73.5135956  28.3024921  83.6521835
  72.9844666  28.7269001  84.3275604  73.4870834  28.9080963  82.9113922
   0.5625862  55.1428947  19.3625317   1.5178431  55.2037659  19.3657532
   0.3816009  54.2105179  19.4815006  34.8181992  17.8212795  86.2938843
  33.9179726  17.6708965  86.0054321  34.7579727  17.8770218  87.2475662
  67.0737534  21.1483250   5.2884383  66.7351074  20.4283562   5.8206029
  66.4233093  21.8439331   5.3848190   9.2943068  67.8605423  81.3260651
   9.7264910  68.6942062  81.1404572   8.4962339  67.8816986  80.7979889
  79.0663452  24.0587978  80.5770721  79.2294388  23.5633183  79.7744904
  79.1331100  24.9756374  80.3102722  45.8527527  13.8925362   0.1371059
  45.3902626  13.2572432   0.6836762  45.1972580  14.1862898  -0.4955643
  69.7690811  28.3080482  82.3345871  69.0979233  27.7537861  82.7328033
  69.5669937  28.2942448  81.3990631  14.1693392  51.1641846  55.5668831
  14.3472462  50.6054573  56.3234558  14.0648451  50.5533714  54.8373489
  27.5109940  22.2541828  81.1478119  28.2805786  22.7668686  80.9005737
  27.4740982  21.5501575  80.5003357  27.2444820  36.4034119   0.2417907
  26.4721680  35.8958702   0.4911176  27.9788647  35.9291458   0.6316422
  30.2421913  54.0015221  77.3016663  29.4267597  54.3101120  76.9066010
  30.0119362  53.8155251  78.2119522  41.7052269  27.2357025  78.1620483
  42.0544930  27.3790283  77.2824478  42.4665871  27.3110390  78.7372818
  45.9730644  18.5612698  86.8646927  46.5360451  19.2893353  87.1277618
  45.5529022  18.8623676  86.0590668  65.7883759   6.6290689  18.1085415
  65.8302460   5.6842709  18.2563114  65.4132538   6.7180724  17.2324181
   3.7434120  70.8281784   4.5707498   4.2951779  71.5071564   4.1824489
   3.6782386  70.1557083   3.8926890  41.4654846  12.3901739  34.6145630
  41.6296616  11.5772266  34.1366539  42.2590904  12.5285320  35.1315536
  84.4096298  33.5744133  25.1129723  84.3671951  34.5305748  25.0991936
  83.9269180  33.3019714  24.3325939  71.1029739  70.2776642  61.3567390
  70.9237595  69.3695526  61.1129227  70.4822922  70.4634399  62.0613480
  67.9655914  30.8719196  49.4798698  67.0970230  30.4739113  49.4214134
  68.4947815  30.2246380  49.9459267   3.0075903  27.0873241  52.9962387
   2.8907166  28.0372047  53.0135727   3.9538200  26.9637585  52.9213219
  80.8588181   7.0822749  68.3492508  80.3649139   7.0897856  67.5293503
  81.3362579   6.2527952  68.3336639  55.7638092  38.0544930  86.8713455
  55.1590118  38.7343445  87.1684189  55.6077118  37.9901085  85.9291534
  84.0310669  32.5738487  63.5299263  84.8482666  32.1606712  63.8086739
  83.7547760  32.0670929  62.7663231  46.5694618  28.2622604  77.9177780
  47.3317947  28.2240429  77.3401871  46.0466499  28.9878902  77.5766678
  40.7729149  54.0395126  51.6425896  40.7179413  54.9400215  51.9624329
  41.6474228  53.7470894  51.8994141  77.0571976  49.9704323  78.5815887
  76.1878357  50.2830200  78.8320541  77.3340988  49.4201164  79.3141937
  24.6859322  57.0765953   3.6406808  25.3532810  56.6254387   4.1577244
  25.0883179  57.9133835   3.4080722  27.5209732  71.0351181   3.0649984
  28.1613750  71.7316132   2.9200654  27.9787292  70.2328262   2.8139534
  32.0899734   2.4499214  68.2386703  31.9282722   1.8497232  68.9665756
  31.4843578   3.1760063  68.3878708  18.9019032   6.7825651   1.0628610
  19.0190086   7.6907477   0.7840726  18.9999828   6.2709661   0.2598178
  72.2440567  54.7200050  57.7610931  71.6314163  54.0257454  57.5183983
  72.9320450  54.2713089  58.2526016  33.2689934  44.2546425  80.5673599
  32.8916893  45.0468979  80.9497223  33.8843803  43.9389687  81.2290878
  76.9132919  70.3551102   8.8900766  77.3118134  69.5106125   9.1004124
  77.6521606  70.9171677   8.6568489  62.2534981  18.9470577  80.6002350
  61.8866997  18.3379650  79.9593811  62.4095650  18.4112377  81.3779068
   6.4589233   7.2454152  40.8969765   6.6613412   8.0974760  40.5106468
   5.5028830   7.1992440  40.8876572  19.8076744  49.7328835  82.1548538
  19.2820740  50.5169029  82.3138885  19.6103249  49.4917488  81.2497940
  12.5941448  48.5141907  33.4746399  11.7633429  48.4515076  33.0033951
  12.4892530  49.2759056  34.0447426   1.6658403  31.6494198  41.1775665
   0.8928037  31.5461655  41.7325325   2.1765931  32.3375778  41.6039467
  63.5971260  26.4994202  20.8883076  64.0687408  25.6785049  20.7472172
  62.6930122  26.2311287  21.0521049  72.0028229  61.7074471  56.1410065
  72.2971344  61.5459290  57.0374031  72.7310104  62.1734505  55.7301369
   9.4854355  22.3080120  86.3135376  10.1360407  22.2096558  87.0087128
   8.6859703  22.5715008  86.7692337  51.8009415  61.6297073  39.5021248
  50.9051323  61.7554665  39.8150826  52.0641098  60.7831230  39.8630486
  80.2475052  35.1221619  31.7423210  79.3902283  34.7722549  31.9849625
  80.3305283  35.9277725  32.2525444  19.6638813  40.6758842  88.4236374
  19.5995674  40.9398575  89.3414688  20.5151310  40.2431145  88.3579636
  64.5436172  51.3248024  17.5299625  64.0622482  50.9195518  16.8086510
  65.3904877  50.8786812  17.5332870  40.8348045  70.5072250  74.7258682
  40.4885750  71.0955887  74.0549088  41.4737968  71.0371017  75.2024765
  58.6776581  39.3702393  86.6044540  59.2219391  38.8503647  86.0130844
  57.9263611  38.8084221  86.7945557  18.6621094  61.6659851  66.5565109
  18.0417137  61.0936127  67.0078735  19.3294983  61.0721054  66.2128067
  32.3762627  63.6468849  11.8540859  31.8211670  63.7965050  11.0887651
  33.2029419  64.0785446  11.6384382  40.3679810   1.5356421  14.4891958
  39.5934486   2.0732279  14.6545219  40.6521072   1.2513697  15.3579264
   9.3640041  53.7425957  80.6440353   9.1705341  53.3484955  79.7934494
  10.0135298  53.1590347  81.0362091  18.5243664   2.8143950   7.1873798
  18.4168282   3.3199098   6.3816986  17.7739048   2.2203443   7.1993728
  52.5668106  63.8389778   4.9241233  53.4185638  63.4130936   5.0209255
  52.5882034  64.5624619   5.5504999  66.2987976  38.3105583  21.9398956
  67.1955338  38.3850212  21.6134739  65.8188705  39.0000381  21.4810753
   0.2735372  38.1823387  46.9554253   1.2202513  38.0528831  47.0120392
  -0.0496569  37.9730072  47.8317566  85.7803421  37.5787354  27.1929207
  85.7902908  37.0316162  26.4075603  86.6321869  37.4261360  27.6019459
   7.7211437   0.8212891  67.5305786   7.0121150   1.4640797  67.5124207
   7.5871367   0.3398715  68.3469772  70.2747803  37.0432129  77.6319733
  69.6017532  36.9079056  76.9649200  70.6451797  37.9018974  77.4277725
  53.3190460  28.0868759  29.4466000  52.7752838  28.3646641  30.1837482
  52.7185707  28.0632572  28.7015476  77.0348511  32.9425659  20.0088272
  77.5355301  32.9189873  19.1933537  76.2841873  33.5032310  19.8128719
  22.7503624  37.8612518   4.5666804  23.4118919  37.9542274   5.2522216
  22.1926003  38.6328087   4.6658401  82.0409775   9.5576506  20.6691589
  82.2083893  10.3796568  20.2081718  81.6878815   9.8263149  21.5173187
  19.7771759  19.9467316  79.9212112  18.9477806  19.5423203  80.1757431
  20.4071541  19.2261009  79.9283142  30.0430965  55.8361931  84.5650558
  30.2568474  56.0165215  83.6496124  29.0931969  55.9432030  84.6147766
  17.9048767   6.6426306  48.7443581  17.4807854   7.3717628  48.2918701
  17.1852341   6.0595369  48.9859161  48.0182991  30.8604832   5.7301507
  48.6097679  31.0753365   6.4514232  47.1883354  31.2725353   5.9701533
   7.1393280  62.1092796  30.2633038   7.9033194  62.3026199  30.8065987
   6.5075102  62.7927971  30.4865570  49.9473457   8.7035694  69.1419373
  50.6011086   8.0187063  69.0012741  50.3338814   9.2701702  69.8096085
  79.8187866  67.5885544   3.2422938  79.7299652  67.6896057   4.1899910
  79.9334106  68.4810715   2.9159517  14.5798120  20.7105484  86.8758087
  13.7944860  21.0839214  86.4757004  15.2270670  20.7022762  86.1706696
  61.5079231  25.1589718  39.3476295  61.7757568  25.3986073  40.2348022
  61.3689499  25.9962330  38.9050140  84.2086716  21.1264553  67.1652069
  84.8927231  20.4716320  67.0255203  83.4462814  20.6202698  67.4458618
  31.8902912  37.1841469   9.9998055  31.4978886  36.7608070  10.7633724
  32.8237915  37.2322273  10.2059479  12.6140823  22.6084328  68.9273071
  12.4332752  22.0408840  69.6765900  12.6787491  23.4867706  69.3022385
  65.3226395  29.3247890  22.6980228  65.5472107  28.3985901  22.6088409
  66.1012573  29.7904873  22.3928776  51.5721741  29.0032616  31.2637367
  51.4575386  28.6574669  32.1489029  50.7130623  28.9021091  30.8539543
   2.0796504   3.0229716  76.8987198   2.4716454   3.8917515  76.9869995
   2.1428263   2.6415987  77.7743835  59.0616188  69.5777817  18.0408268
  58.3540649  69.4764328  17.4041729  58.6559067  70.0315018  18.7795925
  38.3403091   8.2819653  72.3022766  38.5986824   8.3604984  71.3839569
  38.2239952   7.3417182  72.4387970  36.2291565  67.5551300  83.2494202
  36.7394524  68.3398972  83.4493484  36.1268311  67.1146011  84.0930405
  79.3907471  37.1983643  47.2061882  80.0024490  37.6389389  47.7960548
  79.8919754  36.4681702  46.8431206  86.3310165  45.7355537  26.3976440
  86.3088837  45.2038116  27.1932526  86.9799042  46.4147987  26.5815105
  43.7512894  57.5572205  86.1432266  44.5629654  57.0667839  86.2731857
  43.7146797  58.1607323  86.8852921  56.7392159  68.4584427  56.8065262
  56.4072990  68.8136673  55.9819832  57.6560936  68.7320251  56.8333473
  31.9373436  21.7400036  15.8591995  31.3301449  21.8214149  15.1237326
  32.6430283  22.3540611  15.6562824  62.3641624  22.0893059  77.5074692
  62.2435532  23.0385323  77.4819336  63.2182350  21.9453373  77.0999603
  76.5950623   5.1166148  81.1259460  76.8580856   5.8881373  81.6277466
  77.2278519   5.0698671  80.4092712  45.9125023  14.8793144  62.0064926
  45.1669998  14.2899723  62.1211128  46.5659904  14.3522615  61.5467148
  75.0605164  65.0964661  25.9046059  75.5534973  65.7872009  26.3474293
  75.3647919  64.2858124  26.3126278  10.9884319  65.5473709  45.1691704
  11.4736128  66.3722000  45.1910400  11.1988592  65.1682663  44.3158035
  10.1224089  62.3471489  27.2494164  10.7727671  62.9793167  27.5554104
  10.3181229  62.2333221  26.3193779  27.5767899  66.1789474  38.6644363
  28.4887104  65.9956818  38.8903656  27.4406948  65.7264633  37.8319893
  67.6942520  14.8183861  45.3624344  68.3037109  15.5458107  45.2373810
  66.9615479  15.0168695  44.7793579  56.4373436  36.7816162  31.2433701
  55.5992317  37.1179047  30.9260197  56.2052956  36.2181892  31.9815674
  32.9819221  56.5505829  42.2877922  32.8424835  57.3540077  42.7890930
  33.3827705  56.8450775  41.4699745   7.3983731  16.5966740  62.9253044
   7.0182900  17.4105034  62.5944710   6.6492481  16.0121822  63.0411148
  19.5559959  31.2257233   1.9126768  18.9964275  31.1675034   2.6870971
  19.0328007  30.8406925   1.2096475  80.4984970  49.3496552  29.7709637
  80.2177124  48.8397903  29.0110741  79.8152161  49.2013130  30.4246788
  74.3864670  39.1792526  25.0984116  74.4746475  39.4160461  26.0216579
  73.4711380  38.9152260  25.0052280  81.7949982  12.3450384  59.8737831
  82.3158493  11.8724098  59.2245026  80.9042740  12.0166025  59.7514191
  64.5972824   8.3569107  55.0867577  64.5390778   9.3018007  55.2282715
  63.7804031   8.0102215  55.4455681  16.4236126  48.5064201  69.7911377
  16.3544712  49.0992889  69.0428314  16.9144268  49.0032082  70.4457626
  53.6470718  46.7745934  41.1950760  53.9952736  46.0256500  40.7112656
  54.2397766  46.8750916  41.9399452  67.9027557  25.6764545  53.2928696
  68.1052322  25.7309475  52.3589172  66.9608078  25.5091877  53.3243713
   1.1373234  14.8355818  75.1084442   0.3963166  15.4409590  75.0827637
   1.6139805  15.0740490  75.9035263  62.2247086   2.9537940  48.7364006
  62.5555077   3.5312068  48.0483589  62.9912148   2.7610073  49.2763405
  78.5349503  55.7307777  -0.2707510  79.3228683  55.1872711  -0.2750751
  78.3233795  55.8385086   0.6565378  80.7563248  40.5508766  40.6695137
  80.8683395  39.8627739  40.0136185  80.2882919  40.1239052  41.3870621
  76.5523529  13.9093504  60.3047409  76.9521408  13.5371847  59.5186768
  77.2937012  14.2011671  60.8352814  62.1373825  10.5093575  50.0594482
  62.7423973  10.4482679  50.7986717  61.7035751  11.3548574  50.1742287
  80.5505600  62.8296242  78.9972763  80.8648987  62.0304794  79.4201050
  81.1308670  62.9468002  78.2451172  69.8769073  39.8299599  17.7987862
  70.4139328  40.6217194  17.7678833  69.9488220  39.5269547  18.7039108
  44.8209763  50.5345917  72.1989441  44.8835640  49.7424507  72.7326355
  44.0348053  50.9772758  72.5186234  65.3787231  57.3864784  38.9027061
  65.6109848  57.4415321  37.9757500  64.4755478  57.7010269  38.9424057
  42.3489685  15.5591936  84.3808441  42.1511383  14.7344904  83.9370422
  41.5208359  15.8184252  84.7848587  25.0623150  68.1816101  86.0819550
  25.7858677  68.3487930  86.6859055  25.4837627  67.8488693  85.2895508
   1.6964608   5.8289490  47.6083183   2.3763270   6.2516789  47.0836143
   1.5186211   5.0064373  47.1521606  66.2810898  37.5628128   8.3497114
  66.1289215  38.4044762   7.9199715  67.0067215  37.1727638   7.8623180
  30.5106506  60.9657478  30.6618652  30.5076370  61.7382278  30.0966244
  30.2529278  60.2462540  30.0855503  21.3099842  67.3757935  33.1435280
  21.4392605  68.1960373  33.6196709  20.3766003  67.3664551  32.9315376
  63.2246513  60.1279182  56.3111229  63.5590744  60.3306770  55.4374619
  62.5712357  59.4439316  56.1646805  67.3124237  51.3033028   3.1917255
  68.1010666  51.7259560   3.5317814  66.5959167  51.8734550   3.4706039
  84.2299805  68.7668991  64.3510666  84.4490814  67.9914856  63.8343735
  85.0488739  69.0038910  64.7863617  25.8523941   9.6643028   4.8281865
  25.8573303   9.9736509   3.9223657  24.9504318   9.3820763   4.9799838
  31.5582943  30.1277866  42.0143814  32.1777687  30.7558937  41.6429443
  31.7385387  29.3104095  41.5500107  76.1293716  42.0536156  49.4548569
  75.8437958  42.9662781  49.4133415  76.8947754  42.0680504  50.0294685
  70.6779709  22.0586414  59.1645126  70.1862411  22.1810513  59.9765778
  70.5048370  21.1511288  58.9141541  16.2686691   3.8561857  43.7477760
  17.1295547   3.4546192  43.8654671  15.8971949   3.8891032  44.6293373
  13.0791750  44.8062820  39.8598251  12.2933693  45.3239403  40.0352478
  13.7489033  45.4542084  39.6409950  65.8362503  11.1501579  13.8917055
  66.6044083  11.4585876  13.4110470  66.1011429  10.3020687  14.2478065
  46.2310028  56.9603157  76.2028885  45.9385796  56.4195023  75.4692383
  45.8002701  57.8039589  76.0651703  10.9395809  -0.1858739  43.0735016
  10.2588625   0.0061810  42.4285469  11.7100563   0.2850839  42.7560158
  32.5096130   0.2947255   1.7947879  33.1768036   0.7114173   2.3401830
  32.2478180  -0.4824421   2.2884552  20.6220341  69.0395889  68.9968491
  21.0250187  69.8352432  68.6493454  21.3601055  68.4600296  69.1855164
  77.2629929  45.4382095  28.7441654  76.6869278  46.1873360  28.5918827
  76.7205276  44.8126450  29.2244072  10.7767372  51.7829819  81.7985611
  10.4830647  51.0912018  81.2057495  11.6789713  51.5467644  82.0139923
  46.3044472  15.8505669   2.1720917  47.2594337  15.7912235   2.1453872
  46.0034370  15.1008101   1.6587803  52.6878586  47.1760483  77.0611343
  53.3318596  46.9901390  77.7444611  52.5682144  46.3398666  76.6108932
   5.4978805  40.1505318  64.6920776   5.5806146  40.9606743  65.1951218
   6.0188184  40.3038101  63.9038086   2.5327125  13.1364536  38.3714828
   2.5596888  12.3136921  37.8830490   3.3743420  13.1728849  38.8259735
  37.8049583  43.8402672  86.5926132  38.3085747  44.4149055  86.0160751
  38.1846275  42.9721642  86.4566727  44.3457413  69.3781204   7.3333073
  43.9304237  68.9412994   8.0768957  44.3223572  70.3082047   7.5583148
   2.2919586  56.1956139  27.6497192   2.6193244  56.7755775  26.9621830
   3.0735435  55.7559166  27.9844151  32.1458778  24.5675449   6.5100989
  31.9237480  23.6853352   6.2124472  32.4857101  25.0051918   5.7295804
  85.0479965   9.4521255  30.0759907  84.8906784   9.5162573  31.0179939
  85.9464569   9.1297779  30.0046120  51.7400627  46.8273315   4.7939415
  52.0158501  47.1021309   5.6683898  50.9816093  46.2640762   4.9479728
  54.3800545  41.7316322  62.0849113  54.4790916  42.6836624  62.0925789
  53.9062386  41.5466423  61.2740402  34.7545586  27.6341515   7.2902312
  35.0583496  28.4460297   7.6961832  33.9142075  27.4552364   7.7121725
  69.2167892  54.0078583  22.1595058  69.4372253  53.8739548  23.0813026
  69.0638885  53.1263161  21.8193035  10.8772936  30.5314903  82.3468399
  10.9012384  30.6736946  83.2931137  11.6502247  30.9892025  82.0162201
  16.3304329  66.9953842  18.1627064  16.4266357  66.0776520  17.9082623
  16.6211681  67.4883881  17.3954716  38.4627266  50.1834373  42.9801521
  39.0160789  49.9414902  42.2375259  38.5726204  49.4661903  43.6044235
  62.8668556  26.7498665  88.4864731  61.9462318  26.9823666  88.6074219
  63.0941963  27.1099377  87.6292114  64.3708267  56.3657799   4.6622081
  64.2934799  57.2589149   4.3267059  65.2689743  56.1085968   4.4538484
  70.9630356  61.0278778  33.7506905  70.5546875  60.9539680  32.8881187
  71.5771790  61.7568588  33.6632767  49.7947235  50.3633385  26.7580070
  48.8600845  50.2041130  26.8896351  49.9509315  50.1298218  25.8429661
  24.3286381  13.8201933  47.4541016  24.7749672  14.3764782  46.8156891
  23.6674633  13.3527346  46.9436493  27.1496162  62.4058380  60.3032913
  27.8809299  63.0200768  60.3675117  26.4907455  62.8709526  59.7877426
  40.7932701  56.7738800  34.6324158  41.0445595  56.0991058  34.0017319
  39.9476471  56.4811401  34.9722061  78.9897461   2.5424156  61.8293190
  79.6707077   2.0716903  62.3098793  79.2529221   3.4613578  61.8794556
  25.7829819  34.2111893  76.6200409  24.8522243  34.4069061  76.5122604
  26.1698723  35.0381165  76.9076843  10.8174229  21.1679497  21.9723053
  10.9619503  20.3610497  22.4665279   9.9303293  21.0796814  21.6237297
  44.7576027   4.6484346   3.9885442  43.9757195   4.9974132   3.5606408
  45.1577072   4.0805044   3.3300571  23.5990887  35.8111191   8.7246914
  23.4965439  36.7531281   8.8600807  24.3260403  35.7357178   8.1065588
  54.6745529  19.6674652  48.8401375  54.4774284  18.7430573  48.9912720
  53.9205780  19.9962120  48.3505630  65.1889343   4.9643588   4.2951384
  66.0794220   4.6304603   4.1866174  64.9933319   4.8280249   5.2221689
  70.0590668  57.1370697  83.7805481  70.2278214  56.3276863  83.2982025
  69.1063004  57.2283592  83.7693329  35.4776535  48.1770401  65.6325836
  34.6933212  47.9367828  66.1258698  35.9853287  48.7172241  66.2381439
  61.1213074  25.5745926  21.4494267  61.2353821  24.6753540  21.1418724
  60.3419189  25.5409660  22.0040913  50.0388374  10.3865967  32.1718712
  50.0520477   9.5419359  32.6219864  50.9612045  10.5890675  32.0154114
  52.5831528  59.3694382  41.0436325  52.3996964  58.4861069  41.3634758
  53.4363480  59.2968750  40.6158180   2.0923233  39.5772095  20.6185131
   1.6652803  40.2088890  21.1971703   2.2747247  38.8235168  21.1796818
  11.9640865  57.7742157  61.3351936  11.3372250  57.2840233  61.8671608
  12.0708494  58.6060677  61.7965546  10.4950047  33.6256371   8.6022348
  10.4154310  33.4356842   7.6674533  11.4297733  33.7822227   8.7360992
  45.1534233  13.7780399  81.8993454  45.2439651  13.5515633  80.9737473
  44.5320053  13.1363287  82.2432632  35.5344772  13.4313307  35.8158951
  36.4038277  13.0684652  35.9855576  35.6713943  14.3782864  35.7883377
  85.8917847  56.7449646  83.5219803  86.2884598  57.2781944  84.2108536
  85.1770782  57.2841797  83.1833420  64.6005936  24.1437244  77.0422592
  64.9074631  23.9165211  76.1645126  65.0290756  23.5097675  77.6173477
  57.2252960  47.3495026  17.9480610  56.9802132  47.5014763  18.8607864
  57.9125824  46.6847267  17.9921188  79.3682938  62.6296883  14.0411158
  78.9910431  61.7622948  13.8943624  78.7729492  63.0476646  14.6632872
  21.9119549  42.6151581   1.9961849  22.6667786  42.4111671   2.5483265
  22.2619419  42.6227188   1.1052955  75.7554321  33.7180786  16.3634815
  75.3121796  34.1566925  17.0896873  75.0656509  33.5690575  15.7167711
  18.3091373  25.2515087  18.9909401  18.2541943  24.5662880  18.3248425
  18.0702858  24.8119469  19.8070087  47.5120621  26.0873718  72.5319290
  48.3541527  25.6376209  72.4623871  47.4599533  26.6220589  71.7397003
  35.4322357   9.5898161  11.5926266  35.7911606   8.7026310  11.5750103
  34.7702332   9.5666857  12.2836018  61.4852600  43.9181519  50.2576370
  61.1298027  43.0309410  50.3100128  60.9078484  44.4407501  50.8141594
  20.4409847  44.6651611  70.1963425  19.8361626  44.0766029  69.7446594
  20.0315151  45.5276833  70.1283188  42.5082321  63.5123901  22.5971203
  43.1586914  63.7230186  23.2670212  41.7323914  63.2478294  23.0913963
  62.6135139  35.0357208  70.2133942  62.5629921  34.7874641  69.2903290
  61.7298584  35.3330269  70.4301758  69.9781265  39.4257164   9.4015751
  70.1375427  40.3691635   9.3745985  70.0442886  39.1980515  10.3289499
   6.7958570  65.6393356  32.9388313   6.6966596  64.6883087  32.8948364
   6.1287851  65.9210205  33.5648537  17.4051018  25.2212105   8.9369926
  17.0514088  25.8060951   9.6070986  16.7828007  24.4948254   8.9004107
  41.0199585  48.8708115  36.2377396  41.2825241  48.6318474  37.1266632
  41.7813530  48.6585579  35.6978722  76.3889160  64.2154846  59.2989502
  75.4500809  64.2204514  59.4854851  76.4445267  64.3034592  58.3474236
   2.7678332  32.0826378  14.2946100   3.1039784  32.0356445  15.1896133
   3.5497766  32.0540123  13.7432690  77.6798859  28.9958057  66.4966202
  78.2272110  29.0870247  65.7166595  77.3393097  28.1026154  66.4471054
  84.7817001   5.6537199   0.5767905  84.1797867   4.9598908   0.3074583
  84.7999039   5.5974941   1.5321642  46.8760262  47.2874718  45.3959808
  47.8270493  47.3804398  45.4520340  46.5854378  47.2447357  46.3070030
  76.0040359  53.2701721  14.4910841  75.8892593  53.9384689  13.8154850
  76.1596069  53.7662926  15.2947588  55.3563538  31.5032291  11.1887140
  54.7953873  31.9818592  11.7990093  56.2071915  31.4644737  11.6255207
  41.4433784  16.2792530  73.6512070  41.1138496  15.4579811  73.2863007
  40.9047661  16.4293251  74.4281311  66.0505066  24.0935287  38.6261101
  66.2823715  25.0185661  38.5438080  66.0441589  23.7672215  37.7262688
  65.6482086  23.4182510  79.8943863  65.3098755  24.3062725  80.0091705
  66.5018692  23.4293785  80.3272476  75.7002869  70.8216934  34.6600227
  76.0564499  69.9497833  34.8307724  75.5812225  71.2060852  35.5285263
   0.4893650  29.9410343  21.7497578   0.0050430  30.6167145  22.2242279
  -0.1797464  29.3125820  21.4785213  38.7035217  36.9266930  61.7013321
  38.0765724  36.7521095  62.4032516  38.7707558  36.0971794  61.2284470
  14.7320547  62.0932007   7.5830712  14.2982302  61.7470207   8.3629360
  14.8336315  61.3342438   7.0087032  34.7433624  11.6596088   9.6701736
  34.9610443  10.9182301  10.2351551  35.0883064  11.4155893   8.8112793
  62.8025360   6.9570999  18.7041645  62.2046623   7.5513144  18.2506351
  63.6196480   7.4500999  18.7784271  73.3439484  63.9921951  36.2114563
  72.4573059  63.9206009  36.5649643  73.8852768  63.4874191  36.8184128
  67.7819595  40.3043022  74.0278015  68.7263336  40.4113731  74.1415024
  67.6778793  40.0567436  73.1090469  10.6860533  68.1065826  10.7555981
   9.8876219  68.6288834  10.8326454  11.1118097  68.1926575  11.6085663
  75.6816940  10.4451857  30.5482445  74.9484253   9.9616499  30.9287071
  76.4604568  10.0297890  30.9186420   2.9692891  62.5614166  69.8226852
   3.2237666  63.4825630  69.7682648   2.0273781  62.5626793  69.6522903
  38.7431641  57.3260956  85.0761719  39.3343277  56.6188354  84.8182220
  38.9586372  57.4958801  85.9932251   8.6875362  69.1826401  35.4951935
   9.2990351  68.4556808  35.6127777   9.2465963  69.9557343  35.4176712
  32.6596642  12.6372776  78.4088974  32.6672478  11.8213272  78.9093018
  33.5228310  12.6735182  77.9967575  73.6898651  45.7496262  52.9304581
  74.5133133  45.5755882  52.4745255  73.9175491  45.7106857  53.8593712
  59.8766937  56.6745148  38.2742653  60.4342918  56.1416473  37.7073784
  59.0146942  56.6443138  37.8591995  69.3891296  28.0982018  19.0921917
  69.7646408  27.9987431  19.9670219  68.5211411  28.4716148  19.2451572
  58.9730873   8.2279663  75.3184586  59.5042229   8.0367718  74.5454254
  58.0692291   8.1440973  75.0147476  69.3033371   5.8688159  26.8720322
  69.3808136   5.0145850  27.2969074  69.5300674   5.7026620  25.9570351
  60.1651115   7.1014895   2.0799959  60.6705437   7.7915902   1.6504275
  60.8230324   6.4747958   2.3810334   4.0630832  49.3368607  41.6197395
   4.7099409  49.8790703  42.0712013   3.8387694  49.8357048  40.8342018
  22.9823360  52.6055565  52.2322731  22.1880226  52.8997383  51.7864532
  23.1699371  53.2961578  52.8679695  51.4085770  28.4617653  27.3094273
  51.1980095  28.0952415  26.4506187  50.5631027  28.7300758  27.6691685
  73.2327423  19.3394299  28.0500317  72.9196930  18.4818802  27.7622089
  72.5122833  19.6951714  28.5702477   3.4167588   2.9010332  35.2583504
   3.7585163   3.7917633  35.1806717   4.1772628   2.3389444  35.1102867
   5.1949878  38.0430717  86.2224655   5.4555135  38.6256180  85.5090256
   5.5964332  37.2021027  86.0037308  36.7026825   5.5704379   3.3979917
  36.3863106   4.9787364   2.7153289  36.5709953   6.4465089   3.0355146
  60.5981903  54.6783333  14.0917978  59.8001442  55.0397873  14.4774160
  60.8231239  53.9386292  14.6561346  69.8472137  26.1122398  21.7448158
  70.3425446  25.9206657  22.5411701  69.8140335  25.2778873  21.2768536
  47.2377281  45.3482246  54.5434990  47.2505150  44.7005615  53.8387985
  46.6553917  46.0377197  54.2245712  26.7890053  43.1935692  57.9645882
  26.6908169  43.1963387  57.0124397  27.4157963  42.4913940  58.1386909
  81.1548615   4.6150050  35.5265083  80.5543289   5.3134971  35.2663155
  81.1355057   4.6266065  36.4834442  84.4859085  50.2519646   9.6298819
  83.5774002  50.5511894   9.5936050  84.8362122  50.6462288  10.4286766
   6.7330241  22.2724209  50.4480400   7.1649575  22.8937454  51.0342331
   6.0370393  22.7804852  50.0312576  71.6806259  31.6967030   2.5227635
  72.1810760  32.5126190   2.5304582  72.3447342  31.0087872   2.4785061
  58.9036674  68.9099808  37.2975044  59.8424568  69.0750046  37.3850822
  58.8489494  68.0308609  36.9228287  54.0223427   4.3726783  73.9465179
  54.9149895   4.7180595  73.9352341  53.9500046   3.9233494  74.7885971
  68.0753937  50.8000641  23.3345051  67.8922958  50.8675690  22.3974075
  67.9874878  49.8669891  23.5291157  59.1234474  54.2726173  86.0590363
  59.1672440  54.9301910  86.7532349  58.9005661  54.7697067  85.2719803
  34.3288803  61.5515747  72.9790726  34.4774170  61.3300591  72.0597763
  35.0713730  61.1634102  73.4419556  40.4011574  12.6722708  13.4735947
  40.4394798  12.6637478  12.5171995  39.5530167  12.2809734  13.6828117
  48.6106720  57.6931229  65.3942642  49.0197716  57.8848419  64.5503998
  49.0771446  58.2490959  66.0183945  24.7614861   3.0672078   4.9651103
  24.7892952   3.9267128   4.5447421  23.8282127   2.8723407   5.0503159
  69.3221817  20.5697842  37.1421242  69.8259964  20.4932365  36.3318481
  69.9344101  20.9543915  37.7694054  10.9509964  45.9836540  82.9800034
  11.0282145  45.1831360  83.4990768  11.2780895  46.6748924  83.5557022
  54.4961700   0.9984981  35.4346161  54.6074257   0.8221539  36.3688316
  53.5533066   1.1216532  35.3247414  24.5054760   2.7569153  59.2594719
  24.5523167   3.5885293  58.7878189  24.7017517   2.0944598  58.5970078
  70.3936005  24.9300137  68.1414490  71.3106384  25.0421658  68.3918304
  70.1976013  25.6952667  67.6008911  50.8443146  51.5288620  10.4421654
  51.5654106  50.9323196  10.2412090  51.2700806  52.3667603  10.6235018
  42.7119942  15.7390451  80.2832794  43.2279358  15.0143585  80.6366425
  42.0185089  15.8763475  80.9286118  82.1010284  25.3989525  50.2559395
  81.1961670  25.5750523  49.9981728  82.2006531  25.8422146  51.0984497
  24.9530029  56.2149315  16.8593178  24.6257210  56.0994568  17.7513847
  25.0695705  57.1605606  16.7674942   6.7423630  26.1554298  78.8088531
   6.7909517  27.0331802  79.1875687   7.2980385  26.1992264  78.0306931
  29.8324108  60.5140495  40.2047882  30.7798824  60.6362915  40.2646713
  29.5845184  60.9573860  39.3934708   7.5313592  40.2975082  38.4281235
   6.5967908  40.2901497  38.6349106   7.7764578  39.3728409  38.3942604
  18.0215893  39.8878593  64.6309052  18.8144588  39.9121742  64.0951843
  18.1963196  40.5005531  65.3452606  26.3680687  23.8512001  10.2356968
  26.9252357  23.4717789  10.9152822  26.6726837  24.7548714  10.1531324
  81.6537628  24.1441479  32.3728561  80.7600632  24.3907070  32.6110802
  82.1686935  24.9372482  32.5214043  43.4511223  24.8059349  80.2300186
  43.1955872  25.1274338  81.0946426  42.6224251  24.6677189  79.7713394
   0.4804812  37.2783432  43.3780746   0.0537089  37.7915535  42.6919937
  -0.0391554  37.4495125  44.1635132  18.2238979  71.3008041  21.5405445
  18.1299038  71.8276443  20.7469234  19.0611649  70.8500137  21.4310036
  78.0099030  53.4986267  33.1019249  78.4806366  54.3320236  33.1114655
  78.5288773  52.9239502  33.6646271  64.8834457  24.3906116  45.3811417
  64.9682922  23.5778160  44.8827438  64.7499466  25.0663242  44.7164421
  62.4229126   8.5998440  66.3321228  62.0729713   8.0191956  67.0078583
  61.8304901   9.3516865  66.3320923  68.6764984  65.2526245  23.6865883
  68.2196808  65.6693420  22.9559059  68.9921799  65.9825592  24.2192879
  65.1259003  12.0601387  66.0427322  64.2065430  11.8045349  66.1180801
  65.2081299  12.8280201  66.6082687   5.5679440  35.2516594  85.0443802
   5.9965882  35.7475929  84.3468475   6.0404148  34.4196434  85.0718460
  70.3813705  42.0719109  46.7742424  69.5134964  41.7759438  46.4995918
  70.2079010  42.7861481  47.3874397  34.7592049  38.6255035  61.5671883
  33.9839134  38.9969711  61.1462746  34.5303612  37.7095642  61.7250328
  73.8025513  47.3626099  44.0062218  74.3518829  46.5973434  44.1760216
  74.3339233  48.1065521  44.2898216   6.7940869  41.6093483  12.5744162
   6.0873246  41.0552292  12.9055824   6.8100510  41.4397888  11.6324892
  77.9670715  16.4711285  78.8202591  77.7979050  16.1184254  79.6938782
  78.7565765  17.0021000  78.9250793  59.9712563  32.6877785  28.8676414
  59.9825783  33.2773743  29.6216202  59.2497597  33.0063744  28.3252697
   2.8966885  29.0698681  20.4625721   2.0571363  29.4724541  20.6846275
   3.3360569  29.7194099  19.9136810  54.8853378  11.1146441  73.0355759
  54.5832405  12.0139999  72.9085846  55.4442139  11.1570234  73.8115234
  28.5311489  66.7034378  58.5744514  28.7301025  67.5615005  58.9491234
  28.2267532  66.8942413  57.6872253  80.5432968  20.0712223  68.5282364
  81.3300171  19.6167774  68.2269363  80.5820770  20.0100346  69.4826889
  64.0309067  12.0183887  12.0731754  64.6040192  11.7274342  12.7824879
  63.4946289  12.7072105  12.4658108  12.5502338  54.5578156  26.8553925
  13.4907522  54.7017708  26.7508392  12.2859707  55.1823807  27.5309029
  60.1917343  40.9263077  65.5344162  59.4816322  40.3574066  65.8316345
  60.7163925  41.0844421  66.3192444  35.8502312  55.3425064  72.7321167
  35.5611420  56.2347488  72.5409012  35.0896835  54.9260178  73.1375046
  63.7045670  52.5836220  25.3338985  63.8001938  53.4951324  25.6100082
  64.3632965  52.4705582  24.6486855  27.3139553  61.2539177  86.5883865
  27.1687355  62.0826759  87.0447845  28.2341251  61.0479012  86.7529449
  66.3999023  70.2128983  87.9744797  65.6561508  70.4113464  88.5434113
  67.1127930  70.0014343  88.5772247  22.8394203   3.1765184  80.3462372
  21.9469738   3.5099039  80.2533569  22.7982635   2.5888810  81.1007080
  38.7424736  64.3422546  72.7490692  37.7903023  64.3495712  72.8467789
  38.9346390  63.4992027  72.3384933  67.1664429  37.1911850  48.4073143
  67.6423416  36.6386719  49.0273781  67.8357391  37.4938354  47.7935715
  17.3352356  38.0311050  47.2060661  17.7639256  37.7588882  48.0174561
  17.6585197  38.9185143  47.0504341  58.5096817  61.7949219  23.6297302
  58.2269745  61.9006081  22.7213593  58.6131859  60.8497353  23.7399330
  24.0796852  60.7237282  13.4557714  23.1507854  60.8800812  13.2856779
  24.1729908  59.7717934  13.4190283  51.1191254  69.3731766   4.6359930
  50.5129509  69.9272232   4.1442456  51.0751190  69.7066269   5.5321531
  53.4508018  34.3474083  36.6960793  54.2734413  34.2095795  36.2265053
  53.6621399  35.0009956  37.3627090  80.6888351  67.1078033   0.0883750
  80.0042419  66.8387375  -0.5241356  80.2913055  67.0034027   0.9528426
  83.3911667  63.7180748  48.2336388  82.7534714  63.0050125  48.2669983
  84.0285187  63.4388504  47.5763321  37.4871712   0.4039994  37.9789581
  36.7102585   0.4554469  38.5357246  37.3711510  -0.4045882  37.4800034
  65.4092102  32.2596817  54.6807251  65.7980194  31.6286621  54.0750275
  65.5641174  33.1110954  54.2716713  14.0569992   3.6147189  83.8629227
  13.4315615   3.8869503  84.5344543  13.5820818   2.9675124  83.3415680
  27.1164246   7.4392366  84.7749023  26.8532085   8.2830210  85.1422882
  26.2930565   6.9714656  84.6353073  74.5079269  50.6617317  14.4246492
  75.0690231  51.4288902  14.5380850  73.6330109  50.9673996  14.6640720
  17.5368004  23.9260693  21.3373547  16.6520500  23.6526737  21.0950680
  17.6791248  23.5386715  22.2010078  39.1960144  56.6279068  74.8238525
  39.5444679  56.3447723  75.6692123  39.7115555  57.4026108  74.5996170
  10.5008326  54.2466469  23.9244728  10.3617144  55.1629868  24.1636295
  11.4405985  54.1836548  23.7538738  48.2220268  19.5392323  74.2952271
  47.4712181  19.4850407  73.7039719  48.9269333  19.0897751  73.8290482
   9.9605169  48.1014862  73.2299194  10.8448353  48.4424477  73.3639221
  10.0142708  47.1842308  73.4982224  64.4223175  15.2663670  64.4905701
  64.6260300  15.1893101  65.4226608  65.2582092  15.4880495  64.0802383
  36.7179871   6.9409790  55.8225174  36.3601646   6.0532584  55.8103485
  36.0055466   7.4817314  56.1634674  21.9098091  31.1436939  60.3597298
  21.1635246  31.0719204  60.9548264  21.7855034  31.9847965  59.9200363
  66.7272263  70.8919983  36.3501053  67.5557098  70.4576111  36.5529709
  66.3984909  70.4320679  35.5776863  71.8896103  15.6822205  87.4830627
  72.2300797  16.2060127  86.7578354  71.0576477  15.3369503  87.1592331
  54.7837524  59.0545998  49.0833740  55.5465393  59.2168617  49.6384048
  54.3452682  59.9034386  49.0247688  67.2114944  45.6528816  83.9332581
  67.8395538  46.1852264  83.4450226  66.7299347  45.1726189  83.2597046
  86.1259155  38.2640419  71.7151642  86.2131805  38.9418373  71.0449295
  86.3298264  38.7115746  72.5363617  51.5882568  46.2356567  65.5761948
  52.3482094  46.1662292  64.9983673  51.8054657  46.9521904  66.1725388
   4.4372697  68.4062576  24.0672398   5.2464051  67.8951187  24.0507698
   4.5880518  69.0718460  24.7384224  17.1187210  33.8793297  87.2626724
  17.3937683  33.0671463  86.8373032  16.1775455  33.9302406  87.0958557
   7.0774488  23.2233257  76.9395905   7.0079217  22.9039078  77.8392410
   6.7615280  24.1259480  76.9808121  58.8815269   8.3798418  66.7078018
  58.3192863   8.4477320  67.4794922  59.5964127   7.8054428  66.9821014
  27.5326080  51.7418022  10.9163218  27.0864868  51.3462296  11.6651421
  27.3157063  51.1708298  10.1793156  74.0929108  49.8114433  62.2916679
  74.4635468  50.3413773  62.9973755  73.2337799  50.1997871  62.1263962
   5.8631568   2.5051963  58.5088005   5.0791397   1.9790133  58.3516998
   5.6770730   2.9755411  59.3214378  15.7020588  38.1474533  84.6917877
  15.9963789  38.2209587  83.7839279  15.3892651  37.2461853  84.7699356
   5.1759791  18.3960114  62.3817825   4.6097922  17.8913574  61.7978401
   5.0200286  19.3082161  62.1372566  43.7551498   7.6091852  13.1486521
  44.5948448   7.6568341  12.6916218  43.1013565   7.7491279  12.4636698
  72.9028702  62.8240738  70.9744568  73.0038681  63.5879784  71.5423355
  72.2145081  63.0733681  70.3578186  24.8709946  56.6362648  71.9287338
  24.3678513  56.5494461  71.1190796  25.2629356  57.5078812  71.8748627
  64.2092285  42.7549362  15.7296381  64.4061966  41.8634377  15.4421167
  63.3663368  42.9568710  15.3234606  61.0366364  63.0479088   8.5637779
  60.4485931  63.1115494   7.8111911  61.0330696  63.9257278   8.9454260
  70.0777283  55.2672424   0.5377043  69.4967117  55.7271423   1.1436254
  70.8354187  55.8451309   0.4472645  86.6936264  18.6515942  27.0098553
  86.0754776  18.6595135  26.2790642  86.1983948  18.2772102  27.7384205
  74.6520996  63.1795235  80.1534042  74.2577362  62.3075943  80.1745148
  75.2595520  63.1498146  79.4142532  45.8210983  54.6641617  19.9712677
  46.1721573  55.1745529  19.2415485  44.9727707  55.0660782  20.1584396
  76.1099548   2.9627128  10.9280310  76.0747452   2.1721959  11.4666176
  76.3218994   2.6452377  10.0502377  44.2397346  11.0534840  73.5712509
  43.6901245  11.6432047  74.0873871  43.7647209  10.2224646  73.5707397
  64.5448761  10.7977238  61.7763329  63.8828163  10.4120865  62.3500824
  65.0611954  10.0517330  61.4711342  30.3224525  65.3167725  38.4365654
  30.5516701  64.3874512  38.4441032  30.4053879  65.5913315  39.3497810
  63.8080292  33.5338173  40.5838966  64.3514481  34.3099289  40.7201958
  62.9656715  33.7588539  40.9788933  57.6730156  38.7859230  28.9635773
  58.4367104  38.9581261  29.5143471  57.7331047  37.8535423  28.7555218
  30.9166355  63.6020546  62.9505081  31.6072464  64.0979767  63.3902206
  30.1021538  63.9840393  63.2775230  53.0350609  16.2612495  67.8120956
  53.3028336  15.6139040  68.4643784  52.2253647  15.9085598  67.4429932
  36.0751266  64.1531830  79.9196854  35.7557335  64.1705322  80.8218536
  36.9882164  63.8757706  79.9941559  18.6123238  48.4119911  80.0712280
  18.8067608  48.1472740  79.1721420  17.7595959  48.8431587  80.0148621
  55.6433792  33.8374863  24.8820782  54.8508759  33.3513832  25.1098289
  55.3406410  34.5244141  24.2881794  56.8573456  49.6579514  44.8916130
  57.0625038  48.7261505  44.8148651  56.5722237  49.9134750  44.0143204
  60.1286697  34.9273262  52.4885292  60.7728119  34.5526199  53.0892830
  59.6325874  34.1737366  52.1687813  16.0127506  70.1747513  15.2446527
  15.9712849  70.2805176  14.2942181  15.2090387  70.5831299  15.5663786
  62.1820526  64.9353104  69.1556778  62.2518005  64.6654739  68.2399521
  62.9788399  65.4403305  69.3179092  67.8438187  29.8265076   1.8050660
  68.5943680  29.4520359   2.2662451  67.6007843  30.5923367   2.3253236
   8.5985718  65.4324875  70.0967407   9.3930111  65.3297424  69.5727768
   8.8865442  65.2912674  70.9986038   1.1892833  59.7801819  58.8836937
   1.1736362  59.7374649  57.9275742   0.4831028  59.1965904  59.1611061
  60.3718414  41.3055954  51.0204239  59.6003227  40.7854843  51.2450905
  60.6076736  41.0158768  50.1391296  55.4950447  34.0483475  34.9640656
  55.0739136  34.3253937  34.1503563  56.1673355  34.7108116  35.1234245
  84.8856049  54.8169670  66.6089630  85.7267761  54.7908707  67.0650177
  85.1113739  54.7171593  65.6841354  50.3872719  16.3540344  59.2310410
  49.9325180  16.7678223  58.4974098  50.9426155  15.6889791  58.8241882
  35.7382545  70.7637329  39.7195168  36.1365967  69.9377747  39.4450150
  34.8553734  70.7381134  39.3506012  83.5292969  52.1404381  16.9135036
  83.0473328  51.7099228  17.6196213  83.7573700  52.9996758  17.2683678
  31.9009285  19.4234657   5.3235178  31.0285473  19.3885937   4.9311299
  32.4157219  19.9547043   4.7160597  80.9370117  35.0752525  22.5087128
  80.3418579  35.1832314  23.2505779  80.4139633  35.3180809  21.7447224
  36.0837326  39.5937157   2.7419181  35.7571220  38.6939621   2.7415929
  35.3398857  40.1184311   3.0378826  75.7634964  65.4498138  83.1423111
  76.1198273  64.6023178  82.8758316  74.8218231  65.3726273  82.9889374
   4.9747777  47.8466110  21.0229378   5.6434288  47.9983559  21.6908531
   5.3887835  47.2480316  20.4012184  50.5947990  40.7676353  33.1632423
  50.3417664  41.2974434  33.9192276  50.5194397  41.3629951  32.4175224
  40.6518784   3.8821387  52.1980324  39.9563255   4.5197468  52.0371132
  40.8358841   3.9595709  53.1341820  69.9736023  55.4554100  32.7215881
  70.3766861  54.5929794  32.8214607  69.3563232  55.3489189  31.9978104
  73.5458603  59.0803490   1.7183110  74.3235474  58.5231400   1.6874194
  73.8882446  59.9726143   1.6647112  46.6874542  60.8140450  28.4588051
  47.2354050  61.2417679  27.8007526  45.8102341  60.8125305  28.0757675
  21.0657349   7.9445391  19.1351128  21.6908855   7.6089654  19.7776127
  21.0044804   8.8803740  19.3266678  70.9400024   3.2162237   6.9833426
  71.5492172   3.2234802   7.7216082  70.9943695   4.0998044   6.6192536
  57.9153290  18.9471855  15.1513042  58.2550850  19.8285942  14.9966459
  58.6208687  18.4965458  15.6153822  58.0754051  13.3647814  73.0702896
  58.0627174  13.3630438  72.1131744  57.4603043  14.0555458  73.3167191
  29.9116859  11.4002800  84.3836670  30.2012329  12.2924490  84.1928101
  29.2052612  11.2387877  83.7582779  15.1273613   7.7855496  24.0188198
  15.2150478   8.6874123  24.3273430  14.5042439   7.3846231  24.6248035
  56.0680008  51.4360046  33.5825958  56.1332359  50.5774956  33.1643448
  56.6695175  51.3867989  34.3255577  36.7045593  55.7805862  23.0361652
  36.7401619  56.4369698  23.7319565  37.3266754  56.0936432  22.3795071
  73.6727905  54.7943001  79.9513626  73.3401260  53.9801216  79.5736313
  73.4209366  55.4705544  79.3224869  46.6910324  42.1604156  14.1404057
  46.9946480  42.2342033  13.2356377  46.8065071  41.2352448  14.3570957
  14.6890898   1.0214093  67.5488205  14.4730501   1.2732217  66.6509552
  14.4535522   1.7854531  68.0751190   0.6934435  43.9758492  62.5860252
   1.2528476  44.2782822  63.3014526  -0.1340110  43.7469940  63.0093193
  67.2158279  43.5158081   5.6103587  67.2799149  44.2200890   4.9652905
  66.9434280  42.7508545   5.1035314  54.2484131  46.1983681  57.1340942
  54.5158348  45.2821655  57.0613670  55.0635223  46.6931610  57.0503883
  62.7847672  40.2826881  34.7711601  63.2066345  40.9178772  35.3497810
  63.4889297  39.6867447  34.5157509   2.6073530  31.9327183  65.2747803
   2.6044786  30.9921932  65.0969162   3.0729530  32.3156586  64.5312729
   3.9593930  60.6673546  81.4114380   4.6922317  60.5608368  80.8049393
   3.9013023  59.8274002  81.8667755  17.7154522  16.5652180  14.1660223
  17.2609501  15.7558270  13.9324732  18.5557785  16.2743778  14.5202723
  61.8661308  61.1536865  10.1291885  61.8004761  61.7140579  10.9024315
  61.7239494  61.7463608   9.3911123  35.1597328  64.5614624  70.1710815
  34.3111801  64.2131042  70.4446411  35.5288277  64.9451752  70.9665451
  43.5324059   4.6541390  30.5022068  43.5663643   4.1816421  29.6704464
  43.7779884   4.0019302  31.1583672  86.9203949   3.7523775   0.5608543
  86.6099701   3.8694551   1.4587171  86.1215363   3.6996627   0.0361869
  85.8371124  14.3833914  79.8153687  85.2454910  14.6910934  79.1286850
  85.3246613  14.4509602  80.6210175  56.1636047  25.0138836  85.7721786
  56.3203201  24.1728001  86.2014160  55.2749138  24.9430313  85.4236984
  49.9659691  25.4024963  23.6261883  49.8280945  24.5027771  23.3300037
  49.1549873  25.8567772  23.3977852  38.9575691  70.4965591  44.5174370
  38.3809738  70.5169220  43.7536621  39.4828987  69.7050781  44.3999214
  70.7279663  25.8709393  41.6424255  70.7990341  26.7416649  41.2512474
  69.9996033  25.9441586  42.2591553  78.9247055  31.2980061  22.5487919
  78.6212769  30.5994911  23.1286545  78.9047165  30.9090443  21.6744118
  67.6222839  70.1860046  40.1293182  67.2478104  71.0627289  40.0436287
  67.3288345  69.8831482  40.9886208  19.3184452  58.0175934   2.7613950
  19.3295174  57.2567482   2.1806848  20.1337070  57.9513092   3.2585750
  12.3088923  40.5279922   3.6719201  13.1248455  40.2850037   3.2344174
  11.8506126  41.0774536   3.0360713  82.3955765  53.8265228  86.5725708
  82.8910751  53.0080910  86.6022339  81.6444168  53.6726418  87.1455536
  67.1160431   3.6083169  68.6042786  66.6992722   3.6130400  67.7425919
  67.7952271   4.2802482  68.5455246  85.4140549  30.4760456  74.8725052
  85.6070480  31.3039703  74.4325867  84.5366592  30.2425766  74.5693436
  39.5370941  45.5386467  21.5726204  39.4729843  45.0575218  22.3976288
  39.2602386  44.9096031  20.9063721  59.3747940  25.2447338  74.8650589
  59.6497421  26.1379948  75.0717468  59.0290070  24.9036560  75.6898804
  29.8496590   3.7830596  51.7463264  30.2179108   4.1973047  52.5267258
  29.7842865   2.8559995  51.9754944   8.9576912  51.4564819  86.4034424
   8.8156843  52.3609962  86.6825790   9.0790186  51.5145264  85.4557419
  60.2555809  31.5740681  23.2709141  59.9481087  30.7797661  23.7076912
  59.4645386  32.0968704  23.1399078   2.6479900  48.9731560  11.2506809
   1.8034612  48.7176094  11.6217594   2.4379077  49.2878113  10.3714256
  60.4704475  17.6312790  52.9912453  61.0366974  17.8303967  53.7368622
  59.5965118  17.5418854  53.3713417  78.1533432  32.1988564  37.8121147
  78.8056259  32.8495369  38.0716743  78.6097107  31.6399117  37.1831894
  28.3927174  46.6867638  62.3193626  28.3956490  45.7376366  62.1953506
  29.3110771  46.9424477  62.2329025   2.8157353  66.3584442  20.8961849
   3.1157315  65.7781143  20.1965771   2.4363072  65.7702484  21.5490971
  66.6143570  36.1005974  14.6517611  66.4855347  36.1249542  15.5999403
  67.4926834  36.4575920  14.5201302  34.2995148  17.5154018  81.0856628
  34.3013878  18.3287086  80.5809250  34.3856201  16.8252048  80.4280548
   8.3896074  52.5678558  24.3474293   8.0515842  52.6791267  23.4588413
   9.2589359  52.9678421  24.3248253  70.9969101  18.3789196  24.5791035
  70.7815933  19.3066273  24.4830475  70.7131348  18.1577702  25.4661179
  52.3708801   4.8193636  27.1661015  51.5810623   5.1767216  27.5719566
  52.9513588   4.6250315  27.9019756  59.6508293  34.9186287  84.8012466
  58.9995728  35.2568207  84.1866608  59.3694115  34.0210838  84.9785995
  76.5434341  61.8493423  55.6972237  76.3843536  61.2188492  54.9947968
  77.1426697  61.3987808  56.2923203  77.3708115  32.0659180   8.3338308
  78.1026382  31.7308941   7.8157396  77.7596283  32.2935600   9.1783619
  34.4940567   7.7131338  69.4381561  34.8457680   8.4931974  69.0091705
  33.5917931   7.6533728  69.1241684   0.9030114  60.0630569  75.7592697
   0.0464792  59.6924210  75.5466461   0.7646154  61.0100822  75.7442169
  47.6687851  22.1623306   4.2297788  48.6118050  22.3093853   4.1568518
  47.3543892  22.8873234   4.7699399  71.7730026  55.9788361   4.4776068
  71.4981613  55.3504219   3.8099320  72.6864319  56.1702003   4.2648635
  18.2798901  18.5011215  17.5940228  18.2908001  18.7185631  16.6619110
  17.6901760  19.1466103  17.9836559  56.2852249  45.5011215  28.0188026
  56.1736755  44.8717003  27.3063297  56.0399551  46.3430824  27.6351662
  44.7074509  63.2129898  34.0908623  44.1087914  62.5117035  34.3478355
  44.1442757  63.8718033  33.6846237  47.0619812  51.9582138  73.1171341
  46.2830429  51.5955582  72.6952744  47.5456543  51.1921501  73.4260635
  50.4094162   8.3582506  39.2263718  51.1675911   8.1790648  38.6702309
  49.7006340   8.5472584  38.6114464  57.0775146  28.0670395  68.7943115
  56.4577408  28.2604656  69.4976578  56.5741539  28.1934795  67.9900284
   0.6351427  60.5031662  23.2146454   1.4117268  60.0284271  23.5109138
  -0.0254434  59.8231316  23.0826836  49.0798035   7.0919738  12.8895874
  48.7028503   6.9345713  13.7552443  49.2386322   6.2172337  12.5348558
  82.2226791  41.7395706  53.3929176  82.2858047  41.7337456  54.3480148
  81.4260254  42.2371483  53.2085648  43.9267616  49.3485565  38.6981583
  44.8548737  49.3174973  38.9302635  43.8249626  48.6735725  38.0271416
  73.2531433  31.5152912  41.2490044  73.2927704  31.4977722  40.2927856
  73.9984665  30.9841442  41.5293770  64.1739731  46.5532494  43.3176155
  64.2862091  46.3472939  42.3895988  64.8049927  45.9901810  43.7659454
  35.8992767  70.8925552  30.6645279  35.7308464  70.9324417  29.7231064
  35.0316734  70.9447784  31.0654888  53.3029976  66.3352966  20.3255291
  54.2478371  66.3062286  20.1749802  53.1939545  66.9587173  21.0436401
  26.8557701  12.8092556  16.4853058  26.5123520  12.7261877  17.3749104
  27.6897926  13.2666378  16.5922661  64.1681824   2.9313560  81.6925430
  63.5831070   2.1814129  81.5853043  63.5812645   3.6769743  81.8182755
  40.4342766   3.6748710  67.4745789  40.2438812   2.9955139  68.1214600
  40.4823303   4.4838729  67.9839325  63.8949318  70.8205338  23.6090488
  64.1735229  70.7904053  22.6937847  64.6629181  70.5329971  24.1027641
  15.0136662  10.2380857  82.0004959  14.3888645  10.8933239  81.6898193
  15.7941236  10.7418756  82.2313843  47.9412079  54.8809128  81.9184265
  48.0854301  55.8136368  82.0779800  47.8100548  54.5063896  82.7894897
  54.0592422   7.2190318  74.3371124  53.8363228   6.3483772  74.0077209
  53.8730659   7.1751857  75.2750092   7.7221637  37.9677696  58.1289902
   7.8319101  37.0651016  57.8300323   7.2904925  37.8875656  58.9795570
  75.9402618  49.3842278  53.9137573  75.8389206  49.7248802  53.0249825
  76.4981232  48.6130104  53.8125038   5.6077986   8.4391584  25.7953930
   5.7645531   9.2518635  25.3145924   4.8420835   8.0531321  25.3700752
  64.2800674  54.5901031  71.8611832  63.7538261  54.4898949  72.6544418
  64.2552567  55.5285454  71.6742554  19.1581364  71.5886993  45.1385345
  18.4685707  70.9248199  45.1381416  19.1023960  71.9914246  46.0051003
  73.1831665  23.9737053   6.9758053  73.0301666  24.2824783   7.8688245
  74.1130295  23.7473927   6.9566426  51.6449966   7.5407019  17.3107376
  50.8066673   7.3521299  17.7324886  51.6052284   8.4748526  17.1057682
  66.7050934  40.4999924  31.4668312  67.5390015  40.9257355  31.6657467
  66.0845108  41.2223015  31.3699818  61.0405731  61.1957169  29.8336678
  61.8646774  61.6658745  29.7070274  61.2428856  60.5307350  30.4917717
  51.4219437  63.0455780  11.0895700  50.9789047  63.6683426  10.5132771
  52.3542938  63.2008934  10.9384584  16.6906891   7.5280910  78.0020142
  16.0259380   7.6958690  77.3340454  16.2423592   6.9931312  78.6570358
  73.2556839  30.2537251  74.3110504  73.2234116  30.3057804  75.2662888
  74.1473846  29.9649372  74.1169052  15.3429680  40.0854759  15.4064283
  15.0458241  40.3589325  14.5385799  14.5412760  39.8377686  15.8670397
  78.3133774  53.8677979  62.3314552  79.2509079  53.7467842  62.4818344
  78.1084213  53.2754593  61.6080208  83.9098053  64.2218857  30.5712032
  84.6123657  63.7817841  30.0927143  83.9617767  65.1345139  30.2872372
  58.3416100  39.9547539  71.8827286  58.7314568  39.1454201  71.5522385
  58.3454208  40.5469437  71.1307144   7.5817585  10.8461390   1.5024208
   7.5587516  11.8014879   1.5572958   8.0922279  10.5746384   2.2652709
  65.9580765  70.8896484  62.0827065  66.5455322  71.6281204  61.9221077
  66.3506088  70.1620255  61.6003036  59.3759232  36.1195641  87.2534866
  59.3983727  35.6706314  86.4083862  60.0092087  35.6462135  87.7930450
  42.2333946  31.4537182  76.7579346  41.2833481  31.5201416  76.8540268
  42.5831261  32.0606842  77.4102478  72.9252930  17.4229298   8.1271372
  72.0578766  17.7296219   7.8630056  73.3173447  18.1714878   8.5767927
  43.0144386  70.8328171  10.9034119  43.4447632  70.1810379  11.4567986
  42.2920876  71.1618500  11.4383717   9.0002766  30.8641357  58.3336258
   9.5089207  30.9430218  59.1406517   9.0890369  29.9444675  58.0834999
  59.5825310   8.1020651  28.7665291  59.3082695   8.8677626  28.2618313
  60.5107574   7.9973893  28.5575600   5.7023664  23.9879513  64.4561386
   5.6739779  23.7267246  63.5357132   6.6305957  23.9513702  64.6869736
  32.2867432  26.7045555   8.7152586  32.0027618  25.8940086   8.2926493
  32.1570969  26.5453682   9.6501827  79.4002228  16.2131710  56.5826302
  80.1424179  16.8086929  56.4790497  78.8927612  16.3207207  55.7781715
  12.5171947  42.5797348  80.1257248  11.6847658  42.2102623  80.4203186
  13.1046085  41.8265991  80.0627823  86.0959244  14.4859638  18.1841583
  86.3057938  15.0013676  17.4053497  86.2020874  13.5764723  17.9052525
   5.7248359  14.2199268  41.8308792   6.5908251  14.2615614  41.4252167
   5.8482561  13.6675549  42.6028137   8.9433727  47.5652390  48.2526207
   9.3575392  48.1587296  48.8790894   8.1907558  47.2072258  48.7233925
  46.3129692  26.4330196  75.3122787  46.9814186  26.2094479  74.6646500
  46.7640457  26.3686638  76.1540680  77.5040970  66.7306213  17.5851994
  76.6917877  66.6812286  18.0891323  77.2532730  67.1616898  16.7681923
  15.9306126  12.3798075  73.2205505  16.2376289  11.6761236  73.7922211
  14.9824762  12.2560453  73.1763763  47.8795891  43.7447128  50.7770271
  48.1154175  43.0693703  50.1410027  47.9340019  44.5649796  50.2866859
  28.2290268   4.6392775  88.1044159  27.7468510   3.9889896  88.6151657
  28.7142963   5.1444020  88.7567902  71.4064713   4.6548309  52.3940773
  70.5516739   4.2256579  52.3570290  71.2069397   5.5900583  52.3520050
  69.2517624  50.4359741   8.9501619  68.7014771  50.1245346   9.6687899
  68.7081299  51.0775452   8.4929008  32.4946594  46.9475403  81.4535141
  33.1172905  47.6388512  81.2284622  31.8064404  47.0204849  80.7922516
  13.8169031  59.6558189  75.7490997  13.6228342  58.9198151  76.3295059
  12.9667110  59.9065971  75.3878326  42.2769775   0.1981141   4.3553085
  41.6800308  -0.1953409   4.9917693  42.2120361   1.1394705   4.5161281
  53.3618126   7.5331397  76.8485565  52.5672989   7.0313668  77.0307693
  53.4001198   8.1839132  77.5494537  23.6774769  47.7274323  17.4942169
  23.1374035  47.7922020  18.2818432  23.2274456  47.0833588  16.9475212
  62.0134583  35.9885063  60.7983398  62.2865028  35.5727959  61.6161804
  61.2439499  35.4908180  60.5219460  48.7541084   1.9931663   3.6294560
  47.9885330   1.6274867   4.0726304  49.0584221   2.6890378   4.2120266
  52.7990417  69.1018677  64.3132019  52.1237030  68.7768707  64.9086227
  52.3515053  69.7576370  63.7784920  25.9704514  12.4130926  80.4844131
  25.1134415  12.5841579  80.0938950  26.2259941  13.2480974  80.8764572
  18.1150208  60.2845039   8.5106363  17.3316021  59.7373619   8.4547663
  17.7818699  61.1608047   8.7038841  17.6801910  26.3118877  80.8869934
  17.7454109  26.7957840  80.0636902  18.5651741  25.9814053  81.0413208
  28.3368397  69.3435135  28.2217064  28.2478790  69.5980225  29.1401539
  27.5631847  69.7118607  27.7950821  23.6298065  29.1461811  11.4120121
  22.9964237  28.6401863  10.9030676  23.5643673  30.0342789  11.0609655
  33.4233208  62.5772285  31.4880219  33.1276436  61.6677589  31.5289288
  34.0994453  62.6398392  32.1626816  55.7924538  -0.0435096  74.5926437
  56.7403221  -0.1186754  74.4825211  55.5310173   0.6298604  73.9645844
  84.0207214  44.0032120  22.6016788  84.0183563  43.1194382  22.2340202
  84.9475327  44.2342110  22.6640110  26.0268917  59.1816216  54.8684616
  25.4814129  58.4191055  55.0614738  26.1256580  59.6249161  55.7110558
  25.6198044  56.3318367  52.0048904  25.4501438  55.4454308  52.3238525
  24.9648628  56.8740387  52.4445457  16.4392757  65.5387192  72.3230133
  16.8860245  65.4888611  71.4779358  16.7178173  64.7498322  72.7880936
  62.2991982  56.3380203  31.5890350  62.8017311  56.1789169  30.7900505
  62.8639717  56.0217361  32.2941780  52.9762497  40.2408409  64.1697769
  52.0346184  40.3887024  64.2575226  53.2705231  40.9227180  63.5658836
  31.4369602   0.9439963  47.7056084  31.1481838   0.1199578  48.0977821
  32.3236961   0.7630852  47.3938332   8.7723904  50.7994080  73.6983490
   9.2987328  50.0195312  73.5223160   7.9557085  50.6497002  73.2220612
  82.5021515   3.3158457  27.4001331  81.7811661   2.8197329  27.7877998
  83.0406723   3.5786123  28.1465740  27.7211952  43.4246292  11.7660961
  28.1943474  43.7179909  12.5447474  27.5257759  42.5033951  11.9374905
  15.1567106  63.4845428  23.2249603  15.1339245  62.6427193  22.7699394
  14.8279514  63.2912369  24.1029015  60.4545746  33.7399940  78.0219498
  60.3492775  33.0465088  78.6732712  61.3019142  33.5595932  77.6148758
  49.8484612  62.0903702  52.1155624  49.4681129  62.5118446  51.3448944
  49.4728241  61.2099571  52.1169357  11.5527620   1.6297352   1.3793303
  10.8872662   0.9451680   1.3106623  11.1177130   2.4197342   1.0586027
  34.7740479  46.3000603  85.2519989  34.4374237  46.9898186  84.6800308
  34.0133209  46.0172462  85.7594833  82.5582047  12.4301453  44.0764198
  82.3542252  13.3599234  43.9757538  81.7387161  11.9812803  43.8686028
  85.7758102  10.2660084  76.2101593  85.2596970   9.9428568  75.4716263
  86.6376038  10.4515285  75.8371658  57.4424362  32.2125740   5.2717600
  56.5916290  32.6322060   5.1442232  57.3004417  31.3008995   5.0169606
  58.7278748  64.0313644  16.0979843  58.8857994  64.9370041  15.8313274
  59.0457726  63.5064774  15.3633614  30.5286541   8.0022573  51.8724785
  30.9103146   7.3538804  51.2807236  31.2219143   8.6504602  51.9968033
  17.8006668  65.4482193  10.0666418  17.5360622  65.9729843   9.3111038
  18.7466831  65.5796204  10.1300344  45.1058655  39.0848961  23.9496021
  44.5336113  38.5248909  23.4250488  44.5367928  39.7927704  24.2517681
   3.7152467   2.0673232  81.3386230   4.2570329   1.3906971  81.7446747
   3.1817067   2.4094071  82.0559387  11.9213543  67.4754410  13.2755957
  12.4714499  68.2508926  13.1646757  11.2351446  67.7533646  13.8823128
  24.7265415  31.5212879   9.3739243  25.0303745  32.1560516  10.0227633
  24.6256676  32.0304642   8.5696888  20.5869942  64.1998672  12.7557297
  19.7489223  64.0492096  12.3185024  20.4850578  65.0506744  13.1823025
  42.9425659  25.9268417   8.3274803  43.2513237  25.1081085   7.9394360
  43.1200523  25.8303394   9.2631187  31.5145283  58.7226639  49.7397690
  32.3002548  58.2216568  49.5209961  31.4420738  58.6510315  50.6915283
  51.7318268  57.1476326  35.3022766  51.5052299  57.9928894  35.6901283
  52.2426529  57.3704414  34.5240440  66.0829239  26.1413174  33.5585899
  66.4048691  25.2562294  33.3876915  65.4171219  26.2878990  32.8866882
  21.7172508  58.0080147  45.9048653  22.3096027  58.2433701  45.1907539
  21.3207340  57.1829529  45.6250763  18.8858318  37.2042198  75.5027618
  19.2395363  37.6729317  74.7468262  19.6563034  36.9629784  76.0169678
  71.5022125  26.9636517   1.0288941  72.3382950  26.5057259   1.1155270
  71.6051865  27.5041275   0.2456233   1.6767241  54.6167374  71.6791916
   1.5992788  53.7516823  71.2768097   1.2333106  54.5289879  72.5229416
  20.4855709  20.5895309   0.0900742  20.8943443  20.7815247  -0.7538891
  20.9495525  21.1482925   0.7135643  16.1860485  42.0418701  17.5223217
  15.7738552  41.6501122  16.7523499  15.5373011  41.9407234  18.2188339
   3.2558987  50.7345467  68.8483582   4.0767145  50.5562401  68.3893433
   3.2156396  50.0684280  69.5345764  58.5802269  15.0180788  23.8848495
  58.4764214  14.1654158  23.4624500  57.7605782  15.1508245  24.3610706
  43.6578484  37.8218422  22.1447887  42.7895279  38.1480217  22.3811398
  43.5116844  36.9085846  21.8981609  53.2955704  20.7546349   8.8517485
  54.1518173  20.3660831   8.6725883  53.3998718  21.1826973   9.7015219
  18.9201431  54.0294685  75.4712372  19.8590126  54.1570053  75.6072235
  18.8038769  53.0793877  75.4791107  43.8533897  48.3387756  36.1495476
  44.1663818  48.5123558  35.2617760  44.3763885  47.5941467  36.4465866
  51.2897682   6.9558420  20.2639427  51.4410095   6.0462070  20.0071907
  50.9697533   6.9005189  21.1643639   4.5955534  28.3019123  45.3437233
   3.9718528  27.5978642  45.5213318   4.1112905  28.9178219  44.7938347
  85.7717896  64.1266403   0.4579234  86.6417160  63.9137001   0.7957546
  85.5736160  64.9855728   0.8309972  13.2270412  28.0653229  66.9733124
  12.9660378  27.3405743  67.5415115  12.6721878  27.9741631  66.1986771
  23.0261250  44.1408463  70.7458496  22.0766392  44.1843071  70.6326218
  23.3629284  44.8710365  70.2266083  50.3348312  61.4490967  12.9881144
  50.3894653  62.2290344  12.4358978  50.4078598  60.7167282  12.3761234
  36.3729210  29.2642708  72.0337448  36.3495560  30.1896286  72.2774658
  35.5375824  28.9139423  72.3431168  25.1613941  52.0080833  22.2434750
  25.2213192  52.8368759  22.7185974  25.1041164  52.2634315  21.3227425
  60.7426682  54.6715431  55.4196587  61.6812553  54.4859428  55.4485779
  60.5462837  55.0473709  56.2778053  44.7833252  33.0206451  89.2760773
  44.3082047  32.1968651  89.3850784  45.3132095  32.8892975  88.4898224
  31.7779179  51.7644653  54.3104286  32.5715561  51.4172745  54.7176514
  31.3445301  50.9967651  53.9375458  65.5590973  53.4612389  64.3858032
  65.7902527  53.4262505  65.3140182  65.7757797  52.5906754  64.0520401
  22.1188526  30.0869579  88.7526474  21.3461571  29.9304790  88.2097931
  22.8354588  30.1872864  88.1260376   6.0391746  28.0121326  19.6163063
   5.2825480  27.4499588  19.7827587   6.2878165  28.3410702  20.4801407
  57.5052795  10.3929224   9.5207415  57.3245926  10.3169556  10.4576569
  58.3454857   9.9499493   9.4021654  49.7568932  62.7966728  69.1841354
  49.7151794  63.6880722  68.8378677  49.0177994  62.7401543  69.7897568
  -0.1376700  28.0715313  17.8067207   0.6161189  27.7733746  18.3157749
  -0.0823407  27.5805855  16.9868755  36.0606689  54.3771973  84.2108078
  35.5509338  53.7804527  84.7588043  36.8690453  54.5223389  84.7024307
  43.7923088  61.1458244  80.4514847  43.2891464  61.5178299  81.1758270
  44.3366318  61.8695564  80.1414032  16.9017696  60.2971001  17.7054005
  16.0306587  60.6745911  17.5833454  17.2600765  60.2304306  16.8202991
  49.1966133   4.0097275  67.1762619  49.8549042   4.3458419  67.7844620
  48.3749924   4.0513659  67.6655884   5.2324562  67.0020981  37.8984528
   4.4471073  67.5391998  37.7936745   5.9572763  67.5984802  37.7108459
  14.4633436  12.1729927   3.6061873  14.5277185  12.7077703   2.8149219
  14.0972071  12.7630825   4.2649517  27.8603935   5.0990977  38.2776871
  27.7666912   5.5728416  39.1041336  27.1197662   5.3934870  37.7475548
  45.2511215  29.6863060   0.6108000  44.6825218  29.8996029   1.3506862
  45.6220856  28.8321552   0.8322620  85.3997726  53.8759918  30.4967079
  85.4119263  53.0042686  30.1015110  85.0242920  53.7394180  31.3665314
  19.2822628  61.4908333  74.9145737  19.8464508  62.1022797  75.3879242
  19.1511497  60.7647743  75.5243988  81.5588226  58.9860611  78.7109756
  81.1587448  58.6565552  79.5157013  82.1372604  59.6908951  79.0022583
  33.8806343   2.0878549  10.2120085  34.4070320   2.4448280  10.9273453
  34.5151329   1.8907950   9.5229425   3.8081815  58.1346855  45.3397865
   3.5363832  59.0402679  45.4890556   3.0257802  57.7033157  44.9962769
  25.4305878  20.0860939  75.0284195  25.6667347  20.5129910  74.2048798
  26.2476730  19.6959095  75.3388443   7.8466315  38.1974487  13.7763538
   8.0463820  38.5523491  14.6425962   7.2708530  37.4526672  13.9496021
  62.9828339  24.1360474  52.1158943  62.6374397  23.5004272  51.4890594
  63.8015327  24.4390526  51.7232742  22.5083618  53.3641472  18.5339336
  22.4133568  52.5379562  19.0078716  22.9909763  53.9311829  19.1354198
  54.8757019  31.0799980  57.1652260  53.9966698  30.7583923  57.3654976
  55.2970276  31.1733227  58.0196304  45.1817360  46.3968048  14.2231636
  45.9891205  46.3657494  13.7099361  45.4494209  46.1427193  15.1063490
  55.5564499  65.5299377  67.6790695  56.5074005  65.4568024  67.5979614
  55.4206543  65.9662170  68.5201721  45.6527328  13.6453562  23.7912674
  44.7234917  13.5115681  23.9779301  45.7086258  13.6375990  22.8357334
  48.3754539  24.3129539  21.0314255  48.5486069  23.7757015  21.8044777
  49.0413246  24.0437908  20.3986530  79.5047455  39.2510796  87.1913834
  79.1924973  39.6559525  86.3821793  79.3802261  38.3121605  87.0529709
  77.7288055  29.8544941   2.4228711  78.3564682  29.5192375   3.0630808
  78.2702408  30.2678204   1.7503841  77.9904251  66.7994156  68.1934738
  78.6628799  66.1182404  68.1870422  77.9147873  67.0526276  69.1134644
  15.9390650   9.8499613   3.7021272  15.4587231  10.6775885   3.7252998
  15.9525509   9.6066961   2.7764535  43.3122406  56.9088326  50.5749931
  43.6970024  56.0745163  50.8435211  43.1926765  57.3916931  51.3927879
  21.5128021  21.9133625   5.4502220  21.7826023  22.7908401   5.7212763
  20.6426697  22.0367966   5.0709291  18.3503551   8.4136581  18.8179092
  17.7291470   7.6903987  18.9029293  19.1776714   8.0582304  19.1426392
  44.5661392  48.5306854  22.3058929  43.8625259  48.0122681  22.6962795
  44.2522240  48.7357788  21.4251976  21.4850502  70.7585373  52.3304405
  21.4443531  71.5842209  51.8479309  21.9188023  70.9832840  53.1535912
   4.5154443  63.3993759  48.2819099   3.8496070  63.0371284  48.8664360
   4.8078785  62.6522942  47.7598190  25.5653000  70.7181931  87.9785690
  25.9392948  69.8729706  88.2274780  25.1076794  71.0182343  88.7639236
  65.9802933  19.9723969  62.7629318  65.3887024  19.6276608  62.0940437
  66.8150330  19.5361652  62.5922279  37.1562996   2.3381674  33.2625694
  37.4720078   2.3651946  34.1658020  36.3588371   2.8675084  33.2716484
  35.2587051   2.1597240  48.9937515  35.5946465   2.6218758  48.2257729
  35.7925491   2.4822152  49.7198677  11.8891277  27.9327164  61.2618790
  12.2465668  27.2266331  61.8003159  11.4938383  28.5366898  61.8905258
  28.4854050   1.2099925  22.8135395  29.3208580   1.5916984  22.5441818
  28.7105885   0.3304353  23.1166954  52.6954613  12.2399130  76.4359818
  53.2333412  12.9424391  76.8011932  52.2676735  12.6358118  75.6767120
  36.4443130  57.5564842   8.7385931  36.6536751  56.9010277   9.4040079
  37.1653671  57.5000458   8.1115942  71.5263062  23.8518829  45.3226624
  71.4837799  24.7073364  45.7500076  72.0361404  23.3088932  45.9238777
  43.7495270  51.7525940  58.0790100  42.8591042  51.4760246  58.2955475
  43.6458931  52.6335526  57.7192841  33.3512115  69.7946548  32.6199112
  32.8551025  70.2746964  33.2829895  33.7079964  69.0396118  33.0877228
  75.0017853  28.8730659   4.0972118  74.9186630  28.5514526   3.1995001
  75.4930725  28.1890392   4.5521612   8.8250561   8.5838346  18.9784508
   8.9989643   9.4833193  18.7011166   9.4004192   8.4499321  19.7316170
  29.0510693  46.7381783  15.0930939  29.5514736  45.9935684  14.7593555
  29.2347546  47.4462280  14.4757137   6.9603257   4.3082862   6.8852992
   6.7103791   4.3974600   5.9656215   7.9164658   4.3528867   6.8790512
  37.8854027  21.2337170  76.9386444  38.5129128  21.3070812  76.2195663
  37.0628777  21.5591526  76.5728912  80.2554550  57.9685135  80.8418503
  79.9996567  57.1684494  81.3008652  79.8115845  58.6702194  81.3181000
  10.2537231  50.4901962  42.0279236  10.8664598  49.8507614  41.6647224
   9.3897448  50.1632690  41.7771378  61.9436798  10.1897554  75.2516632
  61.1192284  10.5670176  74.9447708  61.9610863   9.3112478  74.8719864
  85.7963028  70.4448471  24.9272804  86.7247391  70.2543182  24.7933788
  85.6563568  71.2799301  24.4808598  55.7429390   5.7365699  63.1068916
  56.5855370   6.1261358  63.3403473  55.9186592   4.7968721  63.0587082
  19.7100582  31.2429409  77.9702606  19.3071384  30.3884697  78.1244202
  20.0455227  31.5075932  78.8267975  71.3467178   9.4680319  27.7835655
  72.1261826   9.1159487  28.2133408  70.6151123   9.1296129  28.2997570
  42.2475929  47.6438332  10.8427639  42.2201653  46.9259682  11.4753418
  43.1773033  47.7502136  10.6413794  64.5932388  19.7199192  52.2652130
  64.4974442  19.7665253  53.2164650  63.7076149  19.8556824  51.9283676
   9.9411898  60.8523521  70.8117371   9.2417889  60.6475258  71.4323120
  10.2685766  61.7066383  71.0932388  20.6379108  50.5013161  64.5185928
  20.8917065  49.7952652  65.1129913  19.9107151  50.1387215  64.0126877
  19.1282558  69.8719635  63.4563370  18.1988068  69.7819290  63.6666946
  19.1520138  70.5128403  62.7457390  66.0649109  11.7728357  50.6968880
  66.5314865  11.3483973  49.9768906  66.4794159  12.6318588  50.7775154
  50.7566719  24.2573433  76.3394089  51.5215645  24.4917088  75.8138199
  50.2039604  23.7499733  75.7450027   7.5725427  17.0160904  12.9504862
   8.0708113  17.6331272  13.4864216   7.6913199  16.1714001  13.3847933
  82.6762924  51.6678200  60.5068092  82.6635590  51.6314430  59.5503845
  83.0496674  52.5257149  60.7089119   7.8886471  29.6766262  75.8615036
   7.9589329  28.7845669  76.2013931   7.7399540  30.2174454  76.6371613
  39.5970650  42.8706360  57.0746536  39.6333466  43.5577621  56.4092445
  39.5094566  42.0584564  56.5757332   9.5028934  21.1302948  13.0964251
   9.9338703  20.3849964  13.5147781   8.7609062  20.7465172  12.6290903
   6.0968266  48.9638252  66.0191269   6.7800756  48.3758736  65.6970825
   5.4132514  48.3796425  66.3472824  81.4618988  65.0171204  64.2998199
  80.6392365  64.5972824  64.0484314  82.0951385  64.3002701  64.3367538
  80.6000290  19.2473164  14.1738052  80.3927078  19.9697056  14.7665977
  80.0013275  18.5464344  14.4317732  18.9250355  36.2760544  69.9694824
  18.2712269  35.9403496  69.3562393  18.5242290  36.1647606  70.8315735
  65.7874374   1.1293964  66.8165359  65.0385208   1.7173436  66.9148788
  65.4120712   0.3188778  66.4724579   1.8852042  39.9014626  -0.0921768
   2.2184613  40.6513329   0.4006393   1.7335765  39.2276001   0.5705054
  25.5026741  63.5953140  37.8673973  24.9103928  62.9271545  37.5224419
  26.2030792  63.6530838  37.2175293  29.6303082  24.4859505  82.1840591
  30.0318012  24.6800957  81.3370972  29.9830894  25.1515961  82.7745590
  11.8060713  38.0109406   0.6314259  11.1709528  38.6593742   0.3274711
  12.6524324  38.4519920   0.5581095  51.0949974  39.2504501   8.2031364
  50.6163139  38.5213661   8.5975142  51.8903618  38.8517227   7.8500819
  19.0440273  60.2736168   0.8126025  18.9425316  59.6283226   1.5122645
  19.0858822  59.7527542   0.0106147  18.0969105  48.4741211  47.5464134
  17.4390392  48.6654015  46.8779449  17.9584789  47.5517731  47.7616882
   1.2124672  63.7878189   6.2115865   1.3831894  64.7238770   6.3158593
   1.9245403  63.4751930   5.6535087  64.7350769  43.4683800   7.9500999
  65.5602951  43.5177078   7.4675984  64.9038773  43.9452553   8.7627058
  18.0924282  50.7964134  66.9567947  18.5493679  51.2254753  67.6802216
  17.1660175  50.8547440  67.1904449  69.4114380  18.5104771  54.1225853
  70.2225952  18.5743351  54.6267509  69.5717926  19.0416164  53.3425827
   8.4756851  37.8338203  68.6710815   9.1310587  37.2369652  68.3098602
   7.8246942  37.9242744  67.9751892  45.3257294  60.3630753  39.6034737
  45.5055504  59.6077728  40.1633110  44.8247337  60.0043831  38.8709564
  54.2825661   6.4746804  17.4208660  53.4580612   6.9564567  17.4865417
  54.7393494   6.6689787  18.2392979  45.2729492  48.6315460  11.1099215
  45.7138176  48.2158394  10.3689365  45.8121719  48.4045258  11.8675060
  83.6996613  46.5397987  81.9681396  82.7674026  46.7099380  82.1029587
  83.7783279  45.5869446  82.0140915  11.0554943  49.3312798  83.3102112
  10.4846659  48.8420639  83.9027176  10.7202539  49.1322937  82.4359970
  25.8496895  31.3026867   5.8864770  26.5552120  31.1158237   6.5057921
  25.3725796  32.0331459   6.2802124  54.0599518   9.3268070  26.0448952
  53.1522102   9.2023764  26.3219528  54.0254822   9.2922077  25.0889416
  59.8563271  14.4895868  45.3650513  60.5083351  14.9677057  45.8774223
  59.6050110  13.7540960  45.9237328  32.7969742  57.0949135   2.0698538
  33.6565819  56.9604568   1.6708220  32.5542336  56.2343216   2.4114556
   3.4248111   9.0890989  16.0451775   4.0379043   9.3912191  15.3750505
   3.9201891   9.1384010  16.8627357  33.1808090  62.3553200  53.8619766
  32.7709885  62.6926346  54.6585312  32.8700447  62.9367905  53.1680412
  86.2452164  45.9977875  46.6347351  86.3865738  45.7230225  47.5406876
  87.0642166  46.4247437  46.3833733  52.9235687  56.3645706  65.2572861
  52.4423752  56.1957359  64.4472351  53.0751915  57.3096771  65.2532501
  59.8802719  42.2593346  11.6873207  60.2112999  41.6035423  11.0736513
  58.9279060  42.1947327  11.6162186  56.1974258  10.8110094  76.0277939
  57.0450516  10.6146345  76.4267883  56.0885696  11.7542810  76.1487045
  66.2327881  11.5225534  39.1746521  66.3615189  12.4376812  39.4240532
  66.9357147  11.0512667  39.6218834   7.6005526  67.4065781  11.8112717
   6.6854467  67.4289017  11.5314236   7.8633995  68.3263855  11.8443623
   2.6757770  53.7670784  10.6589251   2.1350224  53.0393562  10.3519487
   3.3579388  53.8559761   9.9933548  18.8809910  65.7608109  62.8762093
  18.0782566  66.2763214  62.9542542  18.7026596  64.9630127  63.3741531
  56.8118362   9.7233200  12.0188313  56.2064362   9.0389919  12.3041639
  56.5306740  10.5052118  12.4940395  58.3452873  51.4205780  30.2821960
  57.7430229  50.7488060  30.6019363  57.7881813  52.0321274  29.8006630
  85.2694931  62.4689598  63.9232941  84.6159134  62.6990547  63.2628975
  86.1023865  62.7490997  63.5437660  53.1374016  67.5874023  22.6308022
  52.4912033  67.0338821  23.0692997  53.4472237  68.1814575  23.3144226
  73.3602219   5.1791773   1.6031698  72.7928848   5.7064891   2.1655748
  73.9181747   5.8179560   1.1594501  35.0362663  53.5349464   0.4870092
  34.3402863  54.0695877   0.1049072  34.6925888  53.2680779   1.3395917
  58.2712517  49.7229919  60.1818810  57.9841118  49.0292587  60.7756081
  58.8440399  49.2803764  59.5555916  80.3522720   6.0495062  32.0904884
  79.9622421   5.9845681  31.2187729  79.6164627   5.9324884  32.6914253
  67.9549255  69.3433151  72.8668900  68.1281891  70.0007935  72.1931381
  67.6256943  69.8453522  73.6124039  10.1378059  13.1472759  73.2223969
   9.8597059  12.3673868  72.7421188   9.3232622  13.6084976  73.4224548
   3.4619906   5.5456643   4.5362248   2.8309121   6.1835752   4.2029958
   3.1082308   5.2796502   5.3849430  26.5475025   3.0551832  13.4864416
  25.7549210   2.6864538  13.0964613  26.3978405   3.0004044  14.4302807
  48.1700516  48.2637253  82.9374771  47.6568947  48.3011932  82.1303253
  48.5105324  47.3695068  82.9635391  53.2210159  39.6756096   2.8437591
  53.0606689  40.0973892   1.9995888  53.8901291  40.2191353   3.2598124
  31.7187805   2.6396377  43.0838127  31.2966442   3.3639369  42.6218338
  32.4012909   2.3383787  42.4841003   5.0751162  31.4539413  68.5356369
   5.7170482  31.5331955  69.2412415   4.9158177  30.5130196  68.4613266
  67.4614487  45.9152489  44.6854095  67.2948914  46.5984650  45.3347931
  66.9714890  45.1572571  45.0041809  75.5956345  37.5511627  13.9482365
  75.8430252  37.8935814  13.0892935  76.1547318  38.0240593  14.5646925
   4.7292361  15.6482449  55.8043976   5.1259842  15.1092272  55.1200867
   5.4732199  16.0337868  56.2670822  58.0639992  70.4443283  84.1369019
  57.9658890  70.5696640  85.0807724  57.8238487  69.5293732  83.9905396
  33.3283043  68.1882477  65.8852921  34.1033630  68.6565094  65.5750427
  33.6776466  67.4694290  66.4120636   2.2898579  29.4403553  33.4190674
   2.7683468  29.9913311  34.0385094   2.0099776  28.6853848  33.9366760
  71.8106842  31.9034538  54.5149574  72.1180725  31.0049057  54.6347733
  70.9394073  31.9133739  54.9112015  79.6112137  37.9922562  21.9040737
  80.2732391  37.4919128  22.3811569  79.4042282  37.4504929  21.1425724
  60.2079353  66.1774673  84.3803711  60.6337128  65.5123825  84.9213028
  59.9679947  66.8696442  84.9964523  64.3199463  65.0596161  21.7903080
  64.5453033  65.3608475  22.6704826  63.5047073  64.5714417  21.9056377
  40.1701965  63.0209465  59.9845657  41.0666847  62.8304291  59.7084312
  39.7838364  62.1616058  60.1533661  67.0229263  64.8296814  69.6762619
  67.5727539  65.0357590  70.4322128  66.5225601  65.6303177  69.5186615
  11.0940495  56.4805565  28.6616135  10.6009789  55.6668015  28.7661095
  11.3426914  56.7260628  29.5527573  52.5646782  17.3746090  17.0010834
  52.3397179  17.6177502  16.1030254  51.8489113  16.8041401  17.2812157
  18.3191547  57.1733780  76.7208786  18.6204205  57.1186638  75.8139725
  17.4129105  56.8666725  76.6911316  31.9915428  63.1546364  77.6405945
  32.1684990  62.2726555  77.3134460  32.7754669  63.6554947  77.4151230
  71.8867798  17.8532238  15.1362286  71.3719635  18.0694675  14.3587742
  72.3127213  18.6756802  15.3778219  44.8358841  15.9909477   6.8367896
  45.0167046  16.6086979   6.1283259  45.5454025  16.1312275   7.4637971
  41.2810860  47.2076492  28.2409515  41.1893692  47.1626778  29.1926861
  41.7530441  48.0255203  28.0841904  61.8423729  31.2593212  38.6756058
  61.1626587  30.6297321  38.4351082  62.4036484  30.7836132  39.2878990
  16.2797108  53.3279724  81.3271255  17.0532303  53.7424088  80.9448318
  15.6293983  53.3407745  80.6248703  42.9752274  52.6150246  47.0102997
  42.8290329  51.8765106  47.6014442  43.1590385  52.2104530  46.1624985
  31.5681190  53.8895493  75.1040955  31.1861496  54.0186653  75.9722290
  31.3186798  52.9974403  74.8629379  63.3398209  15.3112974  78.6524506
  62.6957703  15.9825993  78.4271088  63.0711594  15.0024824  79.5177155
   8.3733425  65.2093964   7.4381404   8.9218578  65.3639832   8.2072086
   8.6316004  65.8918762   6.8186622  85.0895309  25.5802612  20.2542324
  85.9480667  25.2489033  19.9908752  85.2570038  26.4779243  20.5412655
   7.3838449  37.2227325  44.3315697   7.2584734  36.3953590  44.7962990
   7.6942072  37.8300438  45.0031929  32.5979462  30.8045616  84.9703674
  32.0384789  31.1875648  84.2946930  33.4896011  30.9527760  84.6553802
   0.7525586  50.4518967  13.4076385   0.2738487  50.7769127  14.1701555
   1.6162499  50.8588791  13.4757309  70.7214584   5.9536543  46.3580971
  70.8896942   6.8848877  46.2141075  69.9374390   5.9339581  46.9068794
   0.9499645  71.1840973  33.0953407   0.6146320  70.2988892  32.9532585
   0.1804456  71.6939468  33.3485641  15.0572395   7.5730491  59.6781654
  15.0669670   8.4728107  60.0046120  15.7739296   7.5403981  59.0445061
  53.6327286  29.7195702  25.6070938  52.7513580  29.4258385  25.8376083
  53.6704292  30.6261635  25.9118900  43.7284050  31.1862850  68.5534744
  43.6181831  30.4128246  68.0004425  43.9924698  30.8365898  69.4044800
  61.7845306  18.9965363  48.9508286  62.0618668  18.1786461  49.3635902
  60.8434486  19.0428562  49.1194916  68.5279007  70.1987152  62.9167976
  68.3906784  69.3779984  62.4436951  68.4631653  69.9563828  63.8405495
  37.7761993  64.4023285  40.8334656  38.1402397  63.7529526  41.4351425
  38.5115318  64.6470642  40.2716599  53.6491241  63.4745369  57.1694489
  53.5554848  62.5587006  56.9073143  53.2829323  63.9716606  56.4380112
  47.5555038  12.8884621  19.8572178  47.9623985  13.7206554  19.6161327
  47.2664070  12.5133457  19.0253868   3.3666859   0.7286877  32.8594093
   2.4137714   0.6470383  32.8983841   3.6832964   0.1862320  33.5817184
  85.2902985  40.3738251  13.5150537  84.4141998  39.9916420  13.4639215
  85.3490295  40.9418449  12.7468500  41.5449791  55.1810951  70.1666870
  42.0480080  54.5649681  69.6341553  41.5123024  54.7770462  71.0338135
  38.0021515  28.4937439   3.5393136  38.4636154  28.6526833   4.3627338
  37.9228783  29.3592491   3.1382530  25.8905792  67.9585724  50.4413033
  26.0944366  67.5078735  51.2607803  25.6242714  67.2599869  49.8435707
   8.0028477   1.6441374  32.5069656   7.1046538   1.9682140  32.4402275
   7.9177461   0.6917515  32.4627991  24.5442772  65.2428513  62.7474251
  24.2981243  66.0633926  63.1744614  25.3444500  65.4538574  62.2663536
   7.1140127  28.7369957  22.6124554   6.9099712  27.9937210  23.1800308
   7.9615145  28.5173225  22.2255249  60.4256248   6.2204576  20.9988289
  59.8947258   6.9053030  21.4054794  60.8071785   6.6395183  20.2274437
  51.2577095  36.0409546  79.0854340  51.7677422  35.2580032  79.2929993
  51.8900032  36.7580643  79.1322174  21.5766792   4.4709353  77.3710861
  21.9954796   5.0387344  78.0179596  21.5125160   5.0114875  76.5837402
  72.9875336  43.7024727  11.3976336  72.7958984  43.6922531  10.4598675
  73.7264252  44.3047256  11.4845543  80.0099945  10.7451487  17.5806103
  79.1551285  10.3673162  17.7871971  80.2723083  11.1969709  18.3826580
  12.0987415  48.3621788  58.0295448  11.7200346  49.1002197  57.5519371
  11.9948339  47.6160622  57.4389915  50.8819008  44.0832787  29.4025288
  51.2544479  44.9512329  29.5577583  50.6631279  44.0797005  28.4706726
  41.3691826  14.3535423  67.7405701  40.9870987  14.8733406  68.4477158
  42.3066673  14.5417471  67.7845612  11.3982220  30.3433685  63.0106964
  12.2912731  30.3702126  63.3541641  10.9503126  31.0654507  63.4513817
  62.4439545  44.9327507  47.6347046  62.2313957  45.1046638  48.5520363
  61.9527245  45.5939064  47.1470566  65.8916473  44.8855133  52.5707703
  65.2740326  44.8542709  53.3013954  66.2056732  43.9854698  52.4839554
  52.7626305  43.2392120  67.4817505  51.8511047  43.3213921  67.2014008
  53.2677269  43.2818871  66.6697845  66.6642990  43.2708168  70.4745865
  67.4179916  42.8628159  70.9008636  66.2481003  43.7859650  71.1656952
  21.6267662  16.0293941  84.1172638  21.6622810  15.1904306  83.6577988
  21.7639389  16.6836643  83.4321747  27.3812351  50.8836975  30.1575527
  27.3013172  50.5009804  31.0312653  28.1771107  51.4137917  30.2001534
  50.8399963  25.6225567  29.8864136  51.7242432  25.5702572  30.2491817
  50.8771667  25.0960026  29.0879211   2.9995177   0.7051766  62.5845833
   2.3987391  -0.0385504  62.6311340   2.8383706   1.0896769  61.7229424
  65.9447708  19.3134384  22.7239819  66.7120514  19.8593140  22.5521183
  65.4918900  19.7560177  23.4417896  25.6881447  52.1878471  19.5973072
  26.1641464  52.6262093  18.8919735  26.2236233  51.4230347  19.8083897
  78.4683380  43.9268036  34.7985229  78.1730728  43.9061317  35.7088127
  78.8622894  44.7929077  34.6941223  74.4433517  38.5829010  74.7605743
  75.2705841  38.8087425  74.3352509  74.6058044  37.7294540  75.1624069
  81.0644989  50.2588844  51.4346199  80.6804657  51.0611839  51.0809669
  80.6185913  49.5532112  50.9661903   7.7667298  61.5011635  88.1453323
   7.7279549  60.5458679  88.0990753   7.8288417  61.6933289  89.0809860
   5.7360120  10.4857864  68.1570816   5.7118902   9.8935680  68.9086990
   6.4223599  10.1292305  67.5931473  50.0874557  20.6890888  85.8351517
  50.4135017  21.1944141  86.5798492  50.0510521  21.3192902  85.1156006
  17.9780312  60.6770172  63.9302025  17.7660217  60.9242897  63.0301247
  17.2319584  60.9844170  64.4450989  19.2192497   1.9662733  31.5151215
  18.6679993   2.7023020  31.2493820  19.3958912   1.4934472  30.7018166
   8.6843224  68.7574463  75.4309692   9.3136168  68.4976501  76.1038132
   8.9147587  69.6632538  75.2244644  18.8176765  50.8515701  75.4812317
  18.0819283  51.0363045  76.0649948  19.4770260  50.4494858  76.0467606
  41.3792496  44.0909767  59.8914223  41.4349289  44.1849060  60.8423767
  40.8233871  43.3230972  59.7587280   9.8259144  59.6861649  46.4883995
   9.4179125  59.4396362  47.3184509   9.6318216  58.9564819  45.9000778
  20.6641598   3.1438494  33.4348869  21.4254856   2.6504860  33.7401886
  20.2976723   2.6078093  32.7316246  56.7630196  22.8788891  28.8503170
  55.9109955  22.7677021  28.4285049  57.3978500  22.6450367  28.1731644
  75.2464600  51.4374466  21.4320850  76.0456696  51.3295898  21.9477119
  75.2996750  50.7556305  20.7623653  66.6022034  13.0375128  42.2648544
  67.1602936  12.8521566  41.5096016  66.6929855  12.2664518  42.8247261
  79.4326324  46.9883423  69.3126831  78.8277817  46.9248466  70.0518417
  79.7420883  47.8939018  69.3335266  54.9130325  27.9854813  47.0183563
  55.1362419  28.6432266  46.3597374  55.7580566  27.6859245  47.3536682
  47.1804161  50.3677177  49.9562874  48.1367416  50.3716049  49.9969826
  46.9196472  49.6396255  50.5203018  75.6030426  48.5811157  60.1729355
  76.4242477  49.0640526  60.2657661  74.9350052  49.1773224  60.5113106
  63.6775246  23.6978512  29.2374020  64.3586731  23.0794735  29.5017529
  63.6294899  23.6087875  28.2855663  61.6433487  13.8578873  51.2617912
  61.1591988  13.6451559  52.0596466  61.0119209  13.7226276  50.5552216
  10.0119352  71.2397308  33.6889229  10.0551071  70.8217010  32.8289108
  10.9202986  71.2628174  33.9898796  28.6611938   3.8731480  59.0669670
  28.4713345   3.0650313  59.5435524  27.9400425   4.4601855  59.2940369
  79.6939621  40.0926743  53.8854218  79.7061310  40.9995308  53.5793304
  78.8869324  40.0228233  54.3953819   5.3585906  11.6270056  30.3957291
   6.1465964  12.0828629  30.0999699   5.0041723  12.1855869  31.0875435
   0.2355119  22.7551250  86.4323044   1.1273593  22.4194031  86.3421326
  -0.0474187  22.4544544  87.2958908  66.7527542  51.4218369  80.4659805
  66.5001984  51.0078545  81.2912445  66.3822861  52.3029747  80.5168152
   5.8255510   2.6753614   9.4772434   5.4961772   3.5661569   9.3579626
   5.8852735   2.5671778  10.4264336  -0.2198834  39.4089890  65.9615326
  -0.1354016  40.3574257  65.8637238   0.6788049  39.0986404  66.0723190
  32.5350990  46.8471603  51.3802185  32.2203674  46.4679871  52.2008286
  31.9445343  46.4977074  50.7128716  57.1600838   8.7005472  61.9965248
  57.0643921   8.4661207  62.9196281  57.2909203   9.6487446  62.0025291
  74.6193085  25.7266159  38.9570847  74.7102661  26.3113689  39.7094307
  75.0312271  24.9094238  39.2377090   3.6420434  68.5297852  46.6241684
   3.9707663  67.6859512  46.9341812   3.9309020  68.5792236  45.7129326
  61.8322792  35.5889740  16.4427357  62.5332870  34.9922371  16.7048931
  61.8476067  35.5707817  15.4858322  35.7925491  26.4038601  84.4760590
  35.1273727  26.3367195  83.7910309  35.2949753  26.5614338  85.2784424
  67.3612213  68.1293259  69.1330566  67.6695099  68.0060806  68.2352829
  67.3864059  69.0767746  69.2670059  66.5137787  11.6007519  24.6570778
  65.5788956  11.4998856  24.4780560  66.7976456  10.7329006  24.9442768
  19.6914482   3.4895961  46.5526505  20.4286690   3.1025867  46.0804596
  19.2676430   2.7478530  46.9844322   3.1430855  63.4005547   4.5309262
   3.7989564  62.7185669   4.6756830   3.6360345  64.1317902   4.1587257
  43.7525101  43.1251564  39.5439301  44.6093292  42.8916550  39.1867561
  43.6037865  44.0215683  39.2430077  61.5471077  58.0694351  55.9153671
  61.7701721  57.2042236  56.2587128  60.6276894  57.9958153  55.6594658
  54.1498070  60.5688324  51.7977257  54.0887604  60.0852127  52.6215096
  55.0538673  60.4400558  51.5108147  10.0139885  51.7745819  33.3809471
  10.3931036  50.9375496  33.1128387  10.7607412  52.2879639  33.6892204
  56.6423035  43.8112030  22.6061249  57.0225754  43.3004875  21.8914242
  57.3932266  44.0753326  23.1377048  28.6778545   2.2790635   6.0484657
  28.0011520   1.8130205   6.5394959  28.3370667   3.1687908   5.9563723
  18.8316364  17.2926350  23.2907410  19.5231094  16.6993141  22.9973679
  19.2741318  18.1318302  23.4179554  23.0118217   8.6618690   1.5288160
  23.2935219   7.8648348   1.0798028  23.1383305   8.4706764   2.4581556
  63.2716713   6.0128579  85.8587799  62.9086075   5.3065877  86.3931961
  64.1775589   5.7493744  85.6970062  64.2924957  58.1360054  27.1900864
  65.2375946  58.0447617  27.3113003  64.1960526  58.4599724  26.2945557
   6.5181713   6.8618941  56.4921875   7.1933637   6.2823920  56.8450661
   6.9547567   7.7084341  56.3973427  24.8453465  42.1493454  70.9303360
  24.1261330  42.7353020  70.6945038  25.5797653  42.4424248  70.3909225
  47.0885696  61.0785828  63.8051453  47.0245857  60.1881981  63.4596710
  46.1896820  61.3098831  64.0391006  64.6728973   3.6251931  55.5223122
  64.8145523   2.7046912  55.3013077  63.7230072   3.7370982  55.4847298
  62.5945091  31.4396629  55.6288948  62.3705673  32.3347244  55.8837433
  63.5314445  31.3662300  55.8105240  73.1781845   7.5966763  42.1785431
  72.5487061   7.0157495  42.6057663  72.6603241   8.3561525  41.9116173
  16.4933529   9.7081289  57.1683769  16.7888966   9.1324167  56.4630852
  17.2932701  10.1256390  57.4878273  69.4009933  61.1241264  31.3820553
  68.5848389  61.6242142  31.3762703  69.5237198  60.8554420  30.4715729
   6.0876398  53.3043976  17.2422085   6.0882797  52.9165535  16.3671055
   5.1808167  53.2257576  17.5383835  78.2663879  61.9481659   9.0456810
  77.7318192  61.8434715   9.8327665  79.0670700  62.3720932   9.3545971
  32.5602074  15.4910803   5.1852770  31.8525124  14.8469334   5.1635084
  32.5522423  15.8254337   6.0821471  51.4452400  54.7804680  70.6820908
  51.1967010  55.3577080  69.9601059  50.6950874  54.8034019  71.2762070
  41.4709511  71.8657150  36.3763123  41.6172714  71.5147095  35.4978943
  41.4647713  71.0951767  36.9441681  82.3350067   7.4881721   4.3320255
  81.4240723   7.6472707   4.0848074  82.7373199   8.3567104   4.3359127
  60.1379166  63.8075714  76.2342987  60.4978600  64.3773956  75.5546112
  59.3617477  64.2709579  76.5490494  66.3481140  60.4268608  68.1420135
  66.3987656  60.2833939  67.1969757  65.7712479  59.7319870  68.4591827
   6.3990622  63.2938766  54.9497986   6.1727762  64.1535797  54.5949249
   7.1516418  63.4596596  55.5175743  79.6410751  46.8160820  29.0807362
  80.2233124  46.1875343  28.6539268  78.8036957  46.3576775  29.1506500
  12.9491472  12.5140562  81.7075729  13.3325386  13.2373657  82.2036209
  12.9136543  12.8340998  80.8061600  19.1577682  21.9878216   9.6605434
  19.2722549  21.3968506   8.9163141  18.9138412  21.4139462  10.3867674
  59.9745255   6.7062292  77.1226578  60.8834229   6.8554020  76.8621140
  59.4863853   7.4167080  76.7065201  78.7089157  55.5799179  18.8177948
  79.4739609  55.0281792  18.6549606  78.1768188  55.0759201  19.4335041
  48.0869255  66.1158218  31.4504070  47.7018967  65.4733734  30.8543854
  48.8962669  66.3885880  31.0182095  50.4023056  44.1574707  52.8596878
  49.9752426  43.4654999  52.3546867  51.0697594  43.7022362  53.3730087
   7.0906553  69.7895966  69.9203110   6.2227898  70.1551132  70.0918961
   7.3052006  69.2992477  70.7138824  29.7319183  25.0247841  76.8162918
  29.4215240  25.8613281  76.4697647  30.6203480  24.9373112  76.4709396
  72.4382477  40.7872314   0.7107370  72.1347198  41.6701279   0.4995652
  73.3924789  40.8436890   0.6608959  12.6089201  23.9649601  54.0181503
  13.1149492  23.2344074  53.6625404  12.1650944  23.5989513  54.7831955
  73.3180618  15.5850878  55.7882538  73.6734161  16.0709076  56.5325203
  72.5878906  15.0861597  56.1545219  71.1241379  63.1678848   1.2865111
  71.9312363  63.0143204   0.7953523  70.6729355  63.8555527   0.7968514
  63.6138344   5.7351360  73.8219528  64.3316193   5.8488708  73.1989975
  63.8427696   6.3033004  74.5574875  85.2431564  46.4127121  30.0218887
  85.0702515  45.9365044  30.8340244  85.1212311  45.7610016  29.3314972
  61.7750664   4.3171225  28.1149292  62.4229584   3.7569733  27.6874924
  61.4848976   3.8114753  28.8741093  13.2014389  35.6565247  20.4683418
  12.4717274  35.7788010  19.8610516  12.8893194  34.9972420  21.0881462
  44.1688080  18.2322578  63.1543884  43.9999046  18.8503513  63.8654900
  44.0959435  17.3701973  63.5639915  61.9540176   2.4059670   3.5255723
  61.2453156   2.3810055   2.8826497  62.6253357   2.9552858   3.1208339
   8.8214617   5.3235135  72.0467453   8.9460211   4.5770884  71.4605942
   9.7073536   5.6408663  72.2220001  17.0008831  68.9738083   0.8363971
  17.5720310  68.4688110   1.4151901  17.5920448  69.5709763   0.3779746
  70.6245880  63.1979980   6.0909996  70.9819641  63.8483047   6.6956658
  70.1399384  63.7121964   5.4452863  28.2344894  32.5713158  80.9520874
  27.9132786  32.5129776  80.0522842  28.0490284  33.4729309  81.2146301
  69.2077484   8.0031099  85.7447662  69.8580399   7.5463943  86.2783966
  69.2612686   8.9151087  86.0304642  12.8011427   8.3773079  73.1155548
  13.3330145   9.0263109  72.6549683  13.4385147   7.8014445  73.5378952
  65.6263046  37.4687958  29.6243706  66.4528046  36.9990044  29.5129185
  65.3143692  37.6197052  28.7320938  84.8823929  41.6409187  62.3514061
  85.2881546  40.7836189  62.4803467  84.8219147  41.7367630  61.4009361
  17.8356075  46.6107292  57.8689651  17.7955856  46.2245026  56.9940567
  16.9218330  46.7807236  58.0977592  16.0612183  45.7999153  17.4596214
  16.4739017  46.6563263  17.3478928  15.3117113  45.8157387  16.8644581
  74.0726929   0.8773423   6.8091879  73.9416656   0.3251043   7.5799646
  73.5202408   0.4822018   6.1347275   6.6691213   4.7572823  49.8780174
   6.7384892   4.7861834  50.8322601   5.8129311   5.1409607  49.6883812
  78.5903473  51.8171158  71.2298126  77.9981918  51.9245567  71.9741516
  78.1764526  51.1438980  70.6897125  38.7797165  49.8635063  25.2721958
  38.0820007  49.4823914  25.8052807  39.5703888  49.7574692  25.8011780
   6.5956492  20.0561256  66.5760269   5.9330215  19.5232220  67.0155334
   7.0378294  20.5218945  67.2857895   5.5728312  34.7934113  33.7305908
   6.1905994  35.2170296  33.1346550   4.8164186  35.3797302  33.7479553
  11.9595661  45.2091064  67.7113647  12.0556393  44.4235878  67.1728897
  11.5366306  44.9000473  68.5125122  51.6407700  70.6715393  46.8401871
  50.7082863  70.6075287  46.6337662  51.8234482  71.6111221  46.8342781
  48.2625008  63.8551483  75.8110123  48.7015991  63.3141747  75.1546783
  47.4072685  64.0498047  75.4277039  24.1856861  53.4336281  66.7069244
  23.8321323  53.3925858  65.8183594  24.3092022  54.3682518  66.8726196
  35.5661430  47.0174065  14.1929636  35.7694016  46.3399048  13.5480537
  35.8009224  46.6255379  15.0341234  80.7118454  49.1548767  39.0609436
  80.0343628  49.4092789  38.4344254  80.5052795  48.2466125  39.2814369
  69.9832535  24.1491013  54.3808594  69.2040176  24.6578484  54.1567841
  70.1003723  24.2915401  55.3201256  57.9241219  58.8179398  23.9687843
  58.2217407  58.4157333  23.1527672  58.5736237  58.5498238  24.6187763
  18.5970764  40.5882607  23.9240837  19.0849895  41.2259331  23.4029865
  19.0127544  40.6149445  24.7859020  65.3738022  31.2313576   6.2759337
  64.8295746  30.5998039   5.8056278  65.0020905  31.2581196   7.1576056
  19.6196594  60.4734688  72.5484161  19.7770252  60.8935089  73.3940125
  18.9551430  61.0202904  72.1293335  78.6502151  60.1170273  16.1735878
  78.0019302  60.2095947  16.8717213  79.3895798  59.6745224  16.5904388
  84.5429840  14.7446585  73.0401688  84.6531143  13.8084269  73.2062149
  83.5981750  14.8880978  73.0948868  47.3267403  64.4272385  36.3559914
  47.2690773  63.4717865  36.3594131  46.8736115  64.6916733  35.5553741
  65.9432526  33.9769745   5.8702941  66.8140717  34.0437851   5.4785752
  65.6972351  33.0595016   5.7521634  44.8212357  64.7630310  60.6454010
  44.5664368  64.5382767  59.7505264  44.6786880  65.7076874  60.7049255
  52.2309341  10.4496956  35.2200279  51.5817642  10.5477648  34.5234718
  52.1464653  11.2486563  35.7403717  45.7084427   6.0468235  84.2839508
  46.4469337   6.5687008  83.9700928  45.9328537   5.8348751  85.1900177
   4.1824684  64.3031387  19.1228447   3.7571514  63.5727119  19.5720825
   5.0124211  63.9421158  18.8112774  41.7896233  29.7693424  83.9470901
  42.5949287  29.3465576  83.6488190  41.8723526  29.7966881  84.9003143
  85.2949524   2.4549413  44.2664909  84.3384323   2.4903538  44.2733002
  85.5154572   1.8080925  44.9367104  76.5019150  67.6283112  80.6970825
  77.2620926  67.2560577  81.1440659  76.8361206  68.4196930  80.2748718
  51.0081940  44.4967995  49.8259850  50.4581909  44.0260811  49.1997643
  51.0231705  43.9352684  50.6010284  76.6007690   5.4884453  42.0402679
  75.7818222   5.4579763  42.5348625  76.7828903   6.4223380  41.9358253
  10.2114115  42.3872528  59.7183456  10.0438604  41.6099319  59.1854935
  11.1407280  42.5735626  59.5845947  72.7649460  49.8769875  25.1974926
  73.3259888  50.6297607  25.0109444  72.7826614  49.7955360  26.1510563
  17.8165398   2.1231990  73.3087921  18.1036816   1.7585407  72.4716568
  17.8365593   1.3809404  73.9128494  49.8098335  56.7865829  26.0673828
  49.9476624  55.9382668  26.4888000  48.9175682  57.0329437  26.3111057
  21.9006386  55.8765373  39.3371620  22.2424564  56.6249733  38.8480453
  21.7119026  55.2189255  38.6677170  79.2291107  35.7338409  81.3543701
  79.6427765  35.4581490  80.5363846  78.4694061  35.1585236  81.4443588
  15.2817650  66.0448914  56.2101593  15.7383928  65.9923630  57.0497818
  15.8865509  65.6479263  55.5833549  25.6202145  60.3285561  42.0402412
  25.0604229  60.8508148  42.6147919  25.3841839  60.6092644  41.1560898
  56.6695595  15.4643679  41.9829788  56.9271927  15.5748339  41.0677452
  57.2229843  16.0799923  42.4635658  63.2116280  17.0154915  27.2785072
  62.4314232  16.5356407  27.5564594  63.0011940  17.3251266  26.3975544
  46.9572029  63.4468460  17.0020485  47.4332123  63.6507797  17.8070679
  46.4385567  62.6724510  17.2201118  25.4052467   6.2820082  11.6093779
  26.2385006   6.6304512  11.2923470  25.1935863   5.5752892  10.9994764
  15.5463419  38.6632614  68.7156906  16.2472763  39.2996826  68.5746689
  15.4801388  38.1919212  67.8852158   2.2138579  34.8307419  41.3299904
   2.2686517  35.1288223  42.2379456   2.9677324  34.2508087  41.2223854
  75.0116806  65.3943787  40.9547577  74.5298615  65.0730286  40.1926460
  74.3396454  65.5323715  41.6222610  78.5282440  46.6371269  85.7484055
  78.4336319  45.7007523  85.9230042  77.7119675  47.0235786  86.0655518
  21.7991638  38.4980698  10.9613571  22.0079136  38.8267212  10.0869188
  21.2927246  37.7013626  10.8032026  77.6944504  39.1326714  56.0331688
  76.9296112  38.9857407  56.5896378  77.5322189  38.5969086  55.2567253
  76.8176270  61.7887955  74.4863586  77.4268188  61.3744774  75.0974731
  77.0067291  61.3767319  73.6433411  74.1206207   3.5697463  46.0326309
  74.9048538   3.0351951  46.1569939  73.4394684   2.9427443  45.7894745
  25.4493523  49.1554260  63.8558998  25.9067497  49.1061172  63.0165024
  24.5927048  49.5242310  63.6405602  80.3253326  13.2749329  77.5588989
  79.4580994  13.6724558  77.6370850  80.7592773  13.4821320  78.3865433
  47.4944153  41.6342850  58.3129196  48.2681808  41.2988968  57.8601112
  46.9500542  42.0019493  57.6166954  13.1073179  30.3422966  88.0944443
  13.2341871  30.2330799  87.1519928  13.9648848  30.1528015  88.4751053
  60.7557182  17.9623013  58.4988098  61.3173180  17.5004444  59.1213264
  60.2780685  18.5972843  59.0325470  52.0100021  64.2799911  54.7173119
  51.0873833  64.0492325  54.8257523  51.9967804  65.1959991  54.4398651
  72.4852066   2.4116280  36.9738007  72.1171417   3.2788196  36.8042755
  71.8003845   1.8025891  36.6975403  61.4447479  13.6089706  21.5702152
  61.0931091  12.8124170  21.9678116  60.6884232  14.0233717  21.1549129
  55.3469925  12.0263691  25.4302406  56.1142616  11.4955406  25.2163410
  54.6334267  11.3936930  25.5125561  25.3012238  36.3535652  68.9763641
  25.0703697  36.8041611  69.7887039  26.2173500  36.5862808  68.8254013
  29.7546177  46.9603424  20.6441555  29.4962139  47.2026672  19.7549210
  29.5591640  46.0252190  20.7039413  24.7787285  45.0277939  88.6671982
  25.1874428  45.5340958  89.3692245  25.5081139  44.5789261  88.2397079
  30.2136574  64.5690079   4.6776075  29.3433533  64.1732254   4.7241054
  30.3038883  64.8426132   3.7647929  47.9419365   3.8132899  25.5483627
  48.4328041   3.0012832  25.6745625  47.0301781   3.5323946  25.4707317
  14.0499992   5.5475373  45.3817825  13.5022573   6.3325262  45.3837738
  14.9453239   5.8803692  45.3197441  63.1224403  31.2359047   2.7810631
  62.9428368  30.4675770   2.2391710  63.3888779  30.8754921   3.6268446
  71.8050995  58.7587852  10.3167534  71.6117020  57.9823151  10.8420391
  72.4599228  58.4630928   9.6842985  10.2218390   6.5559778  89.0405655
  10.3764811   6.9708014  88.1919022  10.9083118   6.9073992  89.6075668
  48.7938156  54.2862549  10.8164930  48.3534355  54.2115479   9.9699030
  48.6055946  53.4582253  11.2582750  71.7173386  38.7467995  24.1306305
  71.0011902  39.3630753  23.9770927  71.5004120  37.9878235  23.5892143
  24.1151981  57.1359062  63.3637276  24.1457119  56.8717537  62.4442024
  25.0061169  56.9936142  63.6834908  35.8532944  57.8638916  20.2656708
  35.3598785  58.3445358  19.6010265  35.4556427  58.1265945  21.0957890
  55.9580765  55.6837692   3.9327819  55.7955284  56.2777100   3.1999485
  56.8877373  55.7965965   4.1308627   6.6083970  60.2697182  53.0603714
   7.0224543  61.1325378  53.0422668   6.2769008  60.1818390  53.9540253
  74.0217819  22.9363060  20.8379498  74.7895508  23.3888130  21.1872425
  74.0595779  23.0937481  19.8945446   1.6026987  47.5245323  26.8756828
   1.7670201  47.8502464  25.9907284   2.4718027  47.3205299  27.2210426
   5.5513096  64.0533905  74.7678223   4.9087987  63.9885712  74.0612717
   5.9737682  64.9012451  74.6303482  62.7048187  27.0518799  23.7538242
  62.9323883  26.7929020  22.8608665  62.0747910  26.3912163  24.0416107
  42.2732124   2.7226400   5.4950070  41.6110649   2.6739771   6.1845179
  41.9542694   3.4050434   4.9043860  50.0855904  29.5229034  36.4786568
  49.2154999  29.1376514  36.3749733  49.9170418  30.4319210  36.7266693
   1.5817026   4.1720943  85.9366837   2.3076773   4.6041760  86.3866806
   1.8889916   4.0623813  85.0368118   9.3056335  25.5207653  80.9658890
   8.5642099  25.2070274  81.4836655   9.2258377  26.4744072  80.9866943
  24.8664551  48.6010475  81.0892639  23.9829636  48.6613045  81.4526367
  25.3774071  48.1671906  81.7725830  40.6988487  33.5845947  74.6787262
  41.3963547  34.2259903  74.8141098  41.1477356  32.7391777  74.6779022
  54.3913574   3.9597819  20.3355274  53.9308205   3.1206956  20.3270397
  53.8207855   4.5511351  19.8446312  15.7830973  44.4155807  13.9067183
  15.0376644  44.2310677  13.3353014  15.5242414  45.1984863  14.3928137
  81.7677383  43.5327377  80.2469864  81.8694687  43.3615303  81.1832428
  81.9159164  44.4742203  80.1581802  43.3816071  54.1255112   5.6488242
  43.4231644  54.1242752   6.6051207  42.8979301  54.9223175   5.4311371
   8.5741558  38.3645363  86.7852402   9.4632521  38.7169914  86.7462845
   8.3261538  38.2384529  85.8693619  28.9842587   2.3142221   9.5952501
  28.4588127   1.5419244   9.3862171  29.8513432   1.9652624   9.8016987
  61.2128296  62.9744339  46.3337746  62.0124893  63.4355583  46.5870323
  61.0051117  62.4231339  47.0881958  75.3209991  19.5582180  84.6565704
  76.0885162  19.2140179  85.1133804  75.1660614  20.4128113  85.0589294
  47.5982895  25.6667175  77.6720352  48.3663521  25.5147305  78.2226868
  46.8814583  25.2343636  78.1362076  27.0150356  57.7385101  31.6079807
  27.0761547  58.4433937  30.9632816  26.1666679  57.8731194  32.0303345
   5.6683555   3.2041430  77.5670471   6.1791735   2.8968093  76.8181534
   5.3091335   4.0447464  77.2831879  21.4102707  24.0337791   9.9160833
  20.6064415  23.7151108   9.5055475  22.0997677  23.4740543   9.5589638
  23.7579517  35.5603256  83.1746902  23.7660656  36.3340988  82.6112747
  24.3221149  35.7946892  83.9115906  46.8762321  65.9115524  48.7148933
  47.8146248  65.7355347  48.7832260  46.8139801  66.8657990  48.6727638
  70.0686188  28.3723278  26.2862663  70.2862930  29.1791992  26.7529659
  69.8589172  27.7447186  26.9779053   8.8169270  18.8194942   4.9725046
   8.6106977  17.9270744   5.2505131   8.3059788  18.9453812   4.1729321
  66.1315002  59.2510033  80.4451523  65.4724579  58.7575836  79.9568558
  65.6756287  59.5435028  81.2343674  28.6268425   6.2927318  31.3155136
  28.2581635   7.1645350  31.1731491  29.5400429   6.4546180  31.5523472
  34.3051987  44.8994064  57.3039932  33.6282120  45.0301743  57.9679337
  34.4241104  45.7635002  56.9097481  38.5494003  30.1616325   8.6135159
  38.3214073  29.7731819   9.4581203  39.3442879  29.7010098   8.3447952
  57.2279625  57.8393898  19.1991825  56.3358116  58.1734047  19.1057243
  57.1262360  56.8879051  19.2228012  12.0886517  66.9106750  71.4765549
  12.8577909  67.4565964  71.3133774  11.8801413  66.5295563  70.6236191
   0.4247342  39.0460091  18.1302528   0.7944464  39.7490158  17.5960941
   0.9511523  39.0504799  18.9296875  63.1422424  36.0490646  77.5616302
  62.9475021  35.1119080  77.5683899  63.8968964  36.1326790  76.9787598
  58.1404495  23.7331581  20.7435379  57.8074417  23.8249912  21.6362324
  57.4926033  24.1804218  20.1990356  65.3105240  13.0444298  32.0493774
  64.4053116  13.1395826  32.3456268  65.3065262  13.3836479  31.1543102
  78.0676575  27.0922852  71.1420135  79.0050583  26.9151936  71.2204208
  78.0157166  28.0299911  70.9569702  31.7983208  36.2789421  14.4481297
  32.6832581  35.9247780  14.5358057  31.2743511  35.5403023  14.1381235
  13.0530815  67.5552063  75.8902283  13.4825821  68.3942108  75.7234268
  13.3888531  66.9743423  75.2075195  16.1955528   2.4732385  55.4923744
  15.8246994   2.1938913  56.3294334  15.5150690   2.2722015  54.8499146
  59.0325203  55.1361046  69.1064301  58.2776833  55.6567230  68.8318100
  58.6747475  54.5079727  69.7338638  32.2498398  45.1794586  86.4227295
  31.4276505  45.2237358  86.9108658  32.0660439  44.5821991  85.6976547
  82.8595200   1.3018925  77.6247330  82.9981918   0.7965501  78.4257507
  83.0948639   0.7003855  76.9183121  58.3373260  49.6092033  50.2641869
  57.5960464  49.6295128  49.6589394  59.0970383  49.8148537  49.7194176
  42.0820465  70.4969788  22.8311977  42.6915627  71.2016373  22.6117001
  42.5998650  69.6966400  22.7442474  63.3999405  25.0335464  84.0769424
  64.1667023  25.2334442  84.6139297  63.7080231  25.1265659  83.1754608
  79.8729706  42.5634308  58.7391930  79.2567673  43.2826004  58.6002045
  79.3391876  41.8579140  59.1046410  64.4015045  66.3637466  12.5705519
  64.4607849  65.4335175  12.7882671  63.6902351  66.4154434  11.9320755
  80.2127228   8.6055555  83.9045868  80.4729843   8.5325928  82.9863434
  80.8120346   9.2549229  84.2725296   0.4222108  52.1878853  20.0925007
   1.0788786  51.7838135  20.6597271   0.6752025  51.9243965  19.2077389
   0.7612677  22.8062458  33.7796288   0.5986902  22.0391846  33.2306137
   1.2631687  22.4679890  34.5211868  69.4011230  35.7492180  34.0660896
  69.2875824  36.0564651  33.1666794  70.2837448  35.3792000  34.0831680
  42.9834404  59.2157364   5.9680023  43.2746925  59.1194191   5.0612893
  42.4893112  58.4157448   6.1471086  42.1086311  13.4398470  18.5238285
  41.4074364  12.8165026  18.3340855  41.9147835  13.7572193  19.4058323
  32.0607529   0.6286753  34.5219345  32.0542603   1.5538572  34.7673492
  31.3542919   0.2392398  35.0371857  21.5478592  10.2333279  22.4626217
  21.1028671  10.1032171  21.6251926  20.9538670   9.8548613  23.1108265
  43.3351822  33.7824020  71.2785568  44.0692139  33.7393265  71.8913956
  43.3091850  32.9149933  70.8746262  14.3471222  69.8173676  75.4706573
  14.4872532  70.2489319  76.3134766  14.5450497  70.4914856  74.8205566
  36.4573097  68.1293182  42.9598541  36.1559944  68.3183594  43.8485107
  36.7402077  67.2154465  42.9921989  33.7275352  51.1958694   9.6104593
  33.2598953  50.4952583  10.0650892  34.4992256  51.3597832  10.1525497
  11.2262306  39.6221161  74.9429016  10.4714603  39.0450668  75.0593643
  11.9181795  39.0480652  74.6144180   1.6910652  67.8578796  54.8475380
   2.3603177  67.3397598  54.4004593   2.1746812  68.3572693  55.5055351
   2.9659467  42.5585709  42.8832855   2.3940113  43.3109055  43.0353203
   2.4476929  41.9709816  42.3333931  72.5243073  16.2451839  60.4790268
  73.1501770  15.6425819  60.8807640  71.9042892  15.6769552  60.0219421
   0.5769721   8.8548651   1.1631012  -0.2358167   9.3002090   0.9237803
   0.4440559   7.9484291   0.8857223  13.8192816  37.7704048  17.4086056
  13.5500526  38.1048660  18.2641087  14.7028713  37.4311028  17.5513401
  34.4848099  15.1362934  79.6103592  33.7889633  15.5358381  79.0884476
  35.0440559  14.6983433  78.9687424  82.5444717  61.0959702  43.5334854
  81.8779907  60.6043129  43.0535812  83.3739624  60.7031555  43.2616692
  15.6159163  47.5908890  51.9266129  16.4010391  47.2461433  51.5012131
  15.0790529  47.9217949  51.2065392  44.0983696  38.1433601  65.7700958
  44.4924164  38.5280380  66.5530243  43.6537399  37.3572769  66.0872803
  74.3771591  17.1146526  45.4089241  74.3687439  16.8871212  44.4791985
  75.0369034  17.8044472  45.4807281   2.7115428  38.7959404  75.9632721
   3.2255955  38.9450722  75.1697159   2.0748458  38.1261330  75.7138596
  60.2321625  71.8106918  61.6050301  59.7586212  71.1488495  62.1089630
  60.1651459  71.5139923  60.6974449   5.4880166  20.5911198  31.4446735
   5.0943542  19.8049526  31.8230972   6.3656487  20.6264095  31.8251324
  53.3891258   0.9522209  82.5789642  53.8105278   0.1067030  82.4248505
  53.1445808   0.9328480  83.5041962   7.4059954  62.7231560   7.9151473
   6.9769082  62.9149628   8.7490101   7.8478913  63.5390205   7.6799345
  57.5606041  38.3585281  77.7306976  57.4336357  38.7438850  78.5976486
  58.5080109  38.3794022  77.5957260  49.9899521  46.3685684  20.1214066
  49.5248184  45.7788620  20.7148094  50.6495056  46.7908974  20.6717358
  57.6680336  22.5788727  23.5613213  58.4831848  22.1048374  23.7257843
  56.9795151  21.9320469  23.7155628  32.0592728  57.3402748  79.8724442
  32.0082436  58.1721802  80.3431473  31.6959743  56.6976433  80.4817657
  52.7143822  49.1401939  16.5582333  53.6268234  49.2729874  16.8152332
  52.3857307  50.0209351  16.3779182  24.9613628  41.1628838  87.2169189
  25.3213387  41.0997887  86.3322296  25.2981186  40.3888741  87.6682892
  32.0329857  13.6401367  63.4647293  31.9302273  14.3482513  64.1005325
  31.6440945  13.9825706  62.6599121  74.9203262  31.3029404   2.3387671
  74.6875305  31.8090134   3.1171806  75.7162628  30.8331165   2.5877323
  82.6428528  37.2601318  51.1434326  83.3640366  37.6728630  51.6186028
  82.1663055  37.9908638  50.7495232  45.9510307   1.5807705  88.9037781
  46.0340919   1.9548481  88.0266266  45.9433403   0.6343408  88.7607956
  63.5583801   7.8476686  12.3760900  63.1003265   7.0221643  12.2180996
  63.3061485   8.0950890  13.2656946  59.2056541  46.8617592  69.0601654
  58.3829384  47.3332558  69.1907806  59.8248596  47.5344658  68.7768250
  27.4469547  32.6179504  78.4393845  26.8095074  33.3277473  78.3614044
  28.0435143  32.7497482  77.7025146  30.9532394  54.2439156  88.8332901
  30.3831387  53.9247055  88.1337738  31.8152752  54.3192825  88.4240875
  15.0587397  65.9065933  38.0572166  15.6328039  65.2230606  37.7115746
  15.6459579  66.4955826  38.5310249  82.8585968  62.5924454  27.5778427
  83.2759018  61.7964630  27.2484550  82.8708420  62.4929657  28.5297794
  49.5664749  29.8562450  81.9070740  50.4198914  29.5044174  82.1603165
  49.1717033  29.1663780  81.3737106  73.1786194  45.9610367   6.6421633
  73.1265793  46.1880646   7.5705929  74.0960922  45.7255402   6.5042396
  31.1022797  53.9703827  37.7282829  30.2896595  54.4502411  37.8883438
  31.3570175  54.2202721  36.8400841   6.1869173  13.3588829  44.3806343
   6.6217723  13.9228706  45.0202026   6.1413169  12.5033865  44.8075714
  59.3721581   7.1471477  34.2285805  58.7411919   7.8335166  34.0117607
  59.5249252   7.2502823  35.1678696  79.5157623  26.9525490  42.8791237
  79.9878006  26.6227455  42.1145058  79.9121933  27.8057117  43.0557060
  14.5445614  19.1812286   4.5723243  14.6605673  19.4335461   5.4883537
  13.7697067  18.6192455   4.5749717  66.4768829  45.1602478  72.3327484
  65.6327133  44.9140205  72.7108841  66.2921371  45.9542160  71.8310318
   8.8729744  71.0594635  15.5169992   9.0007067  71.9998856  15.6416216
   8.3051538  70.7968063  16.2414436  77.5819397  68.8163757  85.9263000
  76.6644592  68.6043701  86.0980682  77.5477142  69.5895386  85.3630295
  17.4903831  14.4873085  22.4682865  16.9437637  15.2711525  22.5233040
  17.1652374  13.9190683  23.1665802  73.4473572  16.6312218  71.0532990
  74.0273285  16.2190914  70.4129715  73.4881973  17.5650921  70.8472672
   2.3659148   8.3335581  42.7019806   1.7457058   7.8282452  43.2275581
   2.1769567   9.2461872  42.9202309  74.4805603  36.7043571  55.1704445
  75.1949081  36.2251968  54.7505035  74.8653870  37.0510559  55.9753952
   9.8789968   7.3181629  31.0396671   9.1787357   7.9405885  30.8435745
  10.6816883   7.8372493  30.9899940  57.6236153   2.9762130  17.5430622
  57.3077126   2.2105951  18.0229225  56.8381157   3.3486722  17.1424408
  21.3875809  19.1210690  25.4246464  22.2286320  19.4014473  25.7855511
  20.7387581  19.6453037  25.8941574  67.4805679   2.2444701  74.2975388
  66.6413345   2.5709448  74.6220932  67.8331451   2.9661610  73.7768784
  56.9278412   9.6117020  40.2148094  57.6204681   9.3396912  39.6127205
  57.3803673   9.7752266  41.0422821  16.4399204  67.2269745  63.2954750
  15.9305639  67.4187164  62.5080605  16.4772453  68.0600739  63.7653503
  63.9719353  34.1183395  10.9290600  64.6212616  34.4243126  11.5622959
  64.4097672  34.1944771  10.0812731  61.8720932  28.7493782  42.0961571
  61.1347694  29.3583202  42.1382713  61.4771042  27.8861408  42.2187805
  46.7558708  45.2320099  62.0433273  46.4059868  45.7495651  61.3181038
  47.3549995  44.6118279  61.6278114  69.0549164   2.0088878  19.2184410
  68.2551193   1.4855505  19.2701416  68.7716064   2.8429313  18.8438244
  86.1322861  40.2874680  69.5906754  85.7978821  39.8473969  68.8091736
  85.5590897  41.0459099  69.7022247  76.6604004  32.9216385  60.8113098
  77.4377060  32.9081612  60.2528725  76.7163162  32.1122284  61.3192101
  76.0333252  37.9830780  11.0211000  76.6492767  38.2071152  10.3235025
  75.4907227  37.2885857  10.6476068  81.4346542   3.7584558   2.8646779
  81.2986374   2.9879084   2.3133271  80.9037704   3.5923190   3.6436484
  13.2731981  18.4109402  59.9723816  12.4887123  18.1584625  59.4854851
  13.8856735  17.6891098  59.8307304  46.3592606  55.5644302   6.9306650
  47.1145401  56.1504936   6.9787030  46.0676689  55.6235962   6.0208807
  16.2636662  16.8366165  65.3186874  16.6297264  16.4743519  66.1255264
  15.3320704  16.9490471  65.5076828  72.0019226  12.9268646  73.7216415
  72.1021957  13.8263960  73.4101562  72.1759644  12.9780407  74.6614914
  14.4011288  53.8331375  62.1046104  13.6004639  53.9288712  62.6203651
  14.2292347  54.3253746  61.3018761  39.2411690  63.6124420  10.9970531
  38.3230057  63.3708458  11.1188440  39.7023506  62.7761574  10.9324665
  71.1994934  38.1821289  35.8658867  70.7270660  38.8753357  36.3268700
  70.6073456  37.4305229  35.8919258  17.1515598  60.3123207  83.8762665
  17.0395584  59.3775215  84.0490189  16.3623581  60.7183762  84.2347488
  27.2403049  31.3668041  69.5626602  27.1336441  31.6942806  70.4557495
  27.0308971  32.1167717  69.0059509  56.5180397  21.1952286  34.4572296
  56.9952354  21.0805531  33.6354256  56.2514496  20.3099022  34.7049408
  32.0248718  12.0235176  11.5504370  32.3211288  11.1606436  11.8401079
  32.2385521  12.0494709  10.6177530  60.7593384  57.5150871   2.8477907
  60.1861267  58.2635384   2.6820192  61.0812912  57.2636185   1.9821455
  12.5759497  37.8790932  23.4593468  11.7928810  37.9884377  22.9198284
  13.1234779  37.2684479  22.9658318  33.9237862  37.5264969  71.5802765
  34.7724304  37.2846794  71.9511719  34.1400681  38.0237961  70.7915115
  47.7773476  13.3940592  65.7698135  48.5600014  12.8808241  65.9704895
  48.1067810  14.1580744  65.2965393  20.0673332  41.2542610  71.3752823
  20.7597294  41.7566795  71.8046951  20.4469185  40.3850555  71.2463226
  71.8950348  48.6681290   2.5786996  72.4880371  49.3769913   2.3295074
  72.4327927  48.0820351   3.1111844  69.1961975  18.2169819  32.9406662
  70.1060181  17.9569511  32.7963219  69.0716934  18.9778900  32.3734360
  43.3320198  15.6237993  70.8236618  42.8323975  15.4294252  70.0306778
  43.0570374  14.9543438  71.4501190  36.3875389   5.3880014  21.8074913
  37.2216988   5.8429780  21.6917267  35.8646584   5.6499581  21.0497265
  27.2153950  52.1225967  75.3602600  27.1969948  51.5711708  76.1424484
  26.9785576  52.9945297  75.6762772  74.3203812  63.2282257  43.2813721
  73.6112595  62.9990921  43.8821030  74.2540817  62.5845947  42.5759773
  78.7705536  62.2437248  36.3010101  78.9132996  63.1158905  36.6686859
  78.6375961  61.6810341  37.0638542   8.9887314   6.4809074  50.9114761
   9.5867300   5.7381997  50.8277206   8.1574774   6.1596971  50.5620880
  57.3187065  30.7915516  80.7859421  57.7419319  30.1611023  81.3687363
  56.3824425  30.6775818  80.9491882   8.6679258  60.2712593  28.6122036
   9.0550089  60.9531937  28.0632362   8.0149069  60.7307205  29.1401196
  55.7380600  11.3439283  45.2657585  56.1574478  12.1315126  44.9192657
  56.4417267  10.8758659  45.7152100  16.1355648   9.2900896   0.8628217
  17.0690613   9.1743698   0.6855549  15.7292957   8.4847946   0.5423872
  83.3411484  13.6391640  67.3055573  83.3911896  12.6936989  67.4463577
  83.1034698  13.7316780  66.3829651  62.2114258  59.3528900  31.2546635
  62.0194664  58.4420662  31.4777946  63.1046600  59.3322105  30.9112434
   5.1745234   8.2290392   3.0981534   5.6865335   7.4961882   3.4402165
   4.3250384   8.1510382   3.5323460  16.1735325  58.3276672   8.1093464
  15.2967548  58.2147026   8.4764032  16.7076054  57.6727829   8.5589294
  70.2285385  12.7022276  81.5599518  69.4910126  13.2470837  81.2853165
  70.2068329  11.9523935  80.9653778  12.9851084  41.2575645  62.2151222
  13.3548946  41.6370239  63.0123062  12.8770075  42.0020676  61.6232948
  52.8965378  63.6032944  32.8541946  53.0114975  64.5182419  33.1108742
  52.4176064  63.2084732  33.5828743   8.0692739  60.4586792  20.1529980
   7.8269367  60.3903084  19.2295094   9.0263977  60.4701958  20.1492367
  66.3414001  40.2934761  47.0417099  66.5382309  40.5870628  46.1521606
  66.5373535  41.0511513  47.5928574  75.7191467  62.8051567  27.1345825
  75.3625031  62.9732208  28.0068150  76.3313141  62.0803604  27.2616978
  66.8741684  21.4351635  82.1410446  67.0681992  22.3577213  81.9752960
  66.3763657  21.4382401  82.9586182  72.4554825  33.6802177  62.4991798
  71.9514008  34.4938889  62.4906044  73.0831375  33.7797546  61.7833748
  22.9786091   2.7853246  28.9526634  22.2258396   2.7346280  28.3635960
  22.7959824   3.5416982  29.5101376  44.2552261  39.2594490  74.8535843
  44.7628784  38.4981041  74.5727386  44.1784172  39.7995071  74.0670319
  48.4097404   4.9055438  69.9663696  47.5853844   5.3035154  70.2461624
  49.0639343   5.2620673  70.5673294  69.3994751  21.4639645  53.4619789
  70.3179703  21.2268810  53.5900040  69.3721237  22.4082699  53.6161575
  38.6099319  62.2451897  78.0721512  37.8415565  61.6746864  78.0910721
  38.5950127  62.6951561  78.9168625   2.1261239  43.1675034   8.8386517
   1.7935307  42.5848618   8.1559038   1.3487124  43.6179352   9.1687613
  28.7287083  67.8628845  75.3185120  29.6556568  67.8185120  75.0839233
  28.7267151  68.1326447  76.2369080  58.7517090  61.4926987  76.4927139
  59.4316444  62.1571999  76.6038589  58.0527878  61.7632446  77.0881500
  35.6305275  52.3366852  72.5481110  35.8820457  51.4131851  72.5371475
  36.4441185  52.8042755  72.7369614   4.9385910  24.0045185   5.8450236
   5.1385756  23.3535194   5.1723890   5.1919136  23.5849667   6.6672373
  54.3557091  21.9037514  33.0442162  54.9369392  22.3813610  32.4523582
  54.9403458  21.5277271  33.7022705  76.7139130  31.6039925  33.3199615
  76.9158707  30.6733208  33.2235489  75.7925186  31.6761875  33.0708733
  53.3833046  25.2997570  30.6775703  53.9698067  24.8505306  30.0689297
  53.9565163  25.8804970  31.1779728  72.1740036  65.5245590  26.3144455
  73.0563583  65.2560806  26.0583115  71.9418716  66.2116013  25.6896915
  78.6072769  59.5665817  44.1806107  78.7424088  58.6856918  44.5299072
  77.6693573  59.7252388  44.2872314  48.6108742  14.5306501  89.0151291
  48.5025253  15.3413563  88.5178909  47.7269516  14.1689548  89.0790863
  35.2703362  68.7738876  70.3044281  34.8427010  68.3125534  71.0259094
  35.2609024  68.1476059  69.5806122  11.7301311  45.4142189  24.5837097
  11.5384674  45.7401695  25.4630585  12.2423840  44.6188660  24.7294617
  51.1315231   6.5364738  43.6043091  51.2257004   7.4046216  43.2122879
  52.0244446   6.1940684  43.6453629  52.9601364   4.0739422  32.4166222
  53.5652618   4.6151319  31.9095058  53.4796677   3.3132994  32.6768990
  67.8439636  19.8290234  10.4303331  67.6714401  19.6620235  11.3569288
  67.4632187  19.0771503   9.9765110  40.2608032  65.7196350  56.2847176
  40.9442177  65.2459183  55.8106232  39.6197472  65.9513168  55.6127052
  84.6367416  35.5125084  62.6905403  84.5594711  34.5829010  62.9052238
  85.4344711  35.7959709  63.1371994  67.5383377  49.2029457  28.4082146
  67.6399689  48.2912712  28.6816216  67.0419998  49.6117325  29.1172791
  42.6613503  60.7729187  30.1068974  43.4459534  61.0184326  30.5971508
  41.9708138  61.3306923  30.4650650  57.3589096  31.2928333  55.4944534
  56.5671425  31.4215755  56.0167198  57.8700180  30.6517067  55.9883728
  19.7159615  42.1454010   3.8088217  20.2670708  42.4295692   3.0796027
  19.0324059  41.6146660   3.3997941  18.4197330  65.5859680  84.8418350
  18.0776215  65.6068649  85.7355652  17.9258633  64.8873444  84.4126053
  20.0656528   3.0923073   2.2607472  19.7386723   2.3273883   2.7342606
  19.4935093   3.1636147   1.4966803  57.7753983  48.7984428  65.0057983
  57.4440994  49.6796570  65.1788177  57.2959442  48.2381935  65.6161118
  23.4459438  38.2198105  68.0700760  22.6814384  37.8969879  68.5471039
  24.0157280  37.4553566  67.9853058  26.9274540  57.6096077  67.3382874
  27.1342812  58.0708466  68.1511307  27.3396397  58.1355476  66.6529236
  38.6773491   9.0421743   0.1712288  38.6241493   9.1979933   1.1141615
  37.8579636   8.5968933  -0.0445549  23.9904041  38.5836563  33.2317505
  23.3130283  38.3007355  32.6174660  24.8065567  38.2512283  32.8581009
  12.0010118   4.6453691  85.4346466  11.2612867   4.0664587  85.6187668
  11.6100397   5.4020295  84.9977951  77.1536789  34.2587814   4.2610006
  77.9541473  33.7576027   4.1051445  76.4452972  33.6394501   4.0853348
  25.6663074  28.9220219  75.3432236  26.0263996  29.7399521  75.0003586
  25.0471458  29.1976585  76.0191650  38.2372551  49.5750542  29.3689690
  38.8403625  49.0555916  28.8373241  37.7182655  48.9267159  29.8449306
  10.2638083  59.6833191   4.9385200   9.3184700  59.6266861   4.7993784
  10.6241198  59.8547325   4.0684485  47.4977951  58.1905670  38.5512581
  47.3047676  58.2724190  39.4852142  47.7050858  59.0818863  38.2705154
  61.3617134  58.4261017  64.2928543  62.2565994  58.6656189  64.5337753
  61.1395836  57.7056351  64.8826141  56.4628677  11.9044952  53.7566261
  55.7961960  12.5630665  53.5615234  57.1201782  12.3739328  54.2702446
   8.3305073  16.1229973   5.6265883   8.2759457  15.3278999   6.1567516
   9.0752459  15.9721041   5.0444994   9.1116867  57.9596024  10.8748941
   9.7337055  57.9543915  11.6024218   9.4693394  58.5987053  10.2585621
  43.0576172  12.3451452   3.5594473  43.1440964  12.0859041   4.4768062
  42.3794899  11.7669516   3.2100642  52.2388878  21.1517906  21.8493862
  52.8960114  21.0359688  21.1630859  51.4012718  21.1157875  21.3875065
   6.8698163  26.3098698  11.8913088   7.2421541  26.2644081  12.7719507
   7.1542501  27.1595421  11.5545788   1.1450312  28.9179249  87.9183731
   1.4094390  28.2160454  87.3236618   0.2227160  29.0710239  87.7131271
  37.9309044  62.0595589  49.8225021  38.2861252  61.2216225  50.1190033
  37.0151138  61.8720665  49.6165733  13.1900454  64.6211090  49.8941650
  12.3185682  64.9846420  50.0510292  13.3821373  64.8439941  48.9833107
  62.7631416  17.9359741  73.4935379  63.4995270  18.5295753  73.3465424
  63.1546402  17.1664028  73.9067154  59.4889679  24.3362293  50.7226753
  59.4732361  24.3529835  49.7657509  58.5912971  24.1179047  50.9731865
  84.3847961  33.6415749  17.8099289  84.8199615  34.3659897  18.2594681
  84.7487488  32.8547020  18.2156372   6.6414495   2.1048732  79.9904022
   6.0850968   2.0886667  80.7691422   6.0818939   2.4677808  79.3037949
  80.6310349   9.0440226  31.5084763  80.7077332   8.1403036  31.8144875
  80.3296509   8.9656439  30.6033516  50.7922974  39.5597916  80.2983017
  50.2140770  39.8939781  79.6125793  51.4987755  39.1219444  79.8235321
  25.6982822  49.0707245  56.8595467  25.9732895  49.6651726  57.5575676
  24.9372883  49.4983292  56.4667664  37.3553200  40.0108299  88.5032578
  38.1086044  40.5055275  88.8258514  37.0505676  39.5156212  89.2636032
   8.7154369  43.5539017  14.5160608   8.1803465  42.9746971  13.9734478
   8.4907455  43.3148804  15.4152908  64.0111237  53.9146309  85.5612564
  63.4756851  54.6267624  85.2113876  63.4467545  53.4837265  86.2031555
  65.9829178  18.9585209  80.4715195  65.4667358  19.3508797  79.7673569
  66.1532669  19.6816139  81.0751343  26.0850983  40.3161354   8.3858271
  26.0459976  39.5505981   8.9591122  26.5916767  40.9602242   8.8805580
  49.7004395  39.2958374  88.0066986  49.5145607  38.7781181  87.2233353
  49.8792419  38.6460190  88.6863937  64.2373962   5.6648593  44.4187202
  63.6672096   6.4129548  44.2413216  64.3469543   5.2401509  43.5679245
  37.0559311  65.5383530  43.3717346  36.3097076  65.0648727  43.7394218
  37.4190712  64.9418640  42.7170906  53.4787140   8.8792667   9.0790920
  53.1485748   8.4635735   8.2825747  53.0655708   8.3924503   9.7922220
  26.4590549  52.1006393  41.4072914  26.5873184  52.7555695  42.0934753
  27.1102734  52.3208923  40.7412300  74.2501755  61.6280975  41.1058922
  73.7178726  61.8889008  40.3543167  75.0388336  61.2468109  40.7200584
  12.4938240  45.1914673  18.4003487  12.7948551  44.2885971  18.5025082
  11.6219568  45.1109352  18.0135765  75.6706390  71.2086639  26.6781387
  76.2217255  70.4748917  26.9503765  75.4019165  71.6234207  27.4978924
  19.9962196  42.1632690  82.5416718  19.0877666  42.4599915  82.4878387
  20.4948959  42.9544144  82.7457428   1.3286607  65.8558350  26.2781734
   1.0219414  65.7481842  27.1784878   0.6910365  66.4462967  25.8769016
  23.2950935  -0.1209732  29.2334194  23.2816963   0.8259015  29.3729916
  22.8159828  -0.2491987  28.4147358  68.3849716  12.0317039  88.4271851
  67.7483292  11.6062107  87.8528442  67.8531265  12.4667158  89.0936279
  26.3380413  30.8963795  84.3277359  25.6788139  30.9520111  85.0195084
  25.8941765  30.4452324  83.6096268   9.3932314  11.1372423  18.6051826
   9.9708595  11.3373327  19.3417568   9.2736444  11.9760551  18.1598473
  30.8329544  55.3991585  68.4398193  29.9068203  55.2330322  68.2640076
  31.0553513  56.1383553  67.8738174  45.8993187  18.9703159   9.2493200
  45.2234459  18.7541199   9.8917284  46.0872269  18.1404533   8.8108568
  82.3660126  18.5050163   6.9289885  83.1432419  18.7970486   7.4052825
  82.3884888  17.5504456   6.9962401  51.7327881  36.7273331  73.9942093
  51.9817696  36.5295372  74.8970490  52.2442932  37.5045700  73.7695007
   5.5007267  30.3647690  27.5688362   5.0169992  29.5417080  27.4994736
   6.1947498  30.2906265  26.9138031  25.5952663   1.1395310  37.0950050
  24.7470875   0.6976331  37.1343880  26.1654053   0.6140380  37.6562805
  41.2344131   1.1442114   8.1141653  42.1290131   1.0912501   8.4504948
  40.6942368   0.7706098   8.8104868  64.3474426  70.7547607  37.8465233
  65.1620636  70.7574310  37.3439064  63.8169632  71.4438400  37.4465370
  71.2537079  52.5006790  82.2333298  70.8649902  53.3707771  82.1435471
  72.1201096  52.6627731  82.6065674  78.7701263  68.0260544  45.5325012
  79.1402817  67.3212891  45.0009727  79.1832733  67.9219055  46.3896408
   5.9018307  58.2672844  31.1660767   6.8545337  58.3312035  31.0989666
   5.6568155  58.9675217  31.7709465  51.2260818  62.5305214  34.8193855
  51.7007141  62.0023155  35.4612198  50.4734612  61.9917717  34.5753746
  65.1714478  27.9462318  53.4685173  64.7905045  27.1694374  53.8780327
  64.5514297  28.1815491  52.7782784   9.8780003  52.8532600  59.2121582
   9.5909834  52.8109550  58.2999802   9.1054440  53.1505508  59.6927872
  46.8092308  38.2574272  78.4123459  47.7456932  38.2394905  78.2149963
  46.7390862  37.8546066  79.2778168  77.8657532  46.4111290  18.2620506
  78.0009842  46.2477226  17.3286476  77.7240372  45.5428276  18.6391468
  54.6980667  39.7173958  71.8352432  55.6444359  39.7828789  71.9630203
  54.5983124  39.4268951  70.9286652  15.8068638   7.9350605  47.2475052
  15.6346273   8.8571911  47.0571289  15.0719318   7.6626000  47.7969360
  10.8482428   4.9072561  55.1871910  11.1991882   5.0074468  54.3022995
  11.6066256   4.6679893  55.7199554  59.4048386  12.0782328  46.8529854
  60.1580544  11.5987139  46.5080872  58.7877655  11.3962593  47.1182556
  39.3274307  62.3654404  70.7987823  39.2471390  63.2598228  70.4673233
  40.2267456  62.1125412  70.5902023  70.1260376  52.5748825  87.4525757
  70.7557831  52.8287849  88.1272583  70.3128433  53.1598091  86.7182770
  48.6854591  23.5922432  36.3035240  48.9331093  23.6389351  35.3800964
  49.5167465  23.6293659  36.7766151   0.8835726   0.9418641  19.2473679
   1.7842108   0.6181331  19.2306061   0.6880531   1.1533660  18.3345318
  81.1481857  45.1988144  27.4603920  80.3936844  44.6121025  27.5126724
  81.8755188  44.6855888  27.8122654   8.2743406  31.6343422  80.8281250
   8.8004417  31.6303387  81.6277771   7.3783188  31.7800903  81.1316605
   4.2005706  17.7868690  25.9797897   4.2570419  18.2760944  26.8005848
   3.4078262  17.2580833  26.0701923  50.6372337  24.6995106  55.8844833
  51.2488403  23.9987602  55.6583939  49.7752037  24.2846508  55.8524208
  81.3525772  44.3691940  44.7653503  81.2064056  43.4232750  44.7757034
  82.1723709  44.4901199  45.2444649  28.6463394  48.1084862  59.1397095
  28.0168171  47.4584999  58.8275414  29.2202358  47.6213989  59.7309952
  45.4863319   3.4145899  12.5542545  44.5951385   3.2011588  12.8307476
  45.6918449   2.7626257  11.8842249  43.3681145  23.8519936  10.3923740
  43.7123375  23.7323971   9.5072527  42.4252243  23.7131081  10.3034687
  23.2938347  54.9882965  41.3342438  23.7525120  55.7688713  41.6449661
  22.8362408  55.2776947  40.5448837   9.7314396  35.0262604  70.0605545
   9.4990482  35.0855255  69.1338882  10.3499289  35.7436256  70.1987305
  44.0043678  50.9340820  10.8153744  44.6342201  51.6314774  10.9974699
  44.4947739  50.1247902  10.9595451  11.4965668  67.3256226  21.4625835
  12.0713758  66.6676941  21.0714893  11.5340376  67.1481323  22.4024391
  16.1425591  49.8304710  75.2426224  17.0104733  49.4344788  75.3210373
  16.2803459  50.6028366  74.6942673  59.5978851  28.2365227  65.8325958
  59.2019043  27.7018547  66.5207596  59.4827385  27.7221889  65.0335770
   0.9804429  62.6719017  31.3436184   1.6457598  63.2110481  30.9159451
   0.2676113  62.6211739  30.7068062  35.9316483  15.9247417  29.9477558
  36.6350746  16.0167255  29.3051357  35.1926422  16.3960094  29.5630379
  12.1645575  69.0417404  83.0770874  12.9785633  69.2588730  82.6226883
  12.1488390  68.0848618  83.0962296  80.9290161   1.6787322  70.2589722
  81.3626633   1.8407559  71.0967865  81.0335541   0.7385141  70.1130524
  49.1750183  63.6955795  88.3523178  49.9319687  63.1349106  88.1822968
  49.3055305  64.0093155  89.2471695  63.1324883  67.8475800  22.6699562
  63.0815163  67.2539825  21.9207706  63.6379585  67.3649216  23.3239994
  11.5294971  60.8027916  11.5626345  11.3237629  60.1737366  12.2541523
  11.8861275  60.2695999  10.8521748  11.8307600  10.9507761  30.7750511
  11.6457510  10.4841309  29.9600391  11.7345610  11.8758030  30.5485497
  70.4168091  29.2201633  76.0952377  71.1572189  29.4675465  76.6491547
  69.8536606  29.9941406  76.0884323  32.8656883  47.7020378   5.5629144
  33.6621819  48.1628418   5.2993040  32.4570351  48.2796593   6.2075753
  15.4361258  41.8683548  11.4199038  15.6488810  42.0936470  10.5142488
  14.6401711  42.3650398  11.6096182   5.4678330  25.8050423  39.6437416
   5.8864613  26.5666256  40.0449562   4.5296955  25.9692631  39.7394600
  48.1709175  38.3269615  11.8044081  47.6020470  38.7943001  12.4161377
  48.3080101  37.4712486  12.2108488  11.4150677  51.7713242  22.3421974
  10.8346748  52.3182831  21.8128490  12.1153669  52.3625450  22.6183624
  46.0243263  68.5280075  80.1544113  45.8799515  68.5012207  79.2085419
  45.9768257  69.4575806  80.3777161  62.0661926  60.6752319  81.3357086
  62.2379379  59.7336769  81.3501358  62.5131798  60.9882088  80.5492706
  59.5601234  65.8367538  23.9445934  58.6435928  65.6486053  23.7425957
  59.5939026  66.7886200  24.0397015  29.7226601  59.1258392  28.5596180
  30.6236115  59.3919220  28.3759937  29.2726021  59.2078781  27.7188148
  47.5769577   9.0228167  80.8166504  48.2223587   9.7204447  80.7026215
  47.5531731   8.8706074  81.7613678  64.7659149  23.5249290  41.1149559
  65.3199539  23.8884430  40.4242096  64.7726593  22.5811157  40.9555702
  84.8113022  68.9768600  52.7399788  85.6943817  69.1698685  52.4250946
  84.9451752  68.3875580  53.4822960  61.3374023  55.6186295  25.7740631
  61.1388702  54.7893028  26.2088451  62.2936630  55.6584282  25.7593307
  65.0761795  69.9577179  49.6929283  65.9083633  70.1163177  50.1385155
  64.8742142  70.7873459  49.2603149  57.7458038  39.3890114  59.7126694
  57.7318306  40.0404282  60.4138794  58.6709328  39.1645889  59.6126442
  25.0315914  29.8511658  87.1960068  24.9906273  30.7811069  87.4190903
  25.9059944  29.5768452  87.4724121  41.6701965  31.7883377  66.4589157
  42.2500839  32.1700287  67.1179123  41.2022247  32.5370216  66.0891724
   4.5899796   3.4838965  18.2265396   4.6934052   4.2243791  17.6288605
   5.3769093   2.9558046  18.0920315  65.0999680  27.8007889  25.2987385
  64.5061646  27.9990234  24.5746269  65.8659286  27.4083405  24.8797894
  54.4827118   7.6800604  61.7973595  55.3881035   7.9233885  61.6042480
  54.5499725   6.8252358  62.2227783  54.1951256  49.6409988  20.3224525
  53.8955498  48.7318916  20.3198776  53.5479622  50.1049347  20.8536530
  56.9719543  67.7963333  75.3095779  57.4847603  68.5139618  74.9377213
  57.0610008  67.0847244  74.6756134  51.1695290  38.2604561  21.5033836
  51.7542381  38.4506683  20.7697811  50.9686852  39.1180267  21.8781681
  45.0722504   9.1812563  16.1789131  44.8978844   9.0085173  17.1041107
  44.2064056   9.3121376  15.7923727  47.6369362  43.1351509  66.2269135
  46.7435493  43.4775887  66.1981583  47.6174736  42.3669510  65.6561966
  74.0008392   1.8918192  86.5038147  74.1591873   0.9919862  86.7892227
  73.6807556   1.8054628  85.6058578  22.6371651  33.7853203  29.8683586
  21.7536716  34.1531029  29.8884945  23.1768475  34.4791374  29.4894238
   7.7444620  24.7219086  52.1534195   8.6596231  24.7887249  52.4259033
   7.2634664  24.5650253  52.9659882  52.6129379  68.0690994  27.9298229
  52.0507622  68.8248367  28.1002522  53.3679962  68.1979599  28.5038605
  72.7964401  52.8767357  21.0584602  72.1626358  52.1690826  21.1757107
  73.6494751  52.4500351  21.1390133  56.5313072   0.9280714  26.6389332
  56.0931854   1.7169751  26.3197002  56.0451813   0.2062170  26.2403870
  85.0857162  39.7404060  85.2440186  85.5999451  39.4052849  85.9785309
  84.1753922  39.6139450  85.5115128  56.6703758   3.8422952   9.0439072
  57.4522896   3.2913961   9.0806751  56.3392410   3.7289984   8.1529818
  75.7734528  47.6016693   5.4692402  76.7287903  47.6614037   5.4683876
  75.5333862  47.6162567   6.3957329  70.6185532  42.1738892  52.0204849
  71.2994995  42.6615067  51.5570412  70.6986008  42.4575081  52.9311905
  11.1839542  60.0722351  52.6187019  10.3830023  59.6872063  52.9743156
  11.8367271  59.9456940  53.3072586  46.5547791  10.9747915  77.9400177
  46.5746880  10.5845909  78.8138428  46.3942795  10.2368984  77.3518066
  28.1355114  54.0456696  29.7012386  28.4217930  54.9446373  29.8628883
  28.9272022  53.5899467  29.4152699  65.7097244  49.3998451  39.2079010
  65.1710510  49.9684410  38.6576653  65.5071564  49.6711426  40.1032219
  19.1572971  58.7220612  35.6162529  19.2319183  58.0687294  34.9206810
  18.6813622  58.2740860  36.3155632  12.1697950   2.4315438  60.6316223
  12.2908630   1.4926854  60.7734642  12.8014402   2.8459892  61.2194061
  74.7096024  70.4923553   4.0227432  73.9438095  70.1603470   3.5541775
  74.6105347  70.1549606   4.9130135   7.4632263  69.3883743  61.4450340
   7.3713574  68.5716171  61.9356346   6.5829420  69.5705566  61.1161804
  63.2384224  46.6153412  78.4867630  63.9065933  46.7449722  79.1597977
  62.6072044  47.3190079  78.6372528  56.1075745  39.6896477   0.5336413
  56.1628685  39.5257645   1.4750851  56.7062263  39.0524216   0.1440346
  67.0607605  20.2838612  68.2041168  66.8493805  20.1001778  67.2887955
  66.2122498  20.4370651  68.6197891  17.2557297  52.2717781  18.4866142
  16.6197758  51.9209442  17.8631496  17.4881439  53.1307411  18.1339092
  45.6620064   5.3722501  75.2374878  46.1034508   4.6508698  75.6857758
  44.7620430   5.3410115  75.5620193  53.4277191  44.1863174   5.4655242
  53.1076431  44.9806328   5.0379152  52.6345291  43.7073555   5.7056818
  80.8606720   8.4910154  70.9097900  80.5760651   7.8168764  71.5268555
  81.0954208   8.0071802  70.1179428  25.8363285  48.6477242  43.1516647
  25.2604580  48.9576721  43.8506165  25.6470928  47.7119522  43.0827103
  83.6077347  15.3707905  43.4471436  84.3768997  15.0391979  43.9104614
  83.8606796  15.3591175  42.5240440  52.1501999  66.2464142  78.4395599
  51.8659897  65.5702896  77.8244858  51.5681267  66.1450729  79.1926498
  29.9190521  44.2448082  20.5214825  29.8225765  44.0138168  21.4453678
  29.5718269  43.4888115  20.0480576  12.5391684  30.1043549  59.8143272
  11.7585983  30.6190796  60.0192719  12.3046303  29.2078285  60.0540466
  32.2064667  25.9889832  68.3453217  33.0467873  25.5629196  68.1763153
  31.8297691  25.4951935  69.0736771  62.4368248   4.4580612  63.1033821
  62.1931915   5.3464923  62.8434486  63.3318291   4.5416875  63.4323235
  73.0076904   5.7540340  59.3198547  72.2197342   5.7619195  58.7764473
  73.0262070   4.8766937  59.7021675  73.1526031  15.0257130  43.1138000
  72.4960938  15.4894419  42.5940094  73.9843216  15.2292280  42.6859474
  84.2915802  67.8737259  39.7586021  84.1870956  66.9857101  39.4169197
  83.5329514  68.3506470  39.4220581  10.0888367   9.6451950  75.9873810
   9.1393776   9.5240202  75.9960938  10.2948723   9.8573656  75.0770187
  73.5008698  29.7151394  22.4799900  73.3823471  28.7655296  22.5006676
  73.8806229  29.8904228  21.6190071  81.0905533  71.2348709  22.0350437
  81.5120926  71.1585999  21.1790543  81.3955765  70.4689026  22.5213394
  55.3183098  56.7205048  32.0220833  54.7770576  56.4314842  31.2874107
  56.1700096  56.3119507  31.8673954  84.7446976  56.6811447  14.6081705
  85.3098297  56.0163231  15.0017004  85.2846680  57.4711609  14.5848112
  63.5536880  39.4821777  30.5152397  63.3330116  39.4083519  29.5867558
  64.3252869  38.9260674  30.6229877  12.5847435   0.5821694  72.6323166
  13.4529495   0.5101372  72.2357559  12.3454943  -0.3186573  72.8502655
  38.2198334  19.6062965  85.6839447  38.4431648  19.5705147  84.7538528
  38.5909691  18.8036880  86.0504303  73.0515366   9.7238789  12.5650301
  73.9019470  10.1150703  12.7650318  72.4311447  10.4491367  12.6381130
  77.3803482  70.2843704  79.1246796  77.2283401  70.9825363  78.4877319
  77.9380951  69.6573563  78.6642303  63.6447487  71.0168762  18.4770107
  63.6806908  71.8116455  17.9447689  64.1418381  70.3703384  17.9758835
  42.7083282  32.9953728   7.7519298  43.4486809  33.5066719   8.0785599
  42.6995354  32.2101059   8.2992067  29.7757683  61.6454620   1.3922315
  29.9672718  62.1958923   0.6329022  28.8247471  61.5380287   1.3764312
   7.8115959   9.4975109  78.9212341   7.7025504   9.9889059  79.7353973
   8.5316248   8.8929548  79.1009598  15.1707783  70.6740036  33.6824875
  14.9411278  70.7741623  32.7586594  16.0603523  70.3207855  33.6712227
  44.8460999  59.5448418  66.9690857  43.9815445  59.9395256  67.0831070
  45.0612450  59.7009087  66.0495224  62.0654640  32.5167313  47.1410828
  61.3548813  32.4698105  46.5014725  61.7214165  33.0716324  47.8410416
  14.8540058   0.0994514  83.5417938  13.9695663   0.4583501  83.6138382
  15.0639524   0.1650398  82.6102066  79.1446609  60.6875496  41.6627884
  80.0898819  60.5456543  41.6112823  78.8552246  60.1168022  42.3746185
  28.9163666  15.7876682   4.1383104  29.3770046  16.4228001   3.5899928
  29.3999233  14.9706526   4.0162868  69.4319077  67.4357071  71.6185913
  70.2040329  67.9616623  71.4102020  68.8483887  68.0388489  72.0789871
  55.3325729  23.1425858  16.3021889  54.5558128  22.8916092  16.8020725
  55.3161469  22.5738144  15.5324736  53.1997757  59.2332039  62.2482491
  52.4186783  59.5702667  61.8094902  53.3857346  58.4058914  61.8041649
  85.2366943   6.0814929  42.7642593  85.6668854   5.6780481  42.0103378
  84.6712494   5.3929601  43.1141548  49.8048630  57.7336273  14.3581171
  48.8623123  57.9004555  14.3585129  50.1981316  58.5807915  14.5675945
  78.4051437  70.7463303  36.6589050  78.6840820  69.8337860  36.5834885
  77.8560562  70.7649384  37.4427338  57.0725670  48.5412331  69.4751129
  56.7943573  48.9566803  68.6588821  56.4381599  47.8381157  69.6143494
  21.3205528  49.7719154  55.3255501  20.7207546  50.4812927  55.5563316
  21.5529976  49.9422302  54.4127541   3.9491801  40.5592690  79.8143616
   4.0347352  39.7355118  79.3344269   4.5196910  41.1692657  79.3467560
  84.7421265  23.0393257   2.7728517  84.8978653  22.5304604   3.5684860
  85.1084976  23.9024963   2.9650469  71.1483154  38.6123390   2.1460702
  70.2488022  38.9197578   2.0337842  71.6761551  39.2232208   1.6318339
  56.6370277  27.1037064  17.5406036  56.4563522  26.8185654  16.6448994
  56.1793900  27.9404202  17.6225090  27.4199963   6.3803797  66.6051102
  27.1089611   5.9436746  67.3980637  28.3147678   6.0602069  66.4906311
  46.8664246  11.2973585   8.4567995  47.1848869  11.4324112   7.5642896
  46.2109413  11.9832888   8.5835781  30.5591431  45.9440689   3.5331094
  31.0709133  45.4301186   4.1577501  29.7664871  45.4269180   3.3899961
  24.2841206  31.8151722  79.5104828  24.5420685  32.6809196  79.8269882
  23.8905926  31.3892059  80.2720032   5.5086246  17.5528240  32.1406860
   5.4223633  16.7629147  31.6069870   6.3081260  17.9713726  31.8215504
  51.6128807  59.7460823   5.1269131  52.4737206  59.3406143   5.0230613
  51.5132828  59.8579025   6.0723271  19.4458427  32.7992973  65.4317551
  19.0364704  32.4006653  66.1996994  19.6859646  32.0576859  64.8762512
  81.2225800  25.7551327   8.5039797  80.7943268  25.6785126   9.3565998
  80.6294327  25.3119774   7.8973374  53.3217659  14.6291742   1.5990905
  52.6256142  14.0645866   1.2631637  54.1310883  14.2178020   1.2957692
  18.6178894  17.3707695   4.4454174  17.8059444  16.8751450   4.3389525
  19.2819958  16.8398228   4.0057697  27.6636066   0.7968760  60.2081223
  27.1199360   0.8600439  59.4228439  28.4873219   0.4194717  59.8994331
  81.5223846  55.4634552  52.1098595  81.1677551  56.3393707  52.2623215
  80.7503204  54.9063187  52.0111198  50.5359840  57.4322128  38.9371376
  49.5910721  57.5611076  39.0193634  50.7912788  57.9925728  38.2042999
  55.0475883  64.8712997  29.7007828  55.1366386  64.3818359  28.8830261
  55.7489548  65.5218735  29.6681156  22.4956474  25.5583153  77.8179092
  22.4416981  26.5063343  77.6971436  23.3942204  25.3365211  77.5737686
  23.8065205  36.4433517  88.1262207  23.3273659  35.7676506  88.6058731
  23.8337765  37.1889648  88.7258377  52.1839790  23.0727558  31.3776436
  52.8694572  22.7386074  31.9561729  52.5403442  23.8910389  31.0317421
  66.4182205  64.7923431  64.2811203  65.9404449  63.9775696  64.1258469
  65.9553223  65.4452209  63.7560425  62.1681786  39.4647331  15.9113932
  61.2587814  39.3342743  15.6426706  62.6849251  39.1041565  15.1908464
  57.4657974   1.5198853  35.0176849  57.9185944   0.7325054  35.3197441
  58.1653900   2.1555841  34.8670616  31.8463573  42.3292351  79.1845245
  32.2828407  43.1121254  79.5203781  31.1916924  42.6642418  78.5718079
  61.0342903  44.1661491  43.5383644  60.0778465  44.1401634  43.5106430
  61.2508698  44.0326614  44.4611359  68.9691544  18.9363632  77.8599777
  68.0635986  19.1692467  77.6551132  69.0835037  19.1997948  78.7730789
  75.2566681  22.8485184  16.0301285  75.9340134  22.6463547  16.6755486
  75.6548920  23.5098019  15.4641304  78.5763092  59.3979988  20.8821812
  78.6224213  59.6584167  21.8021221  77.6718903  59.1093140  20.7600231
  82.7027817  42.1268158  56.3886108  82.7694473  43.0273323  56.7061882
  83.1680222  41.6067200  57.0438080  47.1895256  49.3392334  29.4738331
  47.0095139  50.2691689  29.6118412  47.4375153  49.2776031  28.5513706
  16.2597942  55.4283714  41.1159592  16.5211067  54.5918541  40.7310028
  16.9819469  55.6591034  41.7003250  37.4212723   2.2408028  35.9148140
  37.4364014   1.6094285  36.6340981  36.9034424   2.9729197  36.2496109
  76.7060394  35.6987305  53.8765945  77.5699768  35.2952576  53.7926178
  76.8295288  36.5958862  53.5666046  60.6643982  48.9650116  27.9740372
  61.1005516  49.0407524  27.1253529  60.4071693  49.8608818  28.1919289
  25.8044090  16.3634911  83.6449203  24.9323750  16.7581902  83.6460114
  26.0975628  16.4328232  82.7363586  37.0490875   3.8064718  17.4790573
  37.8273010   3.6625161  18.0174713  36.5734024   2.9767964  17.5189686
  75.1388550  14.6043501  77.0085831  74.5968323  14.8990974  77.7404022
  74.7616806  13.7618504  76.7552719  69.6613693   8.2695694  63.8990746
  69.7761765   9.2192011  63.9344330  70.1814346   7.9933705  63.1444359
  18.2133007  31.0254574  70.3948669  18.0518456  30.7315636  69.4983215
  18.0304623  30.2569561  70.9354248  57.1513901  24.9498291  60.2135239
  56.6743889  25.0871353  59.3950844  57.7086411  25.7234306  60.2986565
  49.0656281  42.2818069  31.2968693  48.1533546  42.5277672  31.1435986
  49.5411491  43.1125336  31.2954216  24.0160961  60.7545624   4.4557557
  23.6558208  61.3855553   5.0788789  23.2665501  60.2180481   4.1977534
  66.2367477  39.8890800  58.1851349  66.5923538  39.5980415  59.0248222
  65.4500198  39.3581009  58.0612450  18.0386639  52.6101723  77.9515991
  18.2418613  53.2607918  77.2795639  17.1078758  52.7377815  78.1348495
  44.2791138  15.5272179  11.5209970  44.5598106  16.4179363  11.3110838
  45.0946579  15.0446911  11.6562252  84.0433121  70.8313828  11.4533901
  84.2776489  71.7531281  11.5615692  84.4499893  70.5764618  10.6252203
  14.2811012  29.7766132  81.5013962  14.0088425  30.5754776  81.9529800
  15.2374277  29.8173828  81.4981613  67.6646500  40.9423370  76.7389755
  67.5414124  40.7315826  75.8134308  66.9940186  40.4314728  77.1923065
  12.4055738  56.9451637  25.0257263  11.4534798  56.8485146  25.0458984
  12.7310534  56.0684052  24.8218021  56.9151726  59.5794792  51.1528091
  57.8511200  59.3882027  51.0923843  56.5663223  58.8918953  51.7200470
  48.2329788   9.0481663  54.7649117  47.5307236   9.4269819  55.2936592
  48.8598976   9.7626410  54.6520805  53.6129265  54.6250648  55.5845833
  54.1890106  54.2734146  56.2633324  54.0149689  54.3471069  54.7615776
  46.5458412  38.6888771  86.6689606  46.1512299  37.8645935  86.9536819
  47.3735390  38.4306717  86.2633972  45.4696541  56.2596359  43.1641464
  44.7348366  56.8171425  43.4200096  45.6589851  55.7395439  43.9451027
  11.6557217  67.2085495  53.6645164  12.0008221  67.4338913  52.8005943
  12.2031040  66.4804688  53.9586372  23.9470043  43.1542397   8.6655054
  24.2063351  43.6547203   9.4391346  23.0801487  43.4924316   8.4409599
  58.2995796  23.1427860  41.5371246  57.4392433  23.0567417  41.1264572
  58.1179352  23.5243473  42.3959885  56.1072693  16.0689526  24.7081318
  55.6141129  16.5380878  24.0351257  55.4591789  15.5055389  25.1309452
  68.7046051  55.7418404  51.0281792  68.1873474  55.6368637  50.2296486
  68.7241440  54.8676338  51.4175529  46.6962814  49.0919342  80.7848816
  45.8472633  49.5098381  80.9289627  46.7086105  48.8910255  79.8490829
  12.5504999  51.1061020  34.9984779  11.6382780  50.9304504  35.2291985
  12.5090714  51.8689117  34.4217339  51.7284470  30.4261322  58.8485489
  51.7045288  29.5650520  58.4311752  51.2842865  31.0050201  58.2289963
  18.2771606  49.7356644  52.9631424  17.5041904  50.2702866  53.1446114
  18.2749863  49.6264801  52.0121956  18.6884747   4.6281176  40.1221504
  19.1480923   3.9789603  40.6546707  19.1144638   4.5807953  39.2662735
  37.1879311  51.8584404  19.9373112  37.0487366  52.2869530  20.7818432
  36.3639107  51.9835014  19.4665794  76.8889618   0.8812659  73.7947311
  76.1125031   1.3368293  74.1200027  76.6080017   0.4896092  72.9677505
  15.0152760  62.6756516  49.2361641  15.8139439  62.8811646  49.7220917
  14.3655844  63.2938766  49.5707283   0.8527171  63.2952080  62.7524605
   1.6473147  62.7709541  62.8524742   0.8913466  63.6194077  61.8526649
  13.7481050   2.0361686  29.1600571  13.4160662   2.3030539  28.3028793
  13.6736259   2.8222582  29.7011185  40.2876396   5.3921084  24.8580589
  39.3752213   5.2105951  25.0833988  40.2924080   6.3147287  24.6031475
  82.9429321  50.6435966  56.2599716  83.3724136  50.4240723  57.0867653
  83.6621323  50.8599205  55.6665268  70.4130249  44.2383842   3.6296451
  70.0743027  43.3718834   3.4045310  69.7104645  44.6460342   4.1360641
  46.5771179   2.0820174  16.0552464  46.5246696   2.6413369  15.2802353
  47.4852409   2.1617177  16.3471260  63.7103424   2.2151601  64.6263580
  64.4792633   2.2828951  64.0603180  63.1747665   1.5325125  64.2221451
  48.0721550  63.8548584   4.5960846  48.6667480  63.1827583   4.2629580
  47.2451172  63.6884842   4.1437969  66.3525848  47.3798828  31.1139908
  67.0960617  47.0440140  31.6146603  66.6116333  48.2676277  30.8669453
  39.6820221  58.1075058   3.1161015  39.0087433  58.7745934   3.2499735
  40.0558395  58.3130798   2.2592289  67.8108521  63.3774490   9.0280848
  67.0420685  63.9269257   9.1806698  68.5391312  63.8764343   9.3980227
  31.4670391  64.7481689  55.4060326  31.4170647  64.6810760  56.3595695
  30.6283932  65.1310883  55.1485901  10.4996347  69.2597733  48.3616638
  10.7263746  70.1895599  48.3792877   9.7632732  69.2043152  47.7526245
  47.0560226  16.6776886   8.1682787  47.4851875  16.0213795   8.7171917
  47.7592964  17.2761459   7.9163117  23.0634136   5.6965413  35.9634171
  22.1417999   5.5218344  35.7728004  23.5358963   4.9815593  35.5370445
  57.5170441  43.0628166  28.9833698  57.1407776  43.8732338  29.3266983
  56.7639427  42.4878426  28.8474598  15.9127769  44.6493568   9.3703489
  14.9836845  44.6141701   9.1427965  16.2450619  43.7776642   9.1559391
  57.6515923  54.5372162  74.0841064  56.7113152  54.6702576  73.9640656
  57.7144203  53.8997917  74.7954254  66.9685287  16.0725613  73.1835327
  67.6773529  16.7151737  73.2127533  66.4808350  16.2168732  73.9944305
  76.4931259  14.5454683  45.3677826  76.6452103  15.2313652  44.7176704
  76.1875763  13.7954082  44.8576050  46.0187225  32.7044487  13.1683445
  45.7668495  32.1880302  13.9339209  46.2833977  32.0544090  12.5174780
  50.0551796  49.2531242  65.3220596  49.3729248  48.5957336  65.1857071
  50.1537247  49.6764832  64.4692535  11.4151382  37.0504646  73.0547256
  12.0820112  36.8433647  72.4000320  10.7392282  37.5215302  72.5674057
  60.3821602   3.2070980  12.7265682  60.9129410   2.7067485  13.3463697
  59.9713631   3.8885744  13.2586088  78.5693741  10.3765669  85.9537735
  79.5132980  10.2988472  86.0923462  78.2197723   9.5203266  86.2004852
  82.5508270  38.9400635  85.8933334  81.8662567  38.2714005  85.9153137
  82.0780334  39.7628555  85.7679977  33.9233704   1.9258265  29.5654297
  33.7122040   2.7673814  29.1611710  33.4883118   1.9535900  30.4175949
  71.3104401   0.4808888  14.9655094  71.2707443   0.6948822  15.8976374
  70.9126129  -0.3874017  14.9019527  60.3451729  21.7912140  33.1052704
  60.7674942  22.4768791  33.6227074  60.0951385  22.2260704  32.2900314
   7.8855534  50.0652237  76.7229996   8.5611105  49.4523659  77.0132751
   8.1852388  50.3627968  75.8640060  45.3187332  69.2175674  86.1941833
  46.0445633  68.9623871  85.6247253  44.6937561  68.4960098  86.1235123
   1.3511161  70.0785522  84.4273987   1.1755153  70.9623489  84.1044617
   0.5430123  69.8206329  84.8708878  75.6132355  19.0763931  62.7127686
  75.3847504  18.8615208  63.6171227  74.8810730  18.7418938  62.1948090
  47.0438423  42.4732552  11.3519516  47.1415825  43.3752174  11.0467587
  47.6646843  41.9726830  10.8225975  75.0576401  22.0701180  45.3320389
  74.4504700  22.3421192  44.6438599  75.9260101  22.2180347  44.9574966
  85.0878143  21.6109753  80.3891144  84.5425720  21.5654984  79.6036987
  85.0612640  20.7251091  80.7507401  69.7200928  14.9365873  85.6308899
  69.7403412  15.5979824  84.9392395  69.7927017  14.1025181  85.1668930
  61.0439720  25.7956543  83.2598953  61.8461876  25.4955006  83.6872101
  61.2033539  26.7210388  83.0741730  49.4017982  35.0590210  77.2196350
  50.1065216  35.3783112  77.7832336  48.7451172  34.7182808  77.8270035
  43.3985214  33.7027855  15.4335585  43.4873924  34.6511536  15.5280628
  44.2726059  33.3604851  15.6207495  69.8804626   7.8275824  19.3474636
  69.0119781   7.8727818  18.9475555  70.3016510   8.6504574  19.0990505
  86.5784836   6.4420280  77.3316727  85.9083328   5.9357738  77.7908478
  87.1227264   6.8071918  78.0293045  77.5015640  38.1029739   8.6797123
  78.3707809  38.0166397   8.2882519  76.9010773  38.0923004   7.9343710
  11.2871761  40.2396660  21.0039387  10.7611961  41.0389404  20.9768410
  10.7175226  39.5920296  21.4190216  77.8962021   3.9905055  52.3801308
  77.9962540   3.4546599  53.1669540  77.0219421   3.7766449  52.0542793
  13.9592600  61.0829391  27.4524841  14.2084198  61.0185356  28.3744411
  13.1132679  60.6380615  27.4013710  54.9361191  41.9863052  81.0980606
  55.3879013  42.6864891  80.6270370  54.0386658  42.0148315  80.7664032
  69.4709854  23.5982552  74.9885025  69.2380600  24.4289074  75.4032288
  70.4072342  23.4986629  75.1610107  61.2467537  52.9449043  79.3994141
  62.1862869  53.0642891  79.5381851  60.8602791  53.0563812  80.2680054
  62.8451347  32.4069481   7.6491699  63.3609352  32.0648155   8.3793268
  62.7369843  31.6593399   7.0612755  65.9156494   2.4444232  62.9967422
  65.9724426   2.8435938  62.1286011  66.8185120   2.2109590  63.2125359
  75.6243973  23.5334320  40.0495796  76.5437012  23.4151421  40.2885742
  75.1425934  23.3619251  40.8587036  48.0609169  19.7332478  14.3836679
  48.2745476  20.4961014  14.9209261  47.7041550  20.1017933  13.5755053
  61.2864685  47.5057487  43.9497795  61.0354500  47.3508530  44.8603973
  62.1434860  47.0882988  43.8632507  59.9913826  55.8175201  73.7473602
  59.1465492  55.3737297  73.6729431  59.8129730  56.7187843  73.4787903
   1.0717158  40.6708946  61.5487518   1.4354665  40.0744514  60.8944016
   0.5702112  40.1052437  62.1359215   7.7827849   4.3924456  38.6212120
   8.0766373   5.1685400  38.1441803   8.5248909   4.1587915  39.1788101
  55.6765060  64.7951736  60.4692917  55.2669106  65.2760849  59.7501373
  56.3922043  64.3114395  60.0569725  15.8018417  49.3531075  82.4620132
  16.4503860  50.0156059  82.7001724  15.9390707  49.2093086  81.5256805
  72.1312943  29.6629124  37.2966919  72.7709045  29.1166744  36.8397942
  71.2840652  29.2777214  37.0729485  84.0024719  48.9920578   2.9635968
  83.0602570  48.8537560   3.0602183  84.1732025  48.8375130   2.0345118
  11.3469915  42.4598656  13.6679335  10.5949898  42.9779968  13.9547482
  10.9657898  41.6446609  13.3417978   0.5209571  31.1056423   7.5168285
   0.3468951  31.6308784   8.2978935   1.4515145  31.2421455   7.3388901
   7.3489728   3.6075120  25.6432400   7.5928888   4.4498353  25.2595367
   6.4148507   3.5195177  25.4537544  57.3889961  32.7111816  40.3453026
  56.6094017  32.3286476  40.7479553  58.1215553  32.3072281  40.8104973
  80.7700500  60.8108406  33.7612228  80.3946686  61.6831970  33.6415634
  80.5531845  60.5785675  34.6641350  55.4376678  51.5762367  70.2159653
  54.6191216  52.0347557  70.0263062  55.1852036  50.8730011  70.8142548
  73.7740021  41.0791893  73.7938538  74.0247650  40.1653748  73.9290924
  74.0980530  41.5340462  74.5712357  29.1785965  55.8608360  39.7706337
  28.7244797  56.3502846  39.0847397  28.9201298  56.2932167  40.5845566
  48.8327751  51.8431664  55.3726082  49.7839813  51.8788719  55.2717972
  48.5281563  51.3631668  54.6025162  82.7969894  33.0335503  22.7113819
  82.2179184  33.7273331  22.3958282  82.8928223  32.4431801  21.9640446
  50.6662865   9.4052639  83.4884567  50.3874626   9.4381361  82.5733566
  50.6568489  10.3186226  83.7746735  20.4371014  68.1864624  86.9073944
  20.0365295  67.4051895  86.5260925  21.2376270  68.3174744  86.3992386
  72.6331406  29.6666393  77.4053879  72.9548645  30.4721813  77.8101425
  73.2660217  28.9978466  77.6669540  55.9895592  53.8118782  87.3165283
  56.3820190  53.3001175  88.0238495  56.6507530  53.8102875  86.6243896
  47.3703232  45.0827370  77.0021362  47.5983505  45.6778183  76.2879181
  46.4205017  44.9834900  76.9371872  58.9324493  31.8207951  52.4875984
  59.1397514  30.9084873  52.2852287  57.9758377  31.8518372  52.5005913
  15.1446657  70.7311707  88.9470749  15.7447195  70.1030960  89.3491898
  15.4247513  70.7785492  88.0329971  16.6305714  52.6008873  63.3577995
  17.2444057  53.3138428  63.5342445  15.8792276  53.0280304  62.9463806
  55.6078987  34.2690735  42.3280678  55.8986130  34.5513573  41.4608650
  55.0900879  33.4812546  42.1624069  46.6805840   6.4948549  59.2042542
  46.8517075   6.5532699  60.1442223  45.7477951   6.6915541  59.1179466
  74.1943741  67.5049133  74.3096237  73.2627716  67.7193298  74.3583450
  74.4120178  67.5921478  73.3815918  86.8867188  57.6389160  18.4671555
  87.0031204  56.7664337  18.8432655  85.9448471  57.8001099  18.5230350
   3.1608787  66.9743729  72.1623077   3.6524105  67.7632141  72.3911362
   2.2810886  67.2912521  71.9578781  32.5599976  45.3797531  68.9766998
  32.4278603  46.3146935  69.1337204  32.9111214  45.0455399  69.8020706
  84.1003036  20.2674484  21.4281712  85.0072327  20.0908909  21.1781006
  84.1262970  20.3491955  22.3815193  62.3504295  60.6304092  84.1795044
  62.0686302  61.3413506  83.6038437  61.7609558  59.9055977  83.9711761
  10.0652361  28.8928757  56.6718636   9.6252661  28.0833435  56.4124107
  10.3364649  29.2933922  55.8458786  74.2658386  44.0139999  34.8289108
  74.1814117  44.3592720  35.7176704  74.3193893  43.0653267  34.9445877
  22.9412994   2.1338570  41.1950302  22.4544182   2.5743308  40.4984970
  23.7664433   2.6156392  41.2520638  36.1059647  43.7503738  88.7380447
  36.5426254  44.0254211  89.5442123  36.7352409  43.9496231  88.0448380
  58.2078743  34.3024521  14.2260008  58.5190544  33.7066803  14.9075108
  58.2151642  33.7763634  13.4263687  11.5986481  25.3382320  15.4830360
  11.6088514  24.7383747  16.2288914  11.1739759  24.8426113  14.7828617
  33.5874634   2.9796512  45.4706535  33.4467926   2.1702640  45.9619141
  33.2008553   2.8088243  44.6118240  67.1307068  58.2819672   5.2811480
  68.0017395  58.5715752   5.0097399  67.0109253  58.6649895   6.1501570
  14.7476311  39.4658508  12.7513561  15.0648699  40.2007294  12.2264347
  15.4890709  38.8617210  12.7904301  49.9939117  42.3666000  83.5538559
  50.6311264  42.7689705  84.1440125  50.0527000  42.8828239  82.7499313
  60.0657196  45.5499039  34.0396461  60.2301521  45.9544907  34.8914108
  59.8770370  44.6335983  34.2421532  44.7662544  30.7419243  41.1196251
  44.5363007  31.1405430  41.9589462  44.9655457  31.4839077  40.5486870
  21.5366898   4.9000297  43.7040062  22.3990631   5.2425737  43.4690437
  21.7217255   4.0851917  44.1709442  76.8796387  69.7032318  68.0818176
  76.1613083  69.2881165  68.5592117  77.6433868  69.1611252  68.2794113
  56.1210518  43.5827942   3.3062851  56.4371948  43.3380051   2.4365926
  55.8012276  42.7635765   3.6842153  76.2309036  39.6012421  70.6997375
  75.8598328  40.4797897  70.7815170  76.5765610  39.4052238  71.5705566
  19.7109509  36.6714325  10.4439135  19.4495220  35.9197006  10.9756927
  19.0368862  37.3298759  10.6121988  48.1130524  49.4156799  42.8592911
  48.4083138  50.0696030  43.4928818  48.7569427  48.7104912  42.9252014
  79.5635071  64.0431671  53.7884331  79.4375305  63.2305450  54.2783318
  80.4292145  64.3521118  54.0555305  67.9663162  56.7842255   7.8106065
  67.2976303  57.3766022   8.1543760  68.3277893  57.2447243   7.0533009
  68.6386948  42.0483704  80.3554688  68.6869202  42.5037079  81.1960526
  69.3618317  41.4217377  80.3806839  73.0945358  25.9305344  76.3031845
  73.3759918  26.4865341  75.5766296  72.7851105  25.1274166  75.8842697
  22.2144814  56.6893311  73.1510620  22.3641281  56.7201767  74.0959930
  23.0838795  56.8029404  72.7670517   1.5223725  51.9399147  74.7396622
   1.1064008  51.7018700  75.5682373   2.4333212  51.6639977  74.8410263
  51.0110588  41.8379440  12.2780495  50.8300591  42.7758179  12.2158442
  50.6486320  41.4700966  11.4720917  54.7533875  58.8534164  55.3705978
  55.1036911  58.4178810  56.1476593  54.4502983  59.7037735  55.6888123
  43.7840271  61.7660637   6.4316363  43.4181061  60.8838196   6.3685412
  44.6369972  61.6423683   6.8480158  77.5218277  20.2299004  47.4707680
  77.3181686  21.0415039  47.9355888  77.7626877  19.6123676  48.1613274
  73.1352997  36.3498993  43.4670944  72.6606674  35.5932922  43.1228485
  74.0193481  36.0226974  43.6333160  63.9290161  56.2926102   1.8928047
  63.7887764  56.1385841   2.8270638  64.7605286  56.7648315   1.8500817
  82.9893265   6.6706877  47.2785606  83.9363556   6.6991115  47.4148178
  82.6632690   6.1066990  47.9798698  70.1642990  63.0796165  75.3123245
  70.7398224  62.3152657  75.2845764  69.3262939  62.7607460  74.9772034
  45.9131813  59.7990913  60.2855072  45.8198967  59.3492355  61.1252441
  46.8587837  59.8582649  60.1492386  82.2915115  20.8857517  50.1315002
  81.9789124  21.1470108  50.9976730  81.7914429  21.4291000  49.5224533
  80.0430145  23.3502579  18.1473789  80.4306183  23.3910027  19.0216427
  80.1987076  24.2184849  17.7756577  43.7281723  56.0578766  22.6970081
  43.8374252  56.9847565  22.4844322  42.8273087  55.9892311  23.0131874
  59.9749413  25.5486603  29.7675228  60.3328552  26.1777611  30.3939114
  60.6363602  24.8586121  29.7166252   7.7882590  63.2766876  20.0439014
   7.7893467  63.8105850  19.2494297   7.8872943  62.3782654  19.7288513
  51.0087395  70.2487488  71.3992615  51.4059639  70.4612427  70.5546951
  50.5601921  71.0524979  71.6619797  71.3785248  60.1576500  69.8273087
  71.6309357  61.0713043  69.9605484  70.4728470  60.2016602  69.5206451
  44.7328072  56.0200081  82.0716934  45.2440796  55.2507286  82.3227692
  45.3703880  56.7335091  82.0463715  25.6352272   7.4156284  26.4045753
  24.6819000   7.4743757  26.3417454  25.7918072   6.9004602  27.1959763
  39.7057190  32.6476593   6.5402064  39.1180611  33.1546516   5.9799833
  40.2498894  33.3051262   6.9736199  33.3713112   5.2802377  30.1212978
  32.6591454   5.4907389  30.7252350  33.0910835   5.6478572  29.2831078
  71.2132339  39.4951172  53.9769020  71.4469223  38.6351814  53.6274338
  71.2078705  40.0709763  53.2123146  68.7677765  14.8502073   7.7689128
  67.8210678  14.7224483   7.8293748  69.0756378  14.1135149   7.2409606
   7.3042908  14.5446777  11.2708483   6.7167315  14.7675982  11.9928675
   8.0200481  15.1763716  11.3407516  37.0151672  17.4136467  81.7118683
  37.2157936  17.5346489  82.6399536  36.0692139  17.2692909  81.6881485
   9.3861790  62.8998146  31.7837009   8.9475327  62.8644142  32.6337433
   9.7923965  63.7662086  31.7596970  73.1193085  33.5996628  65.5107727
  72.4292374  33.5782776  64.8477707  72.7478943  33.1311150  66.2582626
  60.3971138   3.0036490  18.4501629  59.4606934   3.1276908  18.6049480
  60.7076340   2.5337853  19.2241364  80.0480270  44.2808151  23.6385536
  80.3521271  43.4034843  23.8710308  80.2835693  44.3793221  22.7160320
  72.0401993  57.1207848  87.4076462  71.8452072  57.7065811  88.1391144
  71.6217728  57.5335197  86.6521301  56.8676872  61.1743126  60.8980064
  57.6034203  60.8565750  61.4214287  57.1401749  62.0438004  60.6047897
  20.7528191  45.1813469   1.8474181  21.2790985  44.3933487   1.9827573
  21.3784561  45.9023094   1.9183149  42.1595993  56.5052299   5.2238050
  41.4710579  55.9263992   5.5510616  41.9761047  56.5906372   4.2882481
  51.1729965  16.8795795  27.6635323  51.4685669  16.1405106  28.1951752
  50.6231308  16.4835644  26.9874763  85.8602829  47.3714294  49.6601181
  85.2230682  47.8182716  50.2173615  85.6176682  47.6234856  48.7691422
  24.2788124   7.9062514  22.5531387  25.2145348   7.9078503  22.7547703
  23.9033680   8.5504723  23.1533489  56.0285149  49.6331520  67.0474548
  55.8780212  48.9357948  66.4092712  55.1602554  50.0030479  67.2072449
  63.5895882  41.7160759  24.8108501  62.9590721  41.1826401  25.2947140
  63.1796608  42.5792122  24.7544308  37.9726028  55.5370140  31.0437469
  37.6705399  55.1815071  31.8795719  37.4305305  55.0993195  30.3873844
  76.0317688  60.9481163  19.0336761  75.5071564  61.6522636  19.4147167
  75.9415283  61.0669403  18.0881767  84.6015244  63.9808922  52.9184837
  84.9324265  63.5834656  52.1130142  85.3010788  63.8450317  53.5575409
  74.0503693  63.0224380  55.2832565  74.9299469  62.6810875  55.4446602
  74.1935654  63.9171486  54.9746704  43.8700371  62.6913834  40.8649025
  43.2656975  63.0688133  40.2257271  44.0028343  61.7915688  40.5666924
   9.9405251  63.6986694  37.2812157  10.4959784  63.9495392  36.5431328
   9.0858727  64.0787125  37.0778313  86.6374664  27.2851048  49.3655586
  86.5340805  28.0760479  48.8364525  86.3870010  26.5706768  48.7798195
  13.9664421   7.3463340  11.0048761  13.4603605   6.5695124  10.7668390
  14.8010073   7.2374716  10.5489359   2.6763790  68.0598526  87.1588898
   2.4657812  68.6676941  87.8676987   2.2848139  67.2298355  87.4308853
  27.5993881  55.4558372  15.8675776  27.6755753  55.9918213  15.0781794
  26.7267990  55.6533432  16.2078876  25.8321438   0.6163420   5.0246358
  25.6341515   1.5347046   4.8412194  26.3162308   0.3173351   4.2549047
  84.0456543  32.4554710  60.5456619  84.2519760  32.2167625  59.6419601
  83.1256866  32.7185898  60.5198174   5.8473182  23.0049744   8.1731501
   6.1376762  23.6364269   8.8313217   6.5917311  22.4131927   8.0641737
  54.1122627  10.2713785  17.1904011  53.4490013  10.2109604  16.5028915
  53.6260757  10.1401873  18.0044308  32.0256195   4.3082709  86.7289658
  32.5368004   4.2419424  85.9224091  32.5561180   4.8596606  87.3040924
   1.2873164   3.0055442  32.9464531   2.0994964   2.5541131  33.1762466
   1.3576713   3.8583395  33.3754311  76.3551712  53.3354874  10.7905531
  76.8625946  52.5246353  10.8261538  75.8278580  53.2533493   9.9959278
  66.9462967  23.7149315  32.1441956  67.1853180  23.0846882  31.4645653
  66.2077255  23.3090954  32.5981216  11.8373089  11.0304480   3.8801575
  11.4046459  11.2112465   3.0456839  12.7141571  10.7341576   3.6360657
  53.8208694  10.2579536  23.2794533  54.1097908  10.5104036  22.4025135
  53.5448380   9.3460503  23.1874275  81.7818680  67.3191986  69.9495087
  81.3564377  67.7127151  69.1876831  82.6808243  67.6464386  69.9174728
  23.0641479   2.5692511  21.3179016  23.2141342   3.5110548  21.2357941
  23.5532494   2.1845233  20.5905800  29.2967548  40.0591888   9.8797846
  29.3853760  39.4814758   9.1217451  29.6181450  39.5390091  10.6162329
  12.1612253  29.4075928  16.3820000  12.4843092  28.5597954  16.6871052
  12.8764658  29.7599869  15.8523960   1.0441319   2.6815479  50.1745148
   0.7063096   3.1494257  50.9381866   1.6739620   2.0575140  50.5352440
  82.8609619  17.2131405  83.2743912  82.6634369  18.1481857  83.2204971
  83.3914108  17.1256561  84.0663528  30.7379665  29.0366287   9.2630682
  29.8245392  29.1191730   8.9890823  31.0209961  28.1960983   8.9030199
  84.3384857  17.8147106  85.6322708  84.9572983  17.5140667  86.2977905
  84.5054703  18.7542171  85.5569382  58.7702599  44.7533112   2.5698647
  58.5665779  44.5131302   1.6659511  59.3747406  45.4913101   2.4911926
  60.2527046  48.8074875  58.1244392  60.0511551  48.1537666  57.4549179
  60.5305519  49.5786972  57.6302109  11.3112059  45.7972031  27.3680916
  11.3651447  45.0467873  27.9598675  10.7980900  46.4458427  27.8499737
  84.8585968  64.2571793  10.2235260  85.6696091  64.7641907  10.2613983
  85.1411667  63.3466339  10.3088923  34.8699570  67.9163666  40.7327347
  34.0878868  68.3695221  41.0477829  35.5273094  68.0737305  41.4104919
  49.9647484  41.6057777  86.2869644  49.7094612  40.7610207  86.6576920
  49.6897278  41.5584526  85.3713455  49.8961754  62.9269714  45.1026039
  49.5465965  62.0358963  45.0997314  50.5071564  62.9421883  45.8392868
  58.3733177  43.4092522  16.2977657  58.5348549  43.0581245  15.4220667
  57.9557838  42.6896324  16.7710934  63.9012794  56.8344345  51.9806900
  63.9845314  56.8404541  51.0271378  64.5789108  57.4385796  52.2840958
  69.8894119  23.1111164  29.9837284  69.3466187  23.8985271  29.9438019
  69.4041214  22.4597549  29.4773102  23.1472511  10.1561995  24.6847153
  22.6823177  10.3859425  23.8801746  23.8572178  10.7956514  24.7419949
  70.8452301  34.3950729   4.0511327  70.6265564  33.4797478   4.2260318
  71.7663269  34.3758659   3.7914374  51.7193108  44.4186058   9.4871550
  51.3931389  45.2311745   9.1004009  51.1843414  43.7320900   9.0887375
  83.6485672  70.7979889  60.4546890  82.8805847  71.3640823  60.3774300
  84.3089066  71.3466187  60.8779984  21.6149025  10.6680317  55.7906303
  21.6187038   9.8665981  55.2672539  21.5894012  10.3619328  56.6972084
  33.1041451  67.6771317   2.5885758  33.7816200  68.3416367   2.4633129
  32.5246964  67.7805862   1.8337452  64.5663223  68.1798401  82.3102646
  63.7324257  67.7641220  82.5294342  64.3263779  69.0602417  82.0212173
  26.8592339  48.9690590  61.4348106  26.6736889  48.5922623  60.5746765
  27.5406647  48.4054871  61.8012390  70.7689285  40.4246292  80.7315292
  70.3274155  39.6521149  81.0844040  71.6429062  40.3998489  81.1211014
  40.2068100  48.6570663  89.1447754  39.3820534  48.6057510  88.6616898
  40.5111732  47.7509880  89.1959686  47.2636986  70.1329956  77.4202423
  46.7306595  69.3462906  77.3053741  46.6879616  70.8523712  77.1609192
  70.2998657  66.5627975  78.9187317  69.7681808  67.0870438  79.5176468
  69.7336731  65.8308487  78.6739883  23.8224945  32.2254448  72.6893997
  23.9931164  31.4102592  72.2175980  23.5971394  31.9459629  73.5767212
  63.8043327  14.6849604  49.9714088  63.0343399  14.3583746  50.4369011
  64.5474930  14.3492050  50.4726219  82.3992996  23.6131554  14.6516924
  83.0235367  22.9119434  14.8384027  81.6930389  23.1830082  14.1696100
  47.2748947  66.8334503  19.9737206  46.7756271  66.7526703  20.7863922
  47.9800186  66.1920471  20.0610485   0.7196573   3.7811706   8.5694084
   1.6422604   4.0339279   8.5355129   0.6715184   3.1456146   9.2835398
  84.5261307  51.0734138  25.2987556  85.2782135  51.2160988  25.8734303
  83.7646866  51.2224350  25.8593178  57.2799454  45.8122215  30.8980904
  57.5258636  46.4383698  30.2171383  56.3297577  45.7303772  30.8163567
  42.9506416  48.0819778  15.0648241  42.8623161  47.4558678  14.3462029
  43.8938904  48.2243042  15.1439152   4.6026874  22.3643188  72.8081360
   3.9011927  21.7382755  72.6286774   5.0811663  21.9833164  73.5444260
  71.5921555   7.4151049  11.7036247  71.7788925   8.1818523  12.2453451
  70.8721313   7.6918664  11.1368837   4.8818192  26.9648056  81.8320160
   3.9542394  27.0891323  81.6310883   5.3400517  27.5199680  81.2011032
  56.5047989  51.4645844  64.9773407  56.5343323  52.4050179  64.8014374
  55.6524086  51.3247070  65.3897629  48.8070374  30.3987503  66.3345795
  48.9811363  30.8338795  67.1691971  47.9506950  30.7310104  66.0652924
  62.8952560  46.0485497  33.6880951  62.7006683  46.8595963  34.1577415
  62.0915413  45.5332375  33.7568436   1.3124197  10.8027773  21.2307453
   0.3755261  10.8670263  21.4160404   1.3637999  10.7329369  20.2774811
  64.2315598  22.4187889  24.7298756  64.0171585  22.8694687  25.5466671
  64.8772202  22.9845676  24.3064899  42.8458710  33.6469803  63.5941162
  43.7650185  33.6212387  63.3281517  42.6666374  34.5747528  63.7468987
  65.9187088  68.5262833  30.9562988  65.5722580  69.3357391  31.3317738
  66.7430496  68.3805542  31.4204750  18.0569534  35.8922272  85.3545227
  18.2147732  36.8224716  85.5156937  18.1838703  35.4764862  86.2073364
  39.6121521  71.1302567   9.6295013  39.2516861  70.2724762   9.8542347
  40.0449371  71.4255447  10.4305859  15.1168299  18.2194881  26.3002872
  15.4980679  17.3705730  26.5244122  14.1954651  18.1410751  26.5476151
  73.8601379  19.2835255  78.4596252  74.6239166  19.6442814  78.0093689
  73.1368027  19.4141846  77.8464890  38.7274818   0.5363182  71.8119125
  38.0737267   0.2834969  71.1600494  39.2225266  -0.2658611  71.9782486
  57.5384369  20.3305264  58.0927544  56.7087669  20.0682163  58.4915962
  57.2843094  20.8029728  57.3000107  67.5669250  22.1010380  41.0656738
  67.0844650  21.2772865  41.1356316  68.3297195  21.8869705  40.5285034
  77.4250031  48.9022064  10.2596102  77.2625580  48.0415154  10.6456842
  76.9183884  49.5072212  10.8013954  71.7672424  67.9045334  39.7401161
  70.8679657  67.9127808  40.0679283  71.7531738  68.4955292  38.9872818
  13.8315849  22.6214046  76.1886520  14.6407900  23.0470123  75.9053192
  13.4845476  23.1965256  76.8705826  37.2974739  55.1193542  42.5750961
  36.9867744  54.2335587  42.3878479  37.1713676  55.2230301  43.5182686
  45.8197708  62.9194374   3.3641973  46.0833054  63.2476311   2.5045049
  44.9863968  63.3554955   3.5418766  61.8063583  37.9935760  23.8730507
  61.9727554  37.0656242  24.0387135  60.8832779  38.1148186  24.0954418
  75.2492523  15.1270008  81.2518692  75.5115433  14.2367001  81.4859619
  74.4216461  15.0175486  80.7835541  72.3160934  52.9221382   0.3387595
  71.8951950  52.4342842   1.0466230  73.2319412  52.9925957   0.6080121
  66.5873184  68.2795334  61.0314178  67.5062485  68.0123825  61.0106850
  66.2514496  68.0496292  60.1650658  37.7161255  62.5303993  57.0518341
  36.8052559  62.5404549  56.7578125  37.6632576  62.3425407  57.9889297
  77.8513947  13.6078558  83.5258713  77.5342102  14.5100174  83.4842834
  78.1825867  13.5113373  84.4187469  17.8055630  37.6257019   3.8684134
  16.8714428  37.5463448   4.0616841  18.2129288  37.7905502   4.7187724
  11.3327980  49.2638359  27.9767513  11.5618668  49.0234184  28.8745022
  11.7928886  50.0893898  27.8250656  68.4408035  18.8868732  62.6981163
  68.3797760  18.5951977  61.7884865  69.1767807  18.3927307  63.0592232
   6.6567760  39.7116623  84.7240601   7.5919914  39.9144630  84.7022552
   6.3603659  39.8513832  83.8246994   4.7875509  43.7634926  82.9957809
   4.6059537  44.5848732  82.5390701   3.9250801  43.4345512  83.2491074
  52.0156631   1.8711202  47.1600990  52.7557983   1.5051550  47.6443481
  51.3905182   2.1294432  47.8373680  55.5809822  60.1344643  87.9321976
  55.7643204  61.0686378  88.0319214  54.7210922  60.0147781  88.3353119
  54.8360786   3.9053445   4.1388378  54.4188614   4.5077372   3.5229790
  54.1219177   3.3501985   4.4519105  64.9008865  42.9091377  83.6432877
  65.3087845  43.0759926  84.4930038  65.5316696  43.2425842  83.0051956
  51.0174713  47.6013680  27.2038555  51.9403191  47.7019577  26.9704819
  50.6870651  48.4975815  27.2659760  11.2803650   0.1157299  63.4923706
  10.5542936  -0.4587765  63.7352638  11.2223568   0.8477107  64.1064301
  55.9366875   8.9359827  67.4387894  55.6071930   8.3715305  68.1381149
  55.7629738   9.8254013  67.7469940  72.8777618  23.3755932  57.9491730
  73.4787216  22.6752415  57.6950264  72.1537170  22.9242096  58.3830338
   9.7279854  24.6091099   5.7535882   9.9763966  24.9337730   6.6191039
   9.9605169  23.6807327   5.7702093  33.1724892  63.9545860  23.4117641
  33.5852280  64.5618896  24.0258198  32.2584496  63.9138947  23.6930237
   8.7821121  58.7540131  53.9693680   8.1132488  59.2970505  53.5522766
   8.4761324  57.8561974  53.8407936  86.1809616  69.7234955  59.7075729
  86.4211731  70.2691116  58.9586868  85.2651291  69.9424438  59.8794632
  13.8575916  12.9575405  29.2127380  14.5321350  13.6312885  29.2980938
  13.0334702  13.4251928  29.3482285  45.4199371  29.8892975  13.4951372
  46.0003128  29.3873386  14.0673580  44.5385246  29.6127777  13.7458897
   7.2712798  43.1469803  81.9413071   7.5248938  44.0184212  81.6371613
   6.3805337  43.2590218  82.2733459  70.4164658  19.7433300  80.2185745
  70.1441956  19.9166794  81.1197128  71.0961990  20.3943520  80.0443039
  73.0272522   8.4595413  72.5492630  73.1608200   8.8184395  73.4265213
  73.7821808   7.8886218  72.4065475  61.3650742  30.3150902  53.0601845
  62.1314240  30.6181030  52.5732307  61.1663742  31.0309620  53.6637383
  51.8217659  69.3298950  54.6315689  52.4819336  69.9403381  54.3032951
  50.9875031  69.7722168  54.4747581  33.5994682  54.9677963  12.8702383
  33.8077698  54.0367584  12.9477434  32.9709053  55.0134315  12.1497803
  36.4958267   5.9212861  30.6989784  35.5679665   5.7429576  30.5456543
  36.5434418   6.8718996  30.8004608  41.9543915  40.5333672  10.4478378
  42.4423714  40.8395424  11.2122755  42.3562050  39.6928406  10.2280827
  31.7707939  38.3432732  73.1379166  32.6313553  38.3284302  72.7190475
  31.3690300  37.5107956  72.8893280   1.4565002   0.6544306   5.3918924
   2.1642513   0.0234499   5.2608070   0.9704038   0.6438242   4.5673747
  79.5944519  25.5806789  33.8801689  79.1579514  26.2589798  33.3647919
  78.8978958  25.2019138  34.4164429  61.7204247   2.2360885   9.1907148
  61.8405762   1.9290125   8.2921047  62.3319893   1.7110710   9.7070246
  79.1686401  63.6404800  45.8684578  78.3344803  63.3283195  45.5177994
  79.6484222  63.9540253  45.1018181  20.9164658  62.8758392  39.4157562
  21.3984013  63.0104485  40.2317543  20.7263279  63.7596893  39.1012917
  73.6510010  69.3535614  25.2302094  73.2118073  69.6340485  26.0331230
  74.3216476  70.0195618  25.0788631  30.1885872  19.3104248  87.0773621
  30.2557354  18.5245476  86.5350342  30.7873688  19.9354038  86.6685867
  53.6401863  37.2675934  17.7067108  53.4567490  37.6876907  18.5470085
  54.3649483  37.7734451  17.3391972  11.8033152  23.0748310  58.6833839
  11.6824303  23.8426437  58.1247444  11.2443628  22.4035168  58.2920532
  80.1491928   2.0422511  27.9952488  80.4176331   1.1821815  28.3184376
  79.4710236   1.8534243  27.3466644  49.6443596  67.0928040  87.8173828
  49.2018814  66.3302612  87.4445953  49.5617218  66.9785614  88.7641449
  10.5593863  67.5411911  56.0243301  11.3776274  67.1828003  56.3682365
  10.7165318  67.6384354  55.0851402   5.0350909  19.1072693   4.6065154
   5.4172215  18.2902145   4.9268723   4.4848733  19.4132347   5.3275404
  10.9958763  58.1324501  12.9133205  10.6181583  57.9739075  13.7784357
  11.4349871  57.3118515  12.6896486  85.9268799   7.8045392  53.7915955
  85.7126236   8.7365122  53.8334618  86.7251434   7.7186484  54.3127823
  53.5566406  26.4778137  69.6813049  53.0717392  25.9927597  69.0136032
  54.1565933  27.0342960  69.1847000  70.7428131  30.8655720  42.6785851
  71.4433136  31.0721798  42.0598412  70.5114517  31.7085152  43.0686493
  27.8591232  13.0337191  87.1557312  27.2888889  12.5436392  86.5633698
  28.5295887  13.4103289  86.5857544  17.1306705  36.0180016  72.3564911
  16.3282146  36.1043587  72.8711090  17.5819836  36.8538437  72.4744720
  47.6444206  39.4701843  73.3288116  47.6620865  38.6286812  73.7846603
  47.0518723  39.3301010  72.5902405  61.2551041  41.6010513  68.2710953
  61.7614288  40.9883614  68.8044662  61.4059029  42.4541817  68.6781158
  62.9714890   7.7726855  43.3264771  62.3072853   7.9576674  42.6625137
  63.2711601   8.6356297  43.6124077  16.5691986  63.9381599  27.1658783
  17.3703556  64.1747437  26.6985378  16.3828735  63.0426750  26.8837032
  55.4534645  17.5245285  71.2060471  55.2449875  17.4940891  72.1397705
  56.2909241  17.9860439  71.1625443  45.9837608  21.0862446  83.7784805
  46.3744965  20.2132187  83.8156281  45.7353935  21.2761860  84.6831741
  17.5614414   4.3016891   9.9230757  18.2199707   3.8326225   9.4106817
  16.7555485   4.2152991   9.4138565   9.3862352  66.7312164  40.6587067
   8.9014225  67.5491867  40.7688141   9.7685232  66.5616226  41.5197105
  23.0270233  59.2405281  18.7022705  23.2151184  60.0847206  19.1123810
  22.8744106  59.4505348  17.7809467  10.5806494  21.8855133   5.3078485
   9.6665230  21.7859592   5.5737338  10.6532688  21.3723240   4.5031157
  62.7845573  58.6267166  38.9841614  62.0396385  59.0236282  38.5327301
  62.3976097  57.9387436  39.5256348  11.1468039  52.9812088  29.6184578
  10.5416460  53.7144089  29.7299747  10.6521969  52.2157669  29.9111938
  74.7517776  11.2686148  25.2168617  74.0431137  10.6347046  25.3272362
  74.9918442  11.5173216  26.1094685  63.2806778  31.7865276  51.8565292
  64.0139084  31.8165588  51.2419548  63.5215302  32.4040527  52.5470963
  70.0014267  15.6275206   4.6856761  69.3354492  16.0329685   4.1304049
  69.7372665  14.7094049   4.7449861  83.8316879  14.8587446  37.1792145
  83.4408798  14.5495148  36.3619766  83.8555069  15.8112841  37.0879250
  57.4515419  49.7063599  72.0770721  57.3879585  48.8434982  72.4865265
  57.2361526  49.5514984  71.1573639  58.2153854  47.5917778  28.8111038
  57.7428665  47.5927544  27.9786625  59.0608025  47.9916267  28.6070976
  52.1864853   3.6693897   8.6690092  51.8386688   4.4223700   8.1912251
  52.7971878   3.2586665   8.0569820  49.8280334   0.9610301  86.1404800
  49.2442055   0.3547484  85.6846313  49.8735542   0.6229080  87.0348129
   1.5967516  17.3597965  71.3181686   2.2678504  16.9967175  70.7402191
   0.7680046  17.1032104  70.9137268  49.2666855  63.6702728  54.8586006
  48.9673729  63.4696388  53.9718132  48.9685783  62.9288292  55.3855019
  29.5663052   5.2194748  62.5219269  28.9514637   4.4952717  62.4047508
  29.6521168   5.3096318  63.4710007  70.7198715  32.4892120  71.9834824
  71.4627380  31.9052544  72.1363678  71.1171799  33.3143578  71.7050858
  86.2920074  51.8852882  76.9297256  85.4661942  51.5792084  76.5547867
  86.0403900  52.6064301  77.5066757  33.4374199  10.9713116  61.4852715
  33.6893959  11.8742952  61.2919846  32.9407539  10.6914253  60.7163658
  56.7127991   4.5965986  26.0606422  56.7141457   4.9852157  26.9354038
  57.4311905   5.0336189  25.6033058  65.2225952  12.9938946   3.6343970
  65.3821945  13.8643045   3.9992890  64.3001099  12.8208599   3.8223386
  71.0928574  49.7429733  88.1156921  71.3962936  49.1568451  87.4224319
  70.8155975  50.5350838  87.6553345  25.3636379  27.3828678  55.0296440
  26.0162277  27.6276493  55.6857262  24.8481140  28.1782703  54.8962250
  47.2158585   1.9712830  74.0696716  47.9086494   1.5938506  73.5276184
  47.1285324   2.8709130  73.7546005  85.9902878   1.5086175  58.9609222
  85.1843109   0.9926994  58.9824829  85.7171021   2.3903465  59.2142143
  41.4778862  67.5176239  87.8639450  40.7307358  67.1904221  87.3630066
  42.1696205  66.8741150  87.7102127  40.1264954  38.2593918  66.0585098
  39.8566017  38.9286461  65.4296265  40.1702156  38.7212219  66.8957825
  58.3933372  60.2088089  63.2486954  59.3191719  60.0019493  63.1211319
  58.0699234  59.5151138  63.8235207  60.6214104  33.3799782  18.8104496
  60.8926048  33.9313850  19.5443668  60.7429008  32.4844818  19.1259823
  14.2644358  40.3803177   7.8935971  13.7485371  40.5886574   7.1147037
  13.6566086  40.5017281   8.6230068  61.2038116  42.1129532  53.5061226
  61.2522163  41.3389969  54.0672646  61.1357574  41.7613297  52.6184502
   4.9337521  68.6491852  17.2956734   4.3234148  67.9901962  16.9648457
   5.7066469  68.1493530  17.5584126   2.4319999   0.9645272  26.2247982
   2.9140420   1.1577759  25.4207325   1.5166024   1.1334002  26.0017262
   6.3036585  41.2561073  27.5439854   7.0138187  40.6769180  27.2675018
   5.8650594  40.7781601  28.2478523  12.2898340  25.9439125  68.5437164
  12.6328640  26.1578312  69.4113541  11.3646345  25.7492943  68.6932526
  54.0648613  52.9720116  43.0317535  53.8993492  52.0293045  43.0436859
  54.2888794  53.1643486  42.1212311  33.1500435   3.2428830  25.5191002
  32.6623878   3.7173257  26.1923962  32.9755402   3.7262843  24.7115726
  30.8063107  55.7693710  52.6183472  31.7139931  55.8527412  52.9105682
  30.3880634  55.2275848  53.2875023  10.4002275  12.1113186  53.4676628
  10.5381708  13.0577831  53.5052147  10.2170334  11.9323845  52.5453529
  29.4298210  43.5788574  15.0455437  29.9595470  43.4515114  15.8325672
  28.5704937  43.2253952  15.2754431  54.3825912  63.3842392  25.2871914
  55.1175308  62.8707008  25.6224136  53.7155495  63.3223572  25.9708996
  55.6085472  13.5911064  32.9607925  54.8409348  13.6068516  33.5324135
  55.5477638  14.4019575  32.4557610  37.3107338  68.4233170   8.0468998
  36.8773956  69.1049576   8.5605364  38.2395248  68.6523895   8.0801554
  84.1552429   1.8888189   8.0121927  84.2164993   2.6616540   8.5736237
  83.2923126   1.9573363   7.6036792  53.7300148  64.1182327  63.6215858
  53.8741226  64.9083633  64.1423187  53.6737442  64.4329605  62.7193604
  54.3155632  18.3992290  77.6267624  53.5631218  18.0718708  78.1196060
  54.5785065  17.6632175  77.0741577  58.0643539  32.6770248  11.5743027
  58.5686417  31.9456749  11.2178621  58.0443153  33.3214836  10.8668385
  72.1583099  29.9665470  13.0346317  72.1480713  29.3018322  13.7233133
  72.9659576  29.7966785  12.5497799  82.9944077   7.7107172  27.5488224
  82.0909576   7.6622748  27.8613300  83.3562317   6.8425612  27.7266483
  72.6614838  66.6935806  57.3456841  72.3509064  65.9527588  57.8662300
  72.9725189  67.3270569  57.9923668  65.6343002  24.5602474  48.2426987
  65.4016571  25.3811646  48.6765213  65.6301270  24.7729778  47.3094482
  10.4375277  37.6490746  21.8720436   9.4925241  37.6444969  21.7197933
  10.7769098  36.9675980  21.2918377   4.6427712   7.2569685  75.3129730
   5.2407360   7.7809491  75.8460007   4.4774866   7.7953792  74.5390091
  41.3783760  63.5391235  54.7653732  41.8517876  62.7295265  54.9568634
  40.6673698  63.2690773  54.1841927  47.3986969   3.8501923  61.0329094
  47.8628120   3.9121926  61.8677635  46.4743881   3.7975931  61.2760506
  69.5664062  39.8187675  68.4834518  70.0213547  40.4529533  67.9293137
  68.7195816  39.6911354  68.0558701  76.8473969   9.3605194  33.2061348
  76.7953033   9.9134026  33.9857750  77.5838470   9.7163906  32.7089157
  51.0250816  43.5253639  60.0745201  50.9651794  42.7829666  60.6757622
  51.6853600  43.2618179  59.4335747  70.1842575  67.0086365  51.2334709
  70.9544983  67.4434738  50.8675728  70.5413895  66.3509598  51.8302536
   8.1678619  67.2352829  56.8667793   8.3995752  66.8704147  57.7208366
   9.0049887  67.3332214  56.4130630  59.6485558  56.1829033  30.7024136
  60.5302696  56.0661545  31.0562267  59.7877235  56.4155731  29.7844105
  42.2061234  55.6400681  82.9130707  43.1018372  55.7378540  82.5900040
  42.2964973  55.1327324  83.7197189  77.4979324  55.8086967   4.7479072
  77.5962067  55.3831940   5.5996828  77.7984695  56.7059479   4.8922968
   7.3362975  57.4294662  18.4897366   7.6399260  56.6765671  17.9826031
   7.1159430  58.0885086  17.8314533  23.2757244  63.0687561  33.2276611
  23.9090557  63.6364708  32.7885399  23.0011940  62.4486656  32.5521202
  55.5759315   7.0854607  29.1726570  55.8346100   7.5659714  28.3862553
  56.3890152   6.6949725  29.4930420  34.7179146  59.4767494  28.3326492
  34.5785408  58.8852310  27.5931129  34.9595909  60.3108215  27.9299774
  10.2967701   8.1524134  34.1886559  10.6836729   8.5532484  33.4102783
  11.0334549   7.7334437  34.6336174  22.6729469  22.0873470  15.9117088
  23.0682220  22.8887997  15.5686903  21.7325974  22.2661381  15.9142113
  75.4757233  22.1190166  52.0982475  75.0573502  21.9138775  51.2621155
  76.1055298  21.4105568  52.2311211  37.9542999   0.8164697  51.2933578
  38.2500877   1.4919767  51.9036331  38.1316490  -0.0086235  51.7450218
  71.3516006  60.2294426  27.8868656  70.8691788  61.0561714  27.8918457
  72.0381927  60.3567238  27.2321777  49.8170090  21.0108242  20.7798615
  49.7875900  21.5848694  20.0144596  49.7459641  20.1269970  20.4192581
  84.9664154  70.1392670  72.0870209  85.2542191  69.7238388  72.8999329
  84.9564362  69.4289093  71.4455185  78.4061661  38.5339050  28.4368172
  77.6211700  38.1092110  28.7827244  79.0845184  37.8604126  28.4865761
  41.9328918  48.2710953  45.9998970  42.5134430  47.5355110  46.1951141
  42.2156639  48.9642448  46.5964012  54.1239853   4.6371126  29.7227135
  54.6989326   3.8886075  29.5633240  54.6794128   5.4020543  29.5723991
  41.6435318  61.3104820  86.6070099  41.5872002  61.3659439  85.6530838
  40.7412682  61.4206924  86.9070282  67.2890625  57.3595505  83.0100632
  66.8029556  58.1803932  82.9316635  66.7458496  56.8127747  83.5776825
   2.8732285  51.6842422  28.2685547   3.6315610  51.4936790  28.8206863
   2.8257689  50.9443436  27.6631393  50.1785965  71.1890564  11.9612646
  50.8180275  71.4712448  11.3072529  49.3703156  71.6392212  11.7157841
  85.8995285  51.1705246  88.6423264  86.4617462  51.2739143  87.8745728
  85.3803787  50.3883553  88.4554443  16.0908928  26.4954357  28.7734509
  15.2394886  26.2447510  28.4149818  16.5640259  26.8674088  28.0291309
  24.9882736  49.6508980  40.6288986  25.3440800  49.4643936  41.4977188
  24.2133331  50.1868935  40.7974434  62.9400864  12.9658470  68.1157532
  63.6025734  12.6492014  68.7298203  62.1154480  12.6132746  68.4502640
  34.6178474  66.2607422  37.2036819  33.9908524  65.5737686  36.9774513
  34.6800728  66.2233658  38.1581230  75.0273514  27.3145771   1.5980022
  74.6733627  26.5363045   2.0283740  75.9756317  27.1848507   1.6106752
  66.3645706  69.0346603  47.3888245  66.3743134  68.0836563  47.4971199
  65.8712540  69.3565979  48.1432991  73.6054306  38.1366310  80.9341660
  73.9009094  37.7404671  80.1144180  73.8535614  37.5045166  81.6087646
  82.9811172  39.1970520  36.2211494  82.0352936  39.1773262  36.0753632
  83.1196823  39.9523849  36.7925568  64.5079117  18.3517952  20.7119694
  64.9671936  18.4595470  21.5448437  63.6024666  18.5953999  20.9044876
  21.9281693  56.5206795  22.0228691  21.3187904  56.2556114  21.3339386
  21.7429008  55.9248734  22.7487621  53.3173828  48.5060539  62.8431625
  54.0001030  48.4955521  62.1723328  52.4971275  48.5179443  62.3499413
  17.4990349  53.1030159  51.7568054  16.8214684  53.2631226  52.4136963
  17.0451260  52.6405182  51.0523262   6.7077026  40.5963211  82.2220383
   7.4047279  39.9895058  81.9727097   7.1041641  41.4636002  82.1391296
  59.4405556  30.1608124  10.5301409  58.8113327  29.5813122  10.9596663
  59.7186356  29.6777191   9.7519855   4.8612361   5.0706306  20.6536827
   4.8140879   4.6194472  19.8108063   5.2456636   4.4269290  21.2487431
  59.4162216  64.4998932  44.8953590  58.9157448  64.9262695  45.5910301
  59.7613716  63.7047768  45.3014336  64.8841782  64.4109497  47.9679756
  64.2915955  63.7583427  48.3410416  65.6559830  63.9102936  47.7035904
  30.8093662  57.7483292  18.6034527  31.2388706  58.4466438  19.0975323
  31.2347775  56.9454193  18.9044342  14.8557119  18.4383411  12.5306301
  15.7816582  18.2019157  12.4762402  14.4287891  17.8868465  11.8750229
  68.1984406  23.3494587  57.7231178  69.1134033  23.2548733  57.4582939
  67.6986694  22.9872589  56.9914932  41.2178802  22.6130543  66.8870773
  41.2491722  23.5328312  67.1502609  41.0008659  22.6378441  65.9551315
  49.8582840  47.3276482  12.0422068  50.1895218  47.7455101  12.8371305
  48.9550438  47.0920219  12.2540340   7.9808927  54.7140007  70.1781921
   8.1936626  53.8613777  70.5576553   8.3265419  55.3485451  70.8059692
   9.8477478  23.4902134  78.7285004   9.0587349  22.9520206  78.6649551
   9.7503834  23.9612141  79.5560913  80.2264938  49.6524429  69.1231613
  81.0391541  49.6547813  68.6173859  80.1076736  50.5640602  69.3897476
  65.4740143  29.2136879  32.4131050  66.0701370  28.8919125  31.7368412
  64.6056290  29.1544628  32.0148163  54.2955780   7.3493347  33.7567139
  54.7208481   6.7816310  34.3994331  54.1514969   8.1728954  34.2227821
  16.4608593  13.5092735  62.7135887  16.1666985  13.6297054  61.8107071
  15.6528053  13.4199324  63.2188606  41.8684196   0.7690373  84.2018967
  42.7896423   0.8044428  84.4594421  41.3915634   1.0673693  84.9763947
  32.8264580  14.2132130  81.8104553  31.9697361  14.2810259  81.3889542
  33.4387703  14.5704670  81.1672745   1.0427469   8.9009981  30.9186020
   0.9977259   9.3025389  31.7863388   1.6717439   9.4391594  30.4379997
  67.2928543  54.8903465  62.9115181  66.7769699  54.3812943  63.5367851
  68.1635284  54.9426003  63.3057594  11.0019283  69.9950104  45.5086250
  10.6921988  70.5742340  46.2048950  11.0493021  70.5555191  44.7341461
  83.8435822  36.7692261  37.4533272  84.4791183  37.2754517  37.9593544
  83.5585251  37.3659630  36.7613144  49.2102470  56.6661758   0.5855051
  49.0934982  56.8889236   1.5090764  50.1581268  56.6822548   0.4532189
  51.1240044  53.2491188  41.0782776  51.5383034  53.8106575  40.4230919
  50.9539795  53.8307915  41.8192101  86.2790527  41.8317184  36.8129425
  87.1411057  41.7869911  36.3993034  86.3173981  42.6145210  37.3624725
  70.8031769  12.8760881  62.5987053  70.1459045  13.4446735  62.1975441
  71.3982925  12.6553192  61.8822365  42.2534485   0.3957403  70.4790039
  41.3085098   0.4581073  70.3396072  42.4699860  -0.5084075  70.2512817
  74.4545822  67.1476974  21.1564713  73.9311295  67.9406204  21.2726192
  74.8619843  67.0024338  22.0103779  82.2099686  33.0366478  35.4736328
  83.1267929  32.8398781  35.6658363  82.0986328  32.7869835  34.5562973
  60.0828438  15.9608936  56.7589073  59.5536270  16.4878864  56.1602097
  60.4258308  16.5906239  57.3929710   0.6719156   7.3965473  68.0482941
   0.1426803   8.1941299  68.0465393   0.6729067   7.1077490  67.1357040
  12.3608227  17.7220306  26.6032314  11.4536476  17.6988602  26.2987194
  12.4014730  18.4872913  27.1767788  62.4361153  43.8840561  69.2706757
  63.2246399  43.8338432  68.7303543  62.5769157  44.6483879  69.8294296
   7.5988145   7.8092394   1.0048044   8.3025341   7.3985167   0.5024928
   7.8101931   8.7427464   0.9940531  51.6652641  55.6779099  62.7750168
  51.4099312  54.7974472  63.0503807  50.8518257  56.0781021  62.4677811
  52.3226624  57.2388229  55.2725334  52.7490654  56.3820343  55.2544479
  53.0452766  57.8651390  55.3147697  52.3980713  23.3422050  86.9428024
  52.6440468  23.2763672  87.8655090  51.8580933  24.1310844  86.8945694
  21.9766865  53.5392189  33.0726318  21.5244503  53.0780983  33.7790909
  22.8819599  53.6118355  33.3750153   1.4993595   7.0299578  84.6966934
   0.8188742   6.4576163  85.0510864   2.2904365   6.7882147  85.1783447
  76.3805466  20.1319485   2.3518500  76.2564545  19.8825207   3.2676113
  76.2821732  19.3135471   1.8652592  26.6135578  58.5355301  35.3018761
  26.1719971  57.8051033  34.8685913  26.3168125  59.3111534  34.8258705
  19.2421608  16.7576828  85.1483078  19.7340546  17.5756702  85.2201920
  19.8942337  16.1084614  84.8845978  76.1038742  61.6582756  49.6311073
  75.3408585  61.7057228  50.2071266  76.7701111  61.2105026  50.1525040
  15.4765339  57.7011452  16.2969685  15.9776974  57.1079636  16.8566132
  16.1132584  58.3564682  16.0117168  75.6705093  47.6933899   8.1139374
  76.0216370  48.4729767   8.5442715  74.7639771  47.6405144   8.4166431
  76.2036972   5.3298893  70.7113495  75.5325623   5.0385447  70.0941544
  76.9299240   5.6167521  70.1576920  50.9823494   4.6491890  10.7905102
  51.3510780   4.1246910  10.0797539  50.8904800   4.0348339  11.5187683
  20.8092804   0.5689986  70.7416229  21.5689697   0.2070934  70.2854156
  21.1390324   1.3620892  71.1641159   7.0020194  15.8225574  83.5270615
   6.4232464  16.3843975  83.0117111   6.9450774  16.1716900  84.4164963
  60.7902107  39.1482544  59.6519775  61.3667603  39.3396912  58.9122620
  61.3204384  39.3413620  60.4251518  57.0211601  62.8551407  74.4782257
  57.3311081  62.2139282  75.1177673  56.6937752  62.3277206  73.7496109
  59.2622833  58.2138481  84.8130264  59.0515137  58.7261047  84.0323868
  58.7290421  57.4230995  84.7317963  21.6214962  33.8297386  22.2077293
  21.1816063  34.0383415  21.3835850  22.5105648  34.1665497  22.0966167
  48.6396637  51.0623093  70.1405334  49.0741005  51.2480659  69.3080750
  47.7121391  50.9892769  69.9155960  82.8551254  67.4576111  31.5710812
  83.5679779  67.1850128  32.1488075  82.8695145  68.4140015  31.6077709
  33.2564926   6.3157601  77.3631897  33.5834770   7.1960754  77.1778336
  33.7136612   6.0537820  78.1623154  35.4762115  51.0040092  63.1553001
  36.2747192  51.3354073  62.7444649  34.9061432  50.7755852  62.4210815
  38.1766014  19.4790840   3.6398599  37.5884171  20.2192841   3.4902778
  39.0534706  19.8624992   3.6218390   5.9801955  16.7131023  85.7483215
   5.1397934  16.9581528  85.3611450   5.8446870  16.8031693  86.6915970
  18.0000267  26.2779388  74.0295029  17.3798962  26.7324810  73.4593582
  18.1863766  26.9046688  74.7285843   4.0951715  21.5863533  26.5659122
   4.7033219  20.8553009  26.4566059   4.1670256  21.8214092  27.4910164
   4.6082301  56.2189522  36.9986382   3.6981812  56.5013084  36.9074402
   4.9886804  56.3528252  36.1305542  30.0153446  62.3178368  79.3982239
  30.7602558  62.4639168  78.8151321  29.7199669  61.4310379  79.1918869
  71.0967941  11.4869938  20.2090759  70.8421173  12.2292404  20.7571983
  70.9551926  10.7198849  20.7638035  44.5495605  45.0140991  26.7484531
  44.5417938  44.3632584  27.4502907  43.6493568  45.0264854  26.4233170
  32.9449844   1.2398731  71.9521179  33.0880280   1.0910980  72.8868027
  33.4762611   2.0095005  71.7480316  61.4092903  26.2142334  51.8569603
  60.5702477  25.7707939  51.7320633  62.0139275  25.5162411  52.1088600
  12.3594608  16.8715496  62.1911469  12.8229389  17.4996891  61.6371956
  12.0183096  16.2189693  61.5796013  18.8973274  69.8011017  51.6124077
  19.8253899  70.0162506  51.7053719  18.4570007  70.3571548  52.2551765
  60.1863480  51.6496506  48.6836891  60.0252075  51.1126823  47.9078445
  60.9613075  52.1655502  48.4611740  59.3238106  25.6414757  33.9051781
  59.2844849  24.8444023  34.4337234  60.1921692  26.0033932  34.0818253
  47.1986847  24.6723194   5.1143699  48.1184845  24.8063259   5.3429255
  46.9667053  25.4414349   4.5939097  66.6559296  41.5099487  66.6380005
  66.5211639  40.8268890  65.9811172  67.2560959  42.1281548  66.2210388
  32.1775703  48.5806580  56.3661041  31.4428272  49.1569214  56.5765953
  31.8957272  47.7152214  56.6624489   1.7967539  19.2215900  86.3297729
   1.0512943  19.5955639  86.7995224   2.3707232  18.8870659  87.0188904
  19.4140491   9.5534315   6.6611791  19.5739193   8.6327047   6.8683901
  19.0025806   9.5365229   5.7970958  66.1238098  19.1504421  85.4264603
  65.8466873  19.9148312  84.9213409  66.0611725  18.4206257  84.8102798
  38.0555038  11.2875414  80.1389999  37.3331451  10.7922621  79.7528305
  37.7146301  12.1774540  80.2289581  75.1174011  11.9162025  28.1513824
  76.0578995  12.0255613  28.0108910  75.0468674  11.1397219  28.7066612
  85.0608368  62.6049728  41.3567123  84.9568939  62.7212677  40.4123039
  84.7889328  63.4422836  41.7324982  83.2410889  56.3379364  87.3879929
  82.7788696  55.5117989  87.2462997  83.2055893  56.4728851  88.3349686
  18.0272198  59.6696854  58.9828720  17.7819881  60.0581932  58.1431351
  17.2231884  59.2588196  59.3006020  28.3172035  66.2736511  44.9633331
  28.3689899  66.1026154  45.9037018  27.4306641  66.0071640  44.7198868
  44.1257019  58.7617760  16.5918598  43.9928093  58.4296188  15.7040281
  44.8643303  58.2549324  16.9291496  71.1641006  20.2677860  77.0342484
  70.7462234  21.1254444  76.9565659  70.5071106  19.7191887  77.4627838
  10.3449917   6.7117348   6.6795778  11.1751862   7.1517510   6.8623185
   9.8289537   6.8333521   7.4765387  75.2747574  36.8625450  48.6075172
  74.8015594  36.5284386  47.8454895  74.6297150  37.3913956  49.0770569
  27.2588406  62.7039909  74.0727005  26.8228245  62.1429977  74.7141113
  27.0853176  62.2841988  73.2301483  10.7358456  33.9921341  31.3462543
  10.9149828  33.0519600  31.3314781  10.5255785  34.1815491  32.2606621
  15.0061188  60.7693825  60.6886406  15.1656742  59.8983955  61.0521774
  15.6589661  61.3281784  61.1102676  -0.1008429  33.5635147  30.4638977
  -0.2179642  33.3881035  29.5302258   0.4148544  32.8232880  30.7838249
  33.5448685   5.6426272  12.9847441  33.6416130   4.9400339  13.6275768
  32.6132393   5.6395807  12.7649832  69.6608582  65.2320557  29.9976330
  70.3783417  64.8435211  30.4981289  69.7656021  66.1753845  30.1217232
  52.0883560  14.0898132  21.6039867  53.0001144  13.9967489  21.8801517
  51.6266785  14.3726187  22.3933582  51.5276375  20.5064487  64.3303375
  52.0548210  20.8984184  63.6341553  51.9456787  20.7982235  65.1404877
  80.6457672  13.2604675  70.0726852  80.0338898  13.9965105  70.0637436
  80.0926590  12.4877930  69.9574280   4.6418462  18.9345055  39.7436028
   5.5781822  18.7381344  39.7128716   4.2251706  18.1804905  39.3263817
  86.3576355  21.9757652  82.8090973  85.9419785  22.0520363  81.9502411
  85.8092804  21.3528786  83.2861099   7.0388165  19.4814949  71.5078583
   6.4793582  19.0516968  72.1547852   7.5181251  20.1426487  72.0072327
  77.2835236  30.2841816  69.0021973  77.2183304  31.2202587  68.8131409
  77.3046341  29.8668137  68.1410370  52.4938660   8.0606565  59.8738060
  51.8642502   7.3893676  60.1368408  53.3232651   7.7740912  60.2561760
  64.0619507  20.5916290  55.0246582  64.4745712  21.3916378  55.3501701
  63.1490860  20.8371239  54.8741646  28.3286285  54.5383186  64.6943588
  28.3927822  54.7496872  65.6257172  27.6741123  53.8411789  64.6514969
   2.0234504  27.8937664   2.0024965   2.7788281  28.0451660   2.5705762
   1.5042237  28.6945438   2.0759277  83.0426483  50.0973854  47.3095589
  83.6318970  49.3796539  47.0774574  82.1682968  49.7091026  47.2782364
  43.9498482  70.9902954  38.7978058  44.1364212  71.8412170  39.1944847
  44.3977280  71.0168304  37.9522705  31.5962601  33.8497734  85.5720139
  31.2574120  34.6607475  85.9511414  31.3573704  33.8999557  84.6464615
  18.2392750  62.7156181  58.7780762  18.6757126  61.9952888  58.3232422
  17.3859901  62.7870407  58.3502502  53.1794243  47.0550995  19.7158318
  52.4766273  47.3113174  19.1186237  53.8335991  46.6416435  19.1525002
  52.1580276  71.0145569  49.6036911  51.5354004  70.6500549  48.9746361
  52.7905045  70.3110809  49.7497482  21.6430817  65.5412827  46.3999596
  20.6876965  65.5569687  46.3431931  21.9372921  65.5488358  45.4891281
  83.6906128  51.3246117  86.8022308  83.0209808  50.7914200  86.3738251
  84.4171219  51.3427124  86.1792526  75.1232605  11.1598501  13.2066879
  75.1880264  11.2779236  14.1543665  75.9098816  11.5797968  12.8586845
  11.0767927  12.9934149  65.9738464  11.8172302  12.3878927  65.9374161
  11.4778156  13.8559885  66.0805130  46.5816994  52.7919159  52.7144699
  46.3333893  51.8688812  52.6636848  47.4900627  52.8125000  52.4133224
  80.6133728  50.4193192  87.9977188  80.4388657  49.6313324  88.5123672
  80.4690857  50.1498032  87.0906525  84.6188812  60.7628555   7.1572328
  84.3298340  60.0842438   7.7672925  85.5405121  60.9032707   7.3742981
  70.7772903  26.8648319  14.9289169  70.9989624  27.5861053  15.5178642
  69.8615189  27.0182610  14.6964216  77.7269135  30.9708157  51.9753647
  77.0802765  31.2522774  52.6225624  77.5648346  31.5303669  51.2158470
  12.0924416  34.7186852  65.2176743  12.5419121  35.5176392  64.9422150
  11.8580132  34.2813950  64.3991013  80.3798065  41.7815933  70.5141678
  79.9072800  41.8668022  71.3422318  80.4057999  40.8390884  70.3491211
  64.5026703  43.2276535  18.3935127  63.8894463  42.6775475  18.8809280
  64.4838333  42.8765755  17.5032196  58.8042412  22.5022774  30.8729439
  58.1890907  22.7797832  30.1941128  59.6640091  22.7499084  30.5327854
  14.8934917   8.4423704  54.2702065  14.3930092   7.9370499  54.9108315
  15.7906914   8.4300432  54.6035423  59.4539261  19.8590279  27.2813663
  59.3943405  20.8142185  27.2985058  60.3937874  19.6776638  27.2801361
  41.5805931  45.5937576  26.2605515  40.6905022  45.2717514  26.1181335
  41.5423088  46.0366325  27.1082687  52.5497360  43.6244240  64.4201126
  51.6389961  43.4094505  64.2186890  52.9191551  43.9090500  63.5842018
  59.9088593  66.4357147  70.0676270  60.7312050  66.3173904  69.5922546
  59.5314293  65.5573807  70.1156158  29.1228485  65.7132492  86.1100082
  29.7451992  65.7624741  86.8356018  28.9335041  66.6264496  85.8944931
  15.3630915  50.1146202  25.5823345  14.8178368  49.3286819  25.6174049
  15.3498611  50.3743973  24.6611538  25.6721420   6.2262917  79.9571609
  24.7648907   5.9307833  80.0333328  25.9004803   6.0650911  79.0416794
  14.2505827  32.0055695  27.4043694  15.1081696  31.5817165  27.3708477
  13.8873863  31.8809547  26.5275612  19.0353222  65.4122925  78.2031097
  19.2557774  64.4898758  78.3326416  18.0998516  65.4647751  78.3989944
  40.9434013  32.6903877  61.2346344  40.9279709  33.2375565  62.0198708
  41.8560371  32.7104034  60.9466591  60.9646835  32.7912750  81.6430435
  61.7504501  32.3635101  81.3027191  60.9854813  32.6168289  82.5839844
  40.2297935  53.9167595  15.8683481  40.7034683  53.9679146  16.6985569
  40.8084984  53.4166412  15.2928362  52.8482399  10.8824568  32.3320198
  53.0866241   9.9573498  32.2721825  53.6793709  11.3351898  32.4751587
  67.3715134  45.6241646   3.9369287  68.2290268  45.9816895   3.7065198
  66.7748871  46.3694954   3.8680131  42.5665207  39.4546814  49.6851044
  43.0627670  38.6363068  49.7003937  42.5168419  39.7218475  50.6029205
  50.1795578   2.7838821  65.0537643  51.1237221   2.9403515  65.0364914
  49.9142990   3.0174577  65.9433212  83.8439484  69.1675720  56.4787292
  84.0433731  70.0997467  56.5653839  84.6444321  68.7836456  56.1208839
  76.3757553  25.2482471  75.8453827  75.7397003  25.2219505  76.5602112
  75.8657150  25.5152397  75.0806503  48.3542213   5.7646275  46.9328690
  48.7283058   6.6204762  46.7235451  48.7527199   5.1676779  46.2995605
  28.2848091  10.2754774  13.3002501  28.4104614  11.1239786  12.8754101
  27.5052948  10.3926048  13.8432674  57.1042290  50.6986008  42.2446938
  57.6043472  49.9705620  41.8758087  56.7814369  51.1782875  41.4818459
  77.0740738  31.1815662  45.0689087  77.1999969  31.7419376  45.8346481
  77.1854401  31.7689362  44.3213615  44.3624496   9.1138201  32.3986740
  43.8918152   9.9391289  32.5152855  43.9337578   8.6971960  31.6510925
  28.3877583  58.8523598  26.2014656  27.6194763  58.4964600  26.6479073
  28.6211872  58.1842194  25.5570068  10.1707277   2.4653094  86.3542557
   9.9897394   2.6791739  87.2695312  11.0793400   2.1642189  86.3537979
  66.9025726  52.6377525  47.1483841  66.7782974  52.1247063  47.9468651
  66.3529739  52.2029686  46.4963608  57.5024910  40.5836906  74.3295822
  57.9153671  41.3715706  74.6831436  57.9727249  40.4124489  73.5136261
  13.4534826  21.8905830   7.0686021  13.5641499  22.1147099   6.1446152
  12.5080223  21.9294548   7.2129130  59.2847137  11.7974863  74.7770996
  59.1175461  12.3959656  74.0490112  58.4140396  11.5428038  75.0825424
  53.0028038  22.5982838  82.6494904  53.2934303  21.7406368  82.3393097
  53.7856979  22.9913998  83.0351944   1.8102199  39.8794098  70.4918060
   0.8775070  39.9180984  70.2801895   2.0824177  40.7956657  70.5429688
  76.1192703  56.5744476  65.8171158  76.5981369  57.3165779  66.1861115
  76.1950302  56.6877213  64.8696671   3.2539051  16.5204182  66.7741318
   4.1248488  16.7169456  66.4290771   3.2356472  15.5663309  66.8490677
  36.4341812  59.4963379  41.2061539  37.3725281  59.5296516  41.3922348
  36.3326073  59.9969940  40.3966713   3.9858057  46.4636002  56.6164207
   4.3349657  47.0668106  55.9603271   4.4636698  46.6782799  57.4175377
   8.3357992  26.5071049  28.0940800   8.5837669  26.8632584  28.9472504
   8.2909088  25.5611477  28.2332973  29.5342407  19.7146835   8.1494083
  30.2640476  20.3309917   8.2108784  28.7650051  20.2673607   8.0113649
  30.6148052  15.3734617  61.7558060  29.7739620  14.9345055  61.8843765
  30.4190865  16.0958939  61.1591339  74.2359695  47.1193848  81.0079803
  73.4035187  46.8091583  80.6515961  74.8897705  46.8404465  80.3669128
  49.2360840  64.1397629  83.7022934  48.3770599  64.1739120  83.2814102
  49.1072922  64.5747528  84.5451584  59.8604736  67.6699371  21.4583511
  59.2571411  67.8324203  20.7332172  59.5866890  68.2837906  22.1398621
  14.5207777  44.8069687  35.0358315  14.8391504  45.3841209  34.3417358
  15.2751322  44.2614632  35.2585449   7.6662083  60.2253990  79.7937546
   7.1836386  59.3993874  79.7611084   7.6605411  60.5419617  78.8904343
   3.3939300  22.4915733  56.0097542   3.1137278  22.6334133  55.1055412
   3.4920077  21.5423107  56.0839996  85.5541382   8.0559044  81.3602676
  85.7513962   8.5486813  80.5637207  85.0003052   8.6434183  81.8743973
  35.7829819  65.5432510  85.0906067  36.1111488  64.6446762  85.1237793
  36.0485916  65.9262543  85.9266663  36.1374855  49.2232895  76.0453796
  37.0891190  49.2497063  76.1450348  35.9098587  48.3010216  76.1630325
  83.2854462  26.1466579  14.9807272  84.2041245  26.1201897  15.2482338
  83.0569153  25.2314987  14.8179884  61.2313499  49.8580208   7.1528726
  62.0197525  50.3652344   6.9595261  60.9441338  50.1784019   8.0079145
  65.8731308  34.5723648   8.8367338  66.0975876  34.2753639   7.9548950
  65.9538727  35.5252991   8.7963200  11.0078974  43.7576027  29.5898342
  11.0187922  44.4533882  30.2470970  10.1200504  43.4023590  29.6318073
  17.0472298  23.0366764   0.9938509  17.5876942  23.6334019   0.4761156
  17.1303692  23.3565865   1.8921705   8.5563087  48.3246803  63.3685341
   9.3503656  48.0425186  62.9145622   8.8721962  48.8825073  64.0793610
  38.1580544  -0.0388246  32.1496506  37.3105278  -0.1414140  31.7167454
  38.0982971   0.8057869  32.5960732  21.5743828  31.3081951  84.0972824
  21.5908947  32.2563477  83.9670258  20.9574375  31.1760330  84.8171082
  79.1554718  71.1652069  46.2674065  78.6906586  71.1388016  47.1037598
  78.4801102  71.3824081  45.6248055   2.8527803  44.0041618  18.6348248
   2.3661845  43.3758125  18.1013145   3.3270433  44.5409012  17.9998302
  80.0335541  69.2560806  25.0985737  80.7696686  69.7996674  25.3794212
  79.9436951  69.4391861  24.1633587  64.9943466  21.9122829  49.2540474
  64.0762177  22.1354485  49.4072380  65.4050293  22.7418461  49.0103340
  42.4082909  47.0914955  30.8786964  43.2454720  47.4750443  30.6174603
  42.5601730  46.7667389  31.7662201  26.5634384   4.5368638  64.2475204
  27.2435284   4.1002831  64.7604599  26.2708473   3.8728051  63.6233025
  67.2292328  57.8279610  46.5100403  67.7699051  58.2636223  47.1689034
  67.7067566  57.0251389  46.3010597  80.4747925  69.9313126   1.9231644
  79.9159164  70.6509628   2.2164178  81.3205414  70.3423920   1.7444092
  62.1422386  60.7631874  75.7429199  61.8379593  61.6630135  75.8610764
  62.1394386  60.6319542  74.7947617  42.6193733   5.6364632  26.1584110
  41.7716370   5.5137634  25.7311878  43.2609100   5.4998870  25.4612675
  47.6752472  19.2846565  34.1328011  47.0226669  19.2894974  33.4325562
  47.5774918  20.1370430  34.5571976   2.2070584  63.7435760  52.7836494
   2.0174317  62.9047661  53.2039757   1.3977296  63.9703293  52.3256111
   6.5130248  47.8704834  23.1819630   7.2044320  47.2871780  23.4949207
   6.8804812  48.7493591  23.2756805  55.2658005  48.3041458  35.1285400
  55.0465813  47.6874847  34.4300385  54.4574509  48.3910027  35.6337738
  40.8295174  69.8389969  25.1281872  41.1111450  69.9563751  24.2209167
  41.4669571  70.3340530  25.6427937   1.9742453  46.3006287  83.3332596
   2.4295442  47.0307350  83.7526321   2.5776105  46.0009384  82.6532822
  52.5820732   5.6282287  65.9105682  52.2022018   6.2528481  65.2926865
  52.1006737   5.7740202  66.7249603  82.5091553  56.5994873  37.0190315
  83.4488373  56.6047707  37.2012672  82.4444275  56.3309937  36.1025429
  10.7994785  62.6438370  14.0864248  10.3764715  63.2872009  14.6550941
  10.6040945  62.9437256  13.1986609  72.3431168  47.7842216  47.3027458
  72.6518860  47.8157196  46.3972626  72.1539078  46.8590469  47.4592323
  75.5944824  52.6935768  18.3514824  75.8862762  52.5973396  17.4449348
  74.7058868  52.3377571  18.3561344  21.5559349  29.9498978  63.9903564
  21.6011543  29.1864338  63.4147606  21.4369411  30.6909866  63.3963356
  66.5655899  45.7208824  14.9068022  67.2678375  45.6442566  15.5527220
  65.7872314  45.9305420  15.4229717  66.6802979  27.0741100  63.2857628
  67.3421173  27.3508224  63.9195290  66.4359894  27.8784466  62.8279572
  33.0066948  50.3525352  35.8748550  33.7374954  49.7352753  35.9087639
  33.0379868  50.8072433  36.7165718  26.0637589  59.4856186   8.2992344
  26.9735355  59.3407211   8.0393400  25.6386642  59.8173332   7.5083542
  15.6988506  55.5652390  76.7251129  15.2196484  55.6032829  75.8973770
  15.6452694  54.6472435  76.9909134  15.6594362  22.1970749  67.5372162
  15.4582653  21.8990059  66.6501389  14.9096603  21.9142342  68.0607376
  27.3153133  48.2879448  69.7457886  27.0141449  47.4214783  69.4723434
  26.5653362  48.6691322  70.2023621  28.1955299  26.6705074  70.6689682
  28.9393177  27.2343941  70.8812027  27.4681835  27.2765083  70.5276794
  78.8515854  67.9567947  65.6091385  78.7055969  67.3213806  64.9083023
  78.2504959  67.6889954  66.3042755   2.6572146  42.8106804  -0.0093193
   2.0316975  43.3912048  -0.4428548   2.9860494  43.3221550   0.7299324
  50.2893562  43.6639061  76.1047592  49.7812157  43.4630585  75.3188324
  49.6432991  43.6765556  76.8109360  60.8680458  32.3227921  70.6029663
  60.5396118  33.1280518  71.0028610  60.1324730  31.9950390  70.0855255
  67.8936539  24.1744022  28.3084679  67.8569336  23.6296883  27.5222282
  68.2676239  25.0029221  28.0085850  72.0200043  11.3641243   1.6705469
  72.3243484  10.4573498   1.6336123  72.5497971  11.7667465   2.3586211
  40.2914124  58.5631714  65.7522583  39.4337196  58.9686127  65.8795929
  40.5167465  58.7599602  64.8430099  15.9084997  18.5167103  87.6430969
  16.7277985  18.9834728  87.8077621  15.2770700  19.2062397  87.4379730
  32.6071777  32.7806664   6.8314071  32.2870407  31.9452801   7.1718092
  33.0340996  33.1966743   7.5803452  11.7225494  22.3758488  63.0977402
  10.8574553  22.4081059  63.5061569  12.3307705  22.5776768  63.8087692
  19.1545258   4.7097001  67.1590271  19.3030453   5.5260725  67.6362152
  19.6824875   4.0608535  67.6243057  62.9845924  33.2580070  76.9923706
  63.7415047  33.0243530  77.5297012  62.6634483  32.4219627  76.6545410
  60.6687355  65.4896088  73.9588623  61.4861298  65.1881332  73.5623703
  59.9917107  65.2433472  73.3285980   8.7503147  53.7154045  52.2227325
   7.7991295  53.8010674  52.1583939   9.0715704  54.6169701  52.2370377
  35.5205193  63.0970154  29.7917786  35.8194656  63.9963112  29.9264221
  34.7251091  63.0274506  30.3197155  32.5838203  39.8771706  11.7575283
  33.3849564  39.4025764  11.9792824  32.7428970  40.7707825  12.0614805
  50.9677544  16.3905659  75.9698868  51.2044373  16.5660858  76.8806076
  50.0128212  16.4544411  75.9540176  45.4825783   0.0333371  19.4942150
  46.1842804  -0.5810649  19.7095242  45.7747307   0.8682951  19.8598976
  32.9815712  66.6087418  85.2953568  32.5799370  67.4675674  85.1637115
  33.9231834  66.7804031  85.2840500  55.7909088  24.0033302  31.7573471
  55.6636887  23.7368546  30.8468323  55.7943039  24.9600945  31.7286530
  78.5326691   7.4141526  18.8476772  78.1762238   8.2408180  18.5223980
  79.4813385   7.5410290  18.8353729  31.8458824  50.1662064  25.3506584
  32.5047417  50.2361603  24.6598301  32.3493271  49.9847984  26.1442986
  18.2060528  56.5762405  44.9388809  17.3028316  56.3682556  44.6997833
  18.1675587  57.4774170  45.2592392  82.9806061  28.7975750  42.5755920
  83.2925568  29.0084972  41.6955719  82.0494232  29.0186024  42.5589981
  58.6483116  22.8974590  76.7467041  58.0357857  22.6982269  76.0386429
  58.8769455  22.0432129  77.1130676  69.9462204  27.2899990  59.6439972
  69.0252457  27.1743183  59.4102097  69.9376831  27.9617119  60.3258781
  68.3531647  20.8716183  33.4233704  67.8336945  20.5315933  34.1519089
  69.1924667  21.1087341  33.8177948  57.0690651  39.3420982  32.9720192
  57.3204575  38.7949867  32.2279053  56.5186081  38.7744827  33.5114937
  18.1779556  44.0194702  17.6475048  17.5050068  43.4062080  17.3520718
  17.6896267  44.7917137  17.9328289  46.3548851  65.5617752  33.9082527
  46.7744904  65.6600113  33.0535507  45.7332878  66.2881927  33.9548111
  38.6685677  62.4100800  75.3683319  38.8055344  63.3573685  75.3790970
  38.4798241  62.1849937  76.2793427  67.8644104  33.7716484  80.3690948
  68.8157730  33.8750076  80.3904800  67.5828247  33.9602051  81.2642975
   1.1883913  50.9358139  37.4849091   0.6567305  50.1773758  37.7264442
   0.5941650  51.4954224  36.9849434  18.3605347  37.3452225  65.7117615
  19.0964527  37.5131569  66.3003616  18.0091248  38.2133331  65.5139389
   3.9505529  33.0058670  81.1756210   3.6322937  33.7952576  81.6135712
   3.1591351  32.5027733  80.9838181  54.3714676  53.1685066   9.1473455
  55.3277931  53.1763802   9.1071978  54.1674805  53.4198837  10.0481405
  14.1111412  71.3392868  17.1361675  13.5366421  72.0674667  17.3726597
  13.7593441  70.5905228  17.6176567   7.9713945  45.4404373  78.3666458
   8.8416882  45.1624374  78.6521988   8.0704679  45.6136818  77.4304810
   0.3917060  44.8650970  51.0068588  -0.1438162  45.6524658  51.1043205
   0.9599422  44.8650551  51.7771416  36.2737617  18.8820877  74.0485992
  37.0325737  19.4623833  73.9878311  36.6484947  18.0097713  74.1705475
  51.1667824  60.1284409  43.6076851  51.8861008  59.5529556  43.8677368
  50.9281769  59.8317337  42.7294693  54.0987396  56.4669609  10.9297323
  53.1560135  56.3212624  10.8505430  54.2315559  57.3575706  10.6050730
  10.8690062  16.9002914  59.0728340  11.0981712  15.9794226  58.9474678
  10.1187487  16.8816605  59.6669693  61.0693588  71.3173447  59.0416183
  61.9378586  71.5408020  59.3762932  61.0437546  71.7026596  58.1657715
  80.1357803  29.6625080  52.4588928  79.8958817  29.2125225  51.6488380
  79.3870621  30.2274952  52.6497993   0.0964334   0.8187299  47.6273651
  -0.6850350   0.5256253  47.1587181   0.7959595   0.2499484  47.3058319
  13.1524448  39.3647079  25.6518097  13.8794632  39.9285469  25.3876858
  12.9934120  38.8065796  24.8906040  33.2626572  53.0612679  71.5871964
  34.1112671  52.8076668  71.9502106  33.1995926  52.5763588  70.7643280
  85.7828674   7.7185760  15.9635820  86.7023621   7.5436521  15.7631760
  85.7939148   8.0650501  16.8558083  21.3049831  48.1066360  41.1267128
  21.5598240  48.2221642  42.0421028  21.0617085  47.1832352  41.0605240
  10.9595308  62.5000343  24.4497128  10.9205103  63.3722725  24.0573921
  10.5487642  61.9274483  23.8019123   7.9317775  57.0926056  64.7053833
   8.4328003  57.3237228  65.4875565   7.6591468  57.9335823  64.3384171
  63.9830933  30.4289341  87.7602692  63.5541420  30.0517807  88.5283737
  64.0190582  29.7102890  87.1290131  41.2957230  12.6164017  78.1884995
  40.9988823  12.4764881  79.0876846  42.2065163  12.3219748  78.1883926
  85.6620636  48.4593391  82.2755966  85.2245178  47.6304016  82.4696274
  85.2543182  48.7611351  81.4638748   0.2062105  30.6673431  16.3975143
  -0.1166110  29.9044304  16.8770771   1.0444977  30.3837967  16.0326748
   5.0136981  67.7009354   5.0630217   4.9401007  68.1316833   4.2113910
   5.8211851  68.0509262   5.4394603  37.9814224  70.5662918  63.9319916
  38.4308319  71.1735535  64.5197754  38.6582451  69.9427490  63.6686707
  69.7258301  30.8656139  67.2939072  70.3605881  30.9565163  68.0045776
  69.2305603  30.0767918  67.5145721  21.5535736  54.2510681  76.6875305
  21.6418209  54.1518440  77.6354752  22.4493294  54.1892471  76.3558197
  67.0513153  67.2000885  74.4531021  66.3269730  67.4150848  75.0407562
  67.1586761  67.9807434  73.9096985  22.9528713  61.8310509  30.8024578
  23.2543373  60.9691696  30.5152168  22.0303631  61.8589783  30.5486279
  34.1366577  45.4221687  64.7292252  34.1436958  45.3457222  63.7751122
  33.2170753  45.5685043  64.9510040  10.1313162   2.3893390  30.7150536
  10.8666611   2.3654375  31.3273678   9.3700409   2.1546164  31.2457123
  37.4489861  36.9672737   5.9637012  37.4376831  36.0263176   5.7884769
  36.7022934  37.1116562   6.5449381  24.5757656  19.5783806  11.7745132
  24.0022392  18.9782391  11.2979317  24.3526554  19.4423504  12.6953554
  71.7332993  62.1964836  44.4554520  71.8000031  62.6915894  43.6389618
  71.5543976  61.2983246  44.1769943  75.1189651  71.2469101  58.4755135
  74.3882599  71.6897736  58.9069862  75.8601913  71.3756332  59.0673218
  51.8782310  10.8122644  60.5175705  51.9977036  10.2183943  59.7764397
  51.1935349  11.4170847  60.2318916  59.4754410  17.1453724   0.3935595
  59.4235954  16.2128849   0.1837691  58.5731964  17.4572105   0.3232633
  78.6460953   0.7440907   9.9552011  79.4287796   1.2283385   9.6922703
  78.9778595   0.0297811  10.4991884  30.5616531  67.3496246  12.5622864
  30.2833748  68.2007065  12.2239628  31.2632236  67.5552597  13.1801443
  86.3992081  10.4415407  39.2743263  86.9698410   9.6929045  39.1006813
  85.8482208  10.5086842  38.4944916  42.4292221  50.3806496   4.4270215
  42.2384911  50.6072197   3.5167904  43.3851128  50.3670425   4.4752088
   5.5829897  58.6425743  41.2061958   5.8108912  59.1931648  41.9552917
   6.3883996  58.1658440  41.0055084   8.3522654  48.7256966  45.8913078
   7.4284644  48.8474731  45.6722336   8.3429298  48.3729591  46.7810974
  65.4900894  21.8859367  84.4968262  64.6341400  22.0556698  84.1034241
  65.3696289  22.0814915  85.4260635  26.7380505   9.9499254  26.0184498
  26.6027203   9.0209808  26.2054768  26.3673935  10.4031763  26.7756863
  74.4977951  46.2125778  11.6635370  75.4137344  45.9409904  11.6041632
  74.5043030  46.9436073  12.2814264  52.4078636  61.8377609   7.4533653
  53.0641556  62.4719772   7.1647682  52.9024048  61.0315628   7.6006913
  49.5495148  21.9730625  88.7998276  49.4771614  22.9168129  88.9424133
  50.3698273  21.7283230  89.2281036   6.9647341  46.8043480  42.1056633
   6.8597879  46.8846588  41.1576309   6.7435007  45.8924599  42.2947350
  63.3311577  64.2285690  14.3321152  64.1474304  63.8874741  13.9666319
  63.0527649  63.5617905  14.9599171  64.7638855   7.0312848  15.7074127
  65.0137177   6.9501910  14.7869558  64.8949585   7.9574733  15.9104605
  12.2617722  55.5661697  56.1296387  12.0808611  56.2674446  56.7555122
  13.0480947  55.1389313  56.4693336   8.2373962   0.2360105   5.2434587
   8.4549980   0.8522798   4.5441070   7.9813256   0.7906607   5.9803596
  35.9440575  71.3767242  75.5841141  35.9096527  70.4209595  75.6235809
  36.7396164  71.6077576  76.0636368  58.7260971  24.4486370  72.3632965
  58.8681374  25.2454071  71.8522034  58.8928490  24.7117519  73.2683945
  29.8723812  69.8360825  17.1318493  29.3257923  70.0795364  16.3847218
  29.2710419  69.4025192  17.7373619  58.9764824  68.5971527   0.7461784
  59.2716637  69.0894699  -0.0198015  58.1918182  68.1373825   0.4475963
   9.4910994  43.4623566  74.4078979   8.7441301  42.9141693  74.6482315
  10.0709763  42.8768959  73.9208603   1.4398156  44.8314514  43.1336823
   2.0210900  44.7918510  43.8931465   1.6988144  45.6308250  42.6752625
  44.8342361   1.4109830  44.1273308  44.5218468   0.5137619  44.0105400
  44.4370537   1.8987154  43.4058075  56.8723793  25.9239712   7.6845422
  55.9822311  25.8051796   7.3532472  57.4202385  25.4149876   7.0870309
  55.5626106  32.0569153  87.0421753  55.5082512  32.7427711  87.7076645
  56.3983192  31.6227436  87.2133942  68.6026230   8.1848345   0.6570109
  68.6216888   7.9582949   1.5868217  68.2092972   9.0571032   0.6310297
  35.8156700  68.9915237  46.9897194  36.4174271  68.4487228  47.4991150
  35.4975586  69.6454010  47.6122017  74.3728333  58.8508110  25.2062969
  74.2191696  58.0867386  25.7620010  74.5571365  58.4846916  24.3412991
  69.6348190  47.2790451  21.9495678  69.9964523  47.9582329  21.3802242
  69.8028870  47.5959244  22.8370190  11.5948315  41.1060066   6.2620707
  11.1453362  41.8909760   6.5751376  11.6292639  41.2127876   5.3114686
  50.0112724  50.2621689  50.1801300  50.7375069  50.3998489  50.7882919
  50.3488846  49.6332626  49.5423775   3.8986807  34.9412804  77.9829636
   3.4690235  35.7624397  78.2224045   4.4001732  35.1539879  77.1958847
  85.2780609  17.1458511   5.0831690  84.9185410  16.2933178   4.8378811
  85.4035797  17.6013489   4.2507043   9.8973589  64.6334534  47.4911842
  10.3874426  63.8556747  47.7578354  10.3842325  64.9783936  46.7427139
  29.5543137   2.6306398  83.9403763  28.7070751   2.3383977  83.6042023
  29.3719826   3.4790618  84.3443146  35.9974327  50.4406357  32.8159180
  36.9215851  50.6655006  32.7081680  35.5839577  51.2561264  33.0991898
  20.4669704  67.6251068  64.3480301  20.2186260  66.9240646  63.7454567
  19.7961750  68.2965469  64.2237930  16.8150368   5.5244060  20.3800678
  16.9327908   5.4441419  21.3265991  17.6644478   5.2815862  20.0115948
  27.6319675  22.0056953  64.8575592  27.0188370  22.5626831  64.3779068
  27.7790642  22.4670486  65.6832352  36.3435059  48.1440125  61.6617966
  36.6303368  48.0716248  62.5721359  37.1455994  48.0432854  61.1492195
  56.5417976  30.5156136  24.3856964  57.4331665  30.4983158  24.7341061
  55.9811287  30.5011272  25.1613731  83.1101608   8.6192589  16.5351830
  82.8083038   8.0600624  17.2510128  83.8896179   8.1773825  16.1984138
  72.3299103  28.9729328   4.5726089  72.6082153  28.0600166   4.6458392
  73.1411514  29.4597034   4.4271240  58.7354736  26.4974232  12.3598032
  58.2164879  27.1189137  12.8703260  58.2725410  26.4277916  11.5248919
   0.4483269  57.0114746  39.3405342   0.8791612  56.8821564  40.1854553
   0.5789126  57.9392624  39.1446114  39.1448517  52.2991333  36.8116989
  38.9985504  51.4084930  36.4929733  40.0786018  52.4541588  36.6691895
  31.3861942  26.9037704  61.3495560  32.3361588  26.8118229  61.2764702
  31.1421604  26.3109455  62.0603561  26.5656147  49.2139091   9.6629276
  26.8483715  48.3384895   9.3985033  25.6167717  49.2073936   9.5368872
  81.0443649  31.5859833   9.3429279  81.9310455  31.2697906   9.5162954
  80.5253906  30.7905235   9.2240248  57.7631569   8.3948727  86.8942413
  58.3343201   8.0569944  87.5840607  58.3100853   8.3941488  86.1086807
  27.6850529  70.4837723  63.4432755  27.7926922  70.3557281  62.5008011
  26.7403507  70.5771637  63.5659447  72.7957916  65.0405579  39.4612579
  72.5095215  65.9164352  39.7203369  72.0258560  64.6492157  39.0486183
  71.9177856  67.8023071  84.8814697  71.2988358  67.0722198  84.8710556
  72.4932098  67.6391525  84.1341476   8.6016159  62.8866386  50.9064789
   9.5466986  62.8748589  50.7551155   8.5087738  62.7626762  51.8510666
  75.6626511  57.7079582  46.2260361  75.2009964  58.4536057  45.8424797
  75.4020004  56.9615517  45.6864319  32.5340652  43.3216248  55.6405487
  33.1697350  43.9708366  55.3394127  33.0330276  42.5068169  55.6985016
   2.1570287  59.8181801  56.0472755   2.5779512  60.6082268  56.3862228
   1.5157990  60.1412086  55.4142570  10.3750229  47.1020660  60.5976830
  10.8620043  47.8022957  61.0321503  10.0492630  47.5016251  59.7911720
  26.8985310  15.4072065  28.7732658  26.3895531  15.6750507  29.5384026
  27.1299191  16.2287540  28.3399620  22.0279293  71.5005722  56.0831642
  22.4241390  71.3617630  56.9433861  22.5187588  70.9240494  55.4975510
  10.7482786  47.4216385  22.9388275  11.0806894  46.8296814  23.6136055
  10.1727982  48.0236435  23.4106789  14.7581549   2.4795868   5.6569295
  14.8435097   2.6917679   4.7274537  14.6039419   3.3232419   6.0820136
  67.0654602  61.3394012  16.1921482  66.9899902  60.9908295  15.3038740
  66.3080063  61.9167252  16.2880478   0.5225188  34.7877121  87.8058090
   0.9781826  34.0003090  88.1034622   0.0719250  34.5158653  87.0062485
  29.3280830   8.7507200  67.5690460  28.9012451   7.9517055  67.8782654
  29.0248928   8.8503742  66.6666183  34.3948936  55.1790619  27.5094147
  33.5965538  55.3635254  28.0042458  34.1447296  54.4828186  26.9020481
  13.6528254  13.3074007  63.8375778  13.5032597  13.6028986  64.7356567
  12.9740849  12.6497850  63.6856384  26.7543201  40.4456139  16.6578178
  27.3002930  40.2119751  17.4085255  25.8832550  40.1199493  16.8845768
  18.5655842  32.5422020  59.7555428  19.4884682  32.7832794  59.6755486
  18.3114090  32.8526154  60.6246071   0.6731769   7.1464162  65.1738510
   1.0831145   7.2815528  64.3194962  -0.2256338   7.4552150  65.0597687
  31.5834713  51.5598221  16.7254238  31.3230553  52.3833694  17.1379566
  31.4894638  51.7219162  15.7867441  50.2730980  30.8310452  71.2115631
  49.8289795  31.2904205  70.4988480  51.1853561  30.7732658  70.9275360
  59.2252769  13.2121420  59.1249619  59.2189980  13.9283609  59.7599602
  60.1458206  13.1168127  58.8805428  30.3404064  57.6468086  13.9410677
  30.9604950  58.2032700  13.4698219  30.3083019  58.0174637  14.8230047
  73.4034119  54.4981117  83.2436752  74.3492737  54.5218391  83.3886719
  73.3037567  54.5956230  82.2966843   2.6426644  29.2266884  64.3802872
   3.0245574  28.4641361  63.9456558   1.7426698  28.9654827  64.5752563
   5.7254834  21.6526089   4.4867597   5.3985686  20.7998638   4.2000837
   6.2780552  21.9522972   3.7648983  41.4794998  57.4717140  60.5021591
  41.9876518  58.2520103  60.2804565  41.9919243  56.7440681  60.1497650
  55.3837700  28.2278709  83.3573456  55.0456505  28.7112865  82.6035461
  56.3278046  28.3849945  83.3387985  42.8582344  45.9610443  12.8112288
  43.7353554  46.1126480  13.1632252  42.9593964  45.2044334  12.2336998
  81.0314560  16.9958344  75.7195511  80.8786163  17.9255161  75.8885651
  81.3425140  16.6484051  76.5554810  27.4025517  37.0378685  74.9407120
  26.5305462  37.1184616  75.3271637  27.7005939  37.9409218  74.8316498
  33.8573990   1.7758620  32.4605026  34.4724846   2.4032841  32.8402977
  33.5694122   1.2437872  33.2022514  81.5721207  11.4772444  12.0489569
  81.2119446  10.8041086  11.4715538  80.9588165  12.2085304  11.9760437
  78.0124054  15.8176365  20.3221760  77.4683685  15.5574312  21.0655136
  78.2626572  16.7215519  20.5133286   6.6702218  69.2719345  43.2173767
   6.8906002  70.1857986  43.3976936   5.7698612  69.1768799  43.5280991
  79.3253403  17.4905376  33.4143753  79.3683472  18.0624447  32.6480179
  79.7987137  16.7013283  33.1511383  15.2648401  70.6524658  23.9405231
  14.4358225  71.1018143  23.7760620  15.9334526  71.3206711  23.7898884
  63.3511047  38.5538025  74.8159790  62.9203568  38.8522987  74.0149918
  62.6709404  38.6060677  75.4874496  73.0774460  51.7135048  52.5211716
  73.7818527  51.3624077  51.9764061  73.0591812  51.1404991  53.2877007
   6.0719500  52.5997353  63.6069069   6.3733015  52.2430115  64.4424667
   6.4609451  53.4733353  63.5651970   0.5419358   2.5008101  62.8745995
   0.9540355   3.0459814  62.2043800   1.2392651   2.3321669  63.5082588
   9.0492249   4.6532569  82.6841202   8.1411638   4.8351650  82.4421158
   9.3438435   5.4501677  83.1249924  81.4916229  54.1312752   9.7844982
  81.9499588  54.5317345   9.0457182  81.3435135  54.8538208  10.3945971
  83.9759827  27.6597404  82.1111450  84.9202881  27.8136330  82.0823669
  83.8257141  26.9709606  81.4636612  32.6607132   7.2702770  37.0249825
  32.4324417   6.9050579  37.8798141  32.0793991   6.8225708  36.4102783
  29.0851593  38.8073158  71.6764984  29.4522438  37.9331245  71.5450745
  29.6767101  39.3896332  71.1998444   9.3517799  39.5693398  84.3106918
   9.4565887  38.6399040  84.1072311   9.7569885  40.0234299  83.5718842
  82.1552811  64.9224777  88.5614548  82.7201157  64.9476852  87.7890854
  81.9887619  65.8424988  88.7665405  54.5902138  36.6619606  10.2758455
  55.2804298  36.0314789  10.0701122  55.0453186  37.3805618  10.7148476
  53.7718582  50.7067223  31.3583736  53.1086731  50.2967758  30.8030739
  54.6011467  50.3403702  31.0512829  49.2333107  35.7307625  84.6324310
  49.0343437  35.1279373  85.3488464  50.1813087  35.6629829  84.5186768
  35.4390717  25.9946575  79.1168213  35.3803902  26.8878307  78.7776642
  34.9239998  26.0104389  79.9234695   2.1325896  29.4488354  26.3022289
   2.8161011  28.8149834  26.5196590   2.4810705  29.9285431  25.5507812
  36.7767448  63.8828773   5.5389109  36.8382874  64.0959778   6.4700561
  37.6819229  63.7297630   5.2679124  58.9008751  44.5143585  24.4896927
  59.8153572  44.6303711  24.7475624  58.5481720  43.8960152  25.1296043
  77.4750061  51.5441322  56.1543045  77.8160172  51.2647705  55.3046608
  76.5350342  51.6540260  56.0107384  46.0035477  66.1268845  13.2421312
  45.9139442  65.6084290  14.0417633  45.3069839  65.8060379  12.6693430
  19.8699894  56.8793831  83.0098038  20.4171562  56.1918411  83.3894501
  20.3539238  57.1714058  82.2373047  10.6321020   9.2243319  64.6487274
  10.0319099   9.6233044  64.0187912  11.1848364   8.6479578  64.1209869
  75.0062408  67.0228958  64.7660904  75.7443542  66.9472504  64.1613617
  74.9215012  66.1505585  65.1509018  64.2608261  36.6811333  64.9461288
  65.1024323  36.7181015  64.4916382  63.7623672  36.0146332  64.4733200
  80.4149399  40.1757774   0.3873776  80.1485748  39.7967377  -0.4502439
  80.9832230  40.9081917   0.1489348  86.3025513  48.6744308  37.6665039
  86.2653961  47.7340546  37.4917450  85.6617889  49.0551567  37.0659180
  84.7659683  32.3440323  48.4153786  84.2125626  32.9186974  48.9442711
  85.2467575  32.9383163  47.8392715   4.0207529  55.4107208  87.1837692
   4.5137091  54.7490234  86.6986008   4.5903516  55.6440697  87.9168015
  29.4892998  50.9140434  50.3167152  30.0786743  51.6676140  50.2850838
  28.6469650  51.2560310  50.0171318  41.7952919  43.1473389  52.0856552
  42.1290016  42.5615578  51.4061470  41.7758675  44.0094948  51.6702652
   4.2467256  13.2905464  28.6318836   4.7243733  12.4986839  28.8789425
   4.4964571  13.9367762  29.2923775  85.8755188  17.4089165  83.0043182
  86.4841537  16.6732330  83.0718765  85.9897537  17.8902988  83.8237457
  33.1466484  63.2147865  14.2978601  33.7427788  63.9600487  14.3716450
  32.8084679  63.2661819  13.4038668  82.6705475  47.1446762  67.3690338
  83.5400238  46.7721825  67.5156174  82.0958481  46.3842239  67.2814713
  37.7394142  56.3230362  52.7615166  37.7133217  55.3689499  52.6889648
  37.7466888  56.6320229  51.8555870  51.9045067  56.7941093  77.0094757
  52.7114906  56.7362366  76.4979477  51.5917740  55.8912315  77.0664368
  63.2053337   7.3375149  25.4521732  63.4207344   6.4875293  25.0682983
  64.0493774   7.6989579  25.7226906  32.0006638  68.0568695   8.6000252
  31.6888866  67.2455521   8.1990299  31.4710484  68.7433929   8.1945305
  82.0134888  13.6798334  25.4145546  82.3180313  13.2625923  26.2204037
  82.7901459  13.7181177  24.8563690  85.5027695  57.6907349  65.0306244
  86.2184677  58.1939430  65.4189301  85.9282379  56.9201279  64.6546402
  30.2599983  52.1591644  71.4157181  31.1714592  51.9678802  71.6368027
  30.0359802  51.5145073  70.7445450  67.0626450  16.0649261  23.0599976
  67.8816605  16.2853222  22.6162930  66.8225327  16.8634109  23.5301018
  54.3388100  71.0335846   2.2711251  55.2697945  71.0251923   2.0487943
  53.9179306  71.4586563   1.5238596  59.2563286  43.0137596  34.1165695
  58.6172371  43.0833282  33.4073792  60.0148849  42.5902672  33.7147179
  26.9536533  31.5057888   3.2689395  27.8441677  31.1593208   3.3253150
  26.4969654  31.1148949   4.0138340  81.3255692  41.7230530  33.3118057
  81.9980621  41.0702400  33.1173286  81.4163895  42.3748703  32.6167412
  44.1815186  34.1351471  85.3650208  44.6454582  33.8321304  84.5845261
  43.2552071  34.0214615  85.1522827  54.7149048  35.5357628  84.2287521
  55.0458260  36.4211121  84.3800125  55.2336884  35.2084465  83.4939346
  66.7982178  70.8846207  45.6591110  66.2019196  70.7297440  44.9265327
  66.6860657  70.1206894  46.2248535  49.7128792  66.0257187  56.3659859
  49.9540672  65.4981842  57.1274033  49.5963974  65.3891144  55.6607208
  84.2351227  11.8032055  54.9551048  84.3146515  12.5886145  55.4964371
  83.3126678  11.7801285  54.7005959  48.4872704  52.9427109  24.1354618
  47.7472267  52.3403282  24.0599709  48.2771378  53.4862900  24.8948002
  80.9320679  70.4089050  70.1230774  80.1060104  70.2286606  70.5718384
  80.8062210  70.0603104  69.2405396  53.9305305  18.0870514  80.9824677
  53.2692490  18.3242340  80.3323288  53.5267830  18.3005829  81.8236694
  33.0729980  29.8325691  15.1849270  32.3391190  30.0400314  14.6064692
  33.1758881  28.8838329  15.1104565  31.2257080   4.0572257  27.1792202
  30.5681877   4.4075184  26.5782280  30.9964180   4.4316545  28.0297852
  66.2805939   8.0118465  39.2671394  66.8161545   8.7167511  38.9031067
  66.4544678   8.0403852  40.2079811  35.3309250  17.3309174   6.3046350
  34.7977943  17.3486977   7.0994229  34.7179108  17.5414371   5.6002717
  71.2734680  47.4575768  43.3420258  72.1530914  47.4302826  43.7185173
  71.3931274  47.1810875  42.4334717  51.5796967  30.7627602  19.8500023
  51.3283310  29.8842278  20.1350060  51.2965469  31.3358631  20.5624714
  15.8250360  12.3664818  70.3358002  15.8673792  12.5763521  71.2687531
  16.3704510  11.5856104  70.2409744  12.2752714   5.4208937  81.7557220
  12.9130125   5.1315970  82.4082718  12.1163378   6.3407393  81.9675140
  10.0499659  67.0747375  49.9901466  10.2700071  66.3637619  49.3882141
  10.2382936  67.8731232  49.4968452  70.5438309  58.1719055  78.1164703
  69.8755569  58.2776909  78.7935638  70.2036285  57.4790688  77.5503616
   0.6544822  64.8028412  23.2390690   0.8780386  64.0020905  23.7134762
   0.5533534  65.4656448  23.9222164  44.4034653  49.6230965  27.8628063
  43.9123268  49.2490730  28.5943260  45.0037727  50.2467728  28.2713318
   7.7787776  21.8983059  15.6020670   8.3781099  22.0716743  14.8761358
   7.5627913  22.7648716  15.9465170  10.3152170  45.3080673  13.1790485
   9.6855326  44.9550934  13.8076477   9.8065920  45.9224243  12.6498051
  70.5000687   6.1608329  38.1825790  71.4504242   6.2387447  38.0989876
  70.1516342   6.7680373  37.5297928  63.8139648  41.9009323  31.6563320
  63.7153015  41.1714096  31.0445366  63.4923668  42.6628571  31.1743851
  61.9207840   1.4584004   6.5357547  62.0465126   2.3654077   6.2568970
  61.5559425   1.0198871   5.7671008   1.2029932  52.3495445  16.2992783
   0.3935333  52.1285896  15.8386402   1.7511930  52.7656822  15.6340427
  71.4088821  19.8315144   7.1741161  70.8057404  20.1000729   7.8671756
  70.8755112  19.2962074   6.5865841  85.0410690  28.2970295  20.0975018
  85.6073074  28.3615742  19.3284512  84.1531754  28.2789726  19.7403526
  64.9282074  30.4328289  49.5876160  64.8727341  30.3946705  48.6327858
  64.2818604  29.7951946  49.8907547  10.0577002  40.8363609  18.0602036
  10.9126015  40.8780327  17.6316719  10.1601086  41.3658905  18.8509903
  80.1810837  43.2106133  30.8922024  79.7683334  42.6871071  31.5790882
  79.5704422  43.1646919  30.1565075   5.6414294  26.5657387   8.4370956
   6.0170584  25.9661560   7.7923980   5.3513989  27.3192406   7.9229465
   7.7313995  18.5174637  87.1017838   7.6517873  19.2231503  86.4599838
   7.3050461  17.7674236  86.6871796  85.7085648  15.6733618  -0.0171572
  85.8512497  14.7539072  -0.2418286  85.0403214  15.6516247   0.6678329
  12.3086166  60.2177353  47.2993584  11.4561472  60.2465706  46.8649673
  12.6101732  59.3177452  47.1756020  60.5856171   6.1212626  67.3414230
  60.3920403   5.4401431  67.9855042  61.1405067   5.6873126  66.6933365
  60.3666496   8.4806280  46.4907684  60.8526192   9.1187458  45.9683990
  60.8231277   8.4622850  47.3319130  18.5221596  43.8384171   0.1697144
  18.3684101  44.2334557   1.0279315  19.3674355  44.1911469  -0.1083530
  56.4136276  13.4856958  76.1417389  56.6385536  14.0491943  75.4013977
  55.7908783  14.0010176  76.6544342  82.4851379  70.0539398  32.4513245
  83.0258484  70.5766678  31.8592014  81.8330383  70.6693726  32.7863426
  83.5119705  38.9969864  64.2474365  83.6295547  39.2949600  65.1494446
  82.9305267  38.2400131  64.3191299  53.9296341  61.1213760  47.2764473
  53.9397011  60.3525124  46.7063751  54.5480576  61.7287369  46.8703728
  55.8698120  36.9608727  70.3487854  56.7542305  37.2134514  70.0837479
  55.2991905  37.5937347  69.9127655  12.6499510  32.4393272  21.3827591
  13.1894808  31.6581554  21.5048523  12.9033861  33.0199928  22.1002769
  53.2514076  63.2151566  51.0244102  53.1745834  62.3133774  51.3360558
  52.3708382  63.4407730  50.7245369  57.0342903  54.2090416  54.3786392
  56.2882233  53.6763000  54.1033211  57.1904984  54.8009186  53.6427650
  53.1643448  37.0260391  25.5906696  52.5415268  36.5212288  26.1136379
  52.6961517  37.8319473  25.3726330  78.1784363  69.9532700  41.7692375
  78.6015930  70.7211761  42.1532822  78.1610641  69.3099289  42.4777870
  84.2367783  22.7271290  46.9538612  84.3141632  23.0789833  46.0670433
  83.2955246  22.7207623  47.1277199   0.5739552  10.7748833  41.8738823
   0.6312537  10.8950453  40.9259872  -0.1134687  10.1191788  41.9910698
  20.3549919  36.0034485  14.7405939  20.9978962  35.3721313  14.4175720
  20.8782692  36.7492371  15.0342197  70.7182083   3.3056037  74.5404587
  71.1499329   2.6589692  73.9821548  70.5010986   2.8253236  75.3394775
  12.8170872  11.4261866  68.4890366  13.6653719  11.8347750  68.3167038
  12.5326099  11.0962095  67.6367340  44.4064102  61.5724564  27.0105019
  44.3817635  62.1209030  26.2263889  43.9881172  60.7539330  26.7435169
  76.3658829  46.5783844  79.3155975  76.7445984  45.7891693  79.7028275
  77.1222458  47.1044235  79.0559387  54.5650558  34.9217911  39.3807297
  54.4027786  34.0033150  39.5959015  53.7623024  35.3740120  39.6401787
  46.1943169  43.0915337  56.1269302  45.2372322  43.1033134  56.1360626
  46.4262505  43.1894684  55.2034340  44.1848145   7.2215004  77.4534912
  44.5976906   6.7151613  78.1530533  43.7472496   6.5663633  76.9098358
  18.7617741  20.3542023  11.6527834  18.4568901  19.4479599  11.6975346
  19.4536152  20.4069901  12.3121767  67.4511337   6.9109058  41.7342567
  67.2068787   5.9854746  41.7221718  66.6342545   7.3717518  41.9254608
  59.6649857  45.6264153  17.9404087  59.2150803  45.1552696  17.2390938
  59.8435898  44.9579353  18.6018181  33.5910263  31.1185188  70.8112640
  33.9606323  30.8250942  69.9784775  33.2054100  30.3300762  71.1932144
  56.3462105  19.0542488  43.6968460  57.1003304  19.5024719  43.3139229
  56.2318649  19.4666214  44.5530624  72.7474442  26.6254978  59.2501678
  71.8559494  26.7419357  59.5786667  73.2850800  26.5490551  60.0384178
  75.4416656  66.2526093   1.9309570  75.9210739  66.7221756   2.6135309
  75.2316971  65.4059296   2.3250082  53.0113144   3.1163254  76.2536469
  53.8366051   2.6532452  76.3974762  52.7970886   3.4944966  77.1064758
  31.2894268  45.0336723  45.7916870  31.5111980  45.6018181  45.0539436
  32.0968018  44.9788513  46.3029327  21.9216862  63.3538628  67.9801102
  22.7483482  63.8292007  67.8969345  22.1725807  62.4305191  67.9532852
  64.0197906  70.0315704   0.3238368  63.1867638  70.5030289   0.3292659
  63.7799072  69.1235580   0.1389270   3.9217391  50.9079094  63.3008080
   3.2285702  51.3172455  63.8186798   4.6810217  51.4775696  63.4241371
  68.6607666   5.9465837  69.2316284  69.4172516   5.5792365  69.6888199
  69.0384064   6.4558568  68.5145111  43.8116302  12.0607033  69.6464233
  43.6611977  12.6407251  68.8999786  43.6734810  12.6165686  70.4133377
  62.9553185  24.0508232  87.0654602  62.9652061  24.8723354  86.5742874
  62.0374908  23.7791824  87.0594101  83.1935883  71.0750198  75.3888474
  82.9018555  70.4579544  74.7177658  83.1319199  71.9327927  74.9685440
  83.3980331  15.3728743  18.1129150  82.8540344  15.0261641  17.4057446
  84.1710281  14.8083658  18.1192417  60.3831825  30.9900169  61.6876297
  59.4438362  30.8491516  61.5692253  60.4628563  31.3404999  62.5747871
  57.9457359  35.9789886  83.0203018  57.0247879  35.7188454  82.9999619
  58.2716789  35.7749214  82.1437454  84.6802368  66.5528412   1.5543531
  84.5033264  66.7017899   2.4831975  84.1093597  67.1720734   1.0995053
  79.5140686  58.3549156  34.4143257  79.1310883  58.9081421  33.7335167
  79.4582138  58.8823891  35.2111206   4.1448312   9.7920513  38.7061501
   3.8394868   9.4561110  39.5488472   4.5844007  10.6146793  38.9213066
  23.0075607  19.3843899  87.7245712  23.0636292  19.5404301  88.6673050
  23.2020035  20.2341442  87.3291702  66.3140793  70.5706940  74.8005600
  65.4742050  70.8292542  74.4211121  66.4686966  71.2086487  75.4972305
  40.6134529  37.2053337   0.1228640  40.2169952  37.3550377   0.9811426
  40.6773529  36.2529488   0.0513831   3.0659811  24.8326950  88.0289383
   3.0714915  24.0016479  87.5540009   2.6185403  25.4414730  87.4412155
  22.8694668  38.9935837   8.4797382  22.6931877  39.5558968   7.7254448
  23.8176193  38.8631363   8.4648495  76.8626556  61.5803871  23.0359116
  76.4676514  62.2770844  22.5116825  77.5903702  62.0054283  23.4897900
   4.7747741  19.5466175  47.3495293   4.9152164  20.4257565  47.7011299
   3.9575236  19.6138725  46.8557587  21.3554420  28.6211491   2.4637752
  20.9412575  29.4285278   2.7684386  21.8327656  28.8795681   1.6753508
   6.9392180  10.7358389  81.2208939   6.5215054  10.6949406  82.0811691
   7.7094588  11.2881699  81.3546524  64.6212540  39.7929726   7.1896086
  64.7479172  40.1927643   8.0500460  65.3879700  40.0636559   6.6845250
  16.9004097   6.2550673  71.7476654  16.3518238   7.0385909  71.7105713
  16.8533249   5.9727411  72.6610641  75.0616684  40.3250694  12.3230610
  74.7902527  39.5680122  11.8039951  74.2631302  40.8423767  12.4277935
  48.0747414  14.0786572  60.5816154  48.5951881  14.8060884  60.9225159
  48.6433754  13.3140526  60.6725349  63.4417648  13.3833666  55.1944237
  63.2103615  14.2051239  54.7615280  64.3965302  13.4069681  55.2584496
   1.0105900  64.4329834  60.4168549   1.6299890  64.4948120  59.6897011
   0.5295822  65.2602005  60.3927498  77.4388046  64.3252411  24.1217747
  76.8370438  64.1763000  23.3924389  76.9777451  64.9417267  24.6906319
  42.3759918  66.8912354  53.4255066  42.9538765  67.2787170  52.7681351
  41.7595520  66.3613815  52.9200478  78.7880249  70.2040405  71.7141113
  77.8999786  69.8523102  71.7764359  78.9148865  70.6808929  72.5343246
  42.1772614  11.9074278  38.7630157  42.1725388  11.5765476  39.6611938
  41.2518692  12.0082302  38.5400352  61.9394646  61.6451340  86.9317627
  61.6381798  61.0568733  87.6241531  61.8680153  61.1275024  86.1297760
  47.3498077  38.7576790  52.5570374  47.5746117  37.9112587  52.9433937
  47.3540802  38.5988121  51.6131210  20.0872974  35.2542152   2.6617739
  19.5746956  35.5148010   1.8965509  20.9498539  35.6427231   2.5158725
   6.4507174  51.6665955  45.5145187   6.8667951  51.0852699  46.1510544
   6.7493210  52.5425186  45.7591133  21.7391205  61.2888794   0.3710085
  21.6571426  60.9373169  -0.5155106  20.8792343  61.1450615   0.7661614
   0.6122614  19.1369915  60.3049431   0.4781854  19.6726933  61.0867844
   0.0748526  19.5557823  59.6326027  46.5746498  10.3033009  20.4740372
  47.2029648  11.0141592  20.3470268  46.0667763  10.2847614  19.6628933
  58.4060593  10.1450653  57.4822845  57.5456772   9.9035339  57.1392975
  58.2647018  10.2640982  58.4214745  55.5476456  68.6010818  64.8862076
  54.7312126  68.9892349  64.5715561  55.5228729  68.7272263  65.8347321
  82.3070831  11.5580473   0.6529808  83.0634689  12.1221018   0.4918547
  82.1345367  11.6506281   1.5899372  71.5185242  50.6759644  21.4720154
  70.8305283  50.7680092  22.1311264  72.1432037  50.0642662  21.8616600
  53.4109993  47.9642220  12.8689060  52.7944374  47.5057144  12.2980690
  53.3837051  48.8731308  12.5699568  47.1877861  66.2463150  57.5438995
  47.9955597  66.0235062  58.0065956  47.0681000  65.5348892  56.9147835
  39.5792427  55.9699936  21.2102146  39.1890488  55.6506805  20.3965683
  39.9665947  55.1920776  21.6115131  66.9600830  27.4834366  29.9183979
  66.0208893  27.3071156  29.8630257  67.0371017  28.4238949  29.7576523
  80.4819183  59.6444206  86.2407379  81.1286316  59.0820274  85.8144608
  80.6728668  60.5222015  85.9101715  76.6350327  35.8434715  77.3461990
  76.6186752  36.0407219  76.4096832  76.7158585  34.8906479  77.3889008
  10.0042324  64.1183929  61.1867828   9.6611195  64.3286362  62.0552902
  10.6968927  63.4785728  61.3513336  10.9500866  32.4420891  79.0908356
  10.9540844  31.7993011  78.3815842  10.7818527  31.9270325  79.8799133
  80.6597443  50.8803558  80.4710541  80.2265701  51.0931358  79.6444244
  81.0419083  50.0149345  80.3253784  83.8999710  48.7252731  51.2559395
  82.9461594  48.7876167  51.2050514  84.2163849  49.3852539  50.6390610
  29.4293442  30.1759815   3.3149195  30.1299744  29.8700104   3.8908799
  29.1456203  29.3916225   2.8453288  23.1718159  11.9342966  87.7414169
  23.5484371  12.8016005  87.8903198  22.8748970  11.9550877  86.8316727
  68.1911240   4.6422291  30.9262791  68.6019211   3.8124537  30.6834888
  67.3775940   4.6632180  30.4223347  38.7073021  55.9927292  36.3317146
  37.9957008  56.6328850  36.3394051  38.3427086  55.2240448  36.7703819
  63.8327141  37.9905930  81.0658646  64.1634369  37.1104012  80.8866501
  64.0085526  38.4806709  80.2626572  86.1726837  19.1380711  66.9594116
  86.9710846  19.6043701  66.7117386  86.3854752  18.7271137  67.7973022
  51.0251503  33.6857262  58.9056015  50.1592331  34.0420876  58.7070351
  50.9357567  33.3141861  59.7832108  17.7839088  68.1545944  59.7531853
  18.2804222  68.6386337  59.0933304  18.2392082  68.3350601  60.5755997
  86.7577438  43.2393684  57.6349411  87.0863724  44.1331825  57.7315483
  86.1253738  43.1384735  58.3463936  48.9478111  37.0688477  69.9488831
  49.4455910  36.2974930  69.6778488  48.5263405  36.8065147  70.7672806
  28.1172619  11.9362822   5.0430875  27.7405262  11.1783171   4.5961089
  28.3712540  12.5294437   4.3360658   4.6595683  35.6084442  59.5165405
   3.8602872  36.1018867  59.7006454   5.3686376  36.1901703  59.7904816
  58.9307404  21.6054363  14.4237156  59.3378448  21.0781021  13.7363901
  59.6673317  21.9968147  14.8932781  73.7593002  56.4674797  48.1453819
  74.1827698  56.0308952  47.4062614  74.0198517  57.3848419  48.0629730
  32.7837410  11.0391207  84.4803467  31.8783321  11.3119965  84.3319931
  32.7223091  10.3606949  85.1528015   0.8977524  36.8139267  74.5615158
   1.0082477  35.9784203  75.0153275  -0.0125484  36.8072319  74.2656403
  73.3818512  40.7477646  81.5674057  73.4947815  40.6403580  82.5118332
  73.6690674  39.9138527  81.1954803  71.1775970  34.5363503  77.3207169
  71.0617828  35.4535103  77.5689774  70.4889374  34.3739319  76.6760406
   1.8940496  69.8741455   0.1635256   1.8793833  69.6487961   1.0937053
   1.0487747  69.5725708  -0.1693324  24.6840172  67.1717377  65.7893372
  24.8864727  68.0646439  66.0685425  23.7275829  67.1342773  65.7815399
  59.1193962   4.3795943   4.4491539  59.5728874   3.6833830   4.9244099
  59.8212662   4.9391742   4.1167707  85.8683243  70.3057480   2.6687891
  86.5887451  70.9341812   2.7167559  86.2981033  69.4515381   2.6257052
  11.8133717  45.7139931  45.7078323  12.6318779  45.2177315  45.7082329
  12.0707636  46.6002884  45.4539299   3.2161548  53.5446815  68.6437836
   3.4837210  53.3314590  67.7498169   2.7331138  52.7730980  68.9396973
  62.8144798  24.8368225   8.6898289  63.7361679  25.0835133   8.7664261
  62.4284592  25.0893154   9.5285578  49.7230492  10.3779068  73.2213135
  50.2067947  10.2033501  72.4140091  50.2408791   9.9558430  73.9068451
  26.8115482  67.1396103  11.4303656  27.4275608  66.6386566  10.8957548
  26.2161961  66.4817886  11.7896070  81.1144943  13.0709496  49.7795715
  81.7962418  13.0749807  49.1076813  81.3250504  12.3166103  50.3299065
  82.5936203  35.4838066  84.1272812  82.4363937  34.5564156  83.9499207
  81.7267685  35.8870087  84.0800781  79.0903778  51.9231567  78.6908951
  78.3308182  51.3629150  78.5314026  79.1268768  52.5000839  77.9279709
  76.5665054  43.0248871  73.5149460  76.0129547  43.1121063  74.2909622
  76.0113144  43.3144035  72.7909470   0.1471999  43.7702599  11.6362047
  -0.3284877  43.8704910  10.8116398   0.4662262  42.8679276  11.6205149
  67.6795044  47.0192108  40.9483757  68.2870712  47.4266548  40.3310547
  67.7696686  47.5355682  41.7493019  52.5472450  40.0088577  76.8961334
  52.7844620  39.5163307  76.1103973  53.2792549  40.6105156  77.0317688
  40.8198738  37.1236000  41.7465057  40.8326225  36.5524826  42.5145493
  41.7046585  37.0608978  41.3866997  81.1270828  48.7178917  18.0829449
  80.3090591  48.8681297  18.5567455  80.8568039  48.5861626  17.1741943
   3.1111441  32.9611664  48.8013039   2.1913376  32.8879128  49.0559044
   3.2025080  32.3637619  48.0590134  23.4725933  65.7667618  83.1389771
  23.7934914  66.2594223  82.3836365  22.5418968  65.6328812  82.9597778
  70.1021805  36.7550583  67.7675781  70.7375183  37.0544434  67.1172333
  70.3024521  35.8268852  67.8884735  53.8591194  54.6342659  24.9380245
  54.0563660  55.5704460  24.9082527  52.9272461  54.5789871  24.7263813
  69.6649704  44.9697495  43.4300499  70.1304398  45.8059502  43.4484901
  68.7949371  45.1722984  43.7739067  17.3022156  28.8217010   9.5377340
  16.3464794  28.8196850   9.4848871  17.5889587  29.1308460   8.6784086
  62.7191963  44.1440201  77.1388931  61.7975693  44.3232956  76.9526215
  62.9863091  44.8499947  77.7275238   0.4434187  33.1910019  15.0784206
   1.2790681  32.7483406  14.9301920  -0.0028925  32.6486282  15.7287025
  73.8141479  20.8708801  81.0122147  73.4977036  20.1678810  81.5795670
  73.9599075  20.4482994  80.1658020  12.7296419   4.0696001  24.3052387
  13.4013491   3.9837384  23.6287270  12.7503633   3.2335126  24.7708149
   4.6490412  61.3556862  87.6939468   4.7699332  60.4364166  87.9317703
   4.7665849  61.3748245  86.7441864  67.5884094  49.1418762  42.6693382
  67.9379501  49.8707886  42.1567535  66.6401138  49.2002029  42.5528793
  65.1579514  37.1770401  54.6312943  64.6099701  37.8726196  54.9947701
  64.9938889  37.2106628  53.6888580  44.2521324   3.0207939  50.2098923
  43.5581741   3.6147485  49.9237595  44.1341209   2.9533670  51.1573906
  12.7674141  50.5774078   8.5280485  12.0393038  50.7295380   9.1304970
  12.6105890  51.1843643   7.8046951  42.6752167  49.7167854  74.7813187
  43.0146065  49.0064507  75.3258057  42.0451469  49.2922096  74.1990967
  27.9622517   3.0627475  65.9820175  28.5331306   2.2954032  65.9431229
  27.7629204   3.1660635  66.9125137  55.9469261  46.2970123  37.2202644
  55.8966141  46.8301086  38.0136833  56.0137138  46.9331360  36.5081406
  85.3386688  14.7425203  53.0090256  84.4854889  15.0751772  53.2876892
  85.8587418  14.7144661  53.8121223  41.9169006  56.7200813  26.0149536
  41.7006989  56.7144356  25.0825062  41.1447639  57.0961533  26.4375763
  66.1590576  11.3556776  86.9244080  65.7448578  10.4930124  86.9024353
  65.4586487  11.9509201  87.1915207  15.3776264  70.7437363  59.3921585
  16.1934071  71.1807556  59.1477242  15.4777927  69.8495407  59.0656586
  70.5157318  58.4136467  67.1937485  69.7531052  57.8462944  67.0808716
  70.2189713  59.0971069  67.7946167  38.8867149  24.5178776  86.0041580
  38.1809692  24.9361935  86.4972763  38.9294319  23.6283150  86.3549881
  72.6908188  33.3797989  20.8158302  73.5148239  32.9551811  21.0544491
  72.0269547  32.9204826  21.3301735  29.1555729  45.2835579  70.3461990
  28.4244137  44.8699455  69.8873291  29.5291386  44.5835228  70.8815765
  53.0696297  60.5480232  74.6772308  53.6490631  59.7932968  74.5729218
  53.1116867  61.0005074  73.8347778  59.5207901   3.4975324  21.2454052
  60.2146606   2.8545849  21.3916664  59.9832916   4.3284841  21.1365719
  47.1067276  50.7331047   3.4535673  47.8550148  50.7188110   4.0503049
  46.3470612  50.8468742   4.0246983  17.6576691  42.6426964  14.8087845
  17.4140568  42.2600517  15.6516762  16.9332161  43.2303581  14.5941896
  50.8073311  58.4181061  60.7118721  50.1311302  57.7674751  60.9007263
  51.3502541  58.0103683  60.0371742  17.0561047  11.9438972  82.5740356
  17.3026409  12.0958719  83.4863663  17.0986996  12.8092365  82.1670837
  81.3396606  52.0105438  72.7044220  80.5531998  51.4718590  72.6176682
  81.0525055  52.7749443  73.2038803  57.6919289  66.3284225  41.9350204
  57.1884804  67.1341095  42.0518608  57.9141769  66.3177567  41.0040398
  54.6649628  52.2393227  13.1183939  54.0898209  52.6754074  13.7471027
  54.9391174  52.9356422  12.5215607   4.8483281  58.8575325  48.2661171
   3.9744115  59.2453918  48.2206459   5.4380469  59.6059189  48.3576660
  40.0018387   9.8130980  73.8036652  39.5506439   9.1304693  73.3069992
  39.6036644   9.7792854  74.6734619  36.3607063  29.1190891  83.6650772
  35.8807030  29.0585899  82.8391495  36.4981918  28.2094364  83.9293900
  74.4194489  67.9908676  86.4675522  74.5819778  67.8741608  87.4036102
  73.6247559  67.4851074  86.2975540  53.0998230   3.9421344  45.6838188
  53.0791855   3.1400890  46.2058640  52.3986130   4.4827456  46.0475121
  67.4844742  18.6060829  12.8676243  67.1735077  17.7086792  12.9867973
  67.4227371  18.9985905  13.7384624  64.8536758   6.4736209  71.3941422
  64.1072083   6.1903834  70.8661346  65.4308853   5.7105308  71.4216537
  83.0800476  68.5481720   0.6130823  83.0524826  69.5046768   0.6371379
  82.2524490  68.2949219   0.2042216  21.6612434  61.0504608  70.6642532
  20.9914188  60.7965012  71.2991333  21.9529037  61.9140930  70.9563217
  33.9574699  63.9335098   5.4730124  34.9139519  63.9653435   5.4541292
  33.6831322  64.8047333   5.1867657  10.9402351  66.6548996  86.3993912
  11.2040024  65.9952850  85.7578506  10.9815359  67.4834366  85.9218445
  56.4781723  35.1219673   8.9718561  56.7206383  34.4889984   8.2959890
  57.2074127  35.1018028   9.5915613  61.5241852  54.5348434  48.4462280
  61.1375198  54.4166107  47.5786209  62.4655647  54.5930367  48.2829971
  55.8461533  20.9540882  24.6934929  55.0254211  20.7747593  25.1522655
  55.9589233  20.2084007  24.1040287  61.2477608  64.9490433  60.0678749
  61.2511635  65.4260406  60.8977470  60.9317551  65.5858383  59.4268875
  17.7894344  70.0881271  73.8553162  18.1915817  70.2448349  73.0009384
  17.7646465  69.1347580  73.9371262   0.3284353  64.6104050  15.2667580
   0.4144304  65.5636749  15.2563572   0.7262915  64.3430557  16.0952911
  53.2982788  32.6406136  68.1156540  52.8897438  33.4756851  68.3436661
  53.5195389  32.7274895  67.1884384  80.4076767  17.8972511  64.2139053
  79.8140335  18.6001282  64.4780807  79.8524933  17.2824211  63.7343369
  53.7227211  19.3710613  66.5645218  54.5337257  18.9938450  66.2236252
  53.2164993  18.6170959  66.8670273  68.2419281   8.4790306  48.4151268
  69.0357132   8.7636862  47.9622383  67.5954285   9.1554651  48.2133789
  40.4717216  54.5579033  28.1251583  39.9135857  55.3354836  28.1344128
  40.7489319  54.4728966  27.2129307   4.9036422  21.2428150  16.2685394
   5.7915111  20.9453983  16.0698833   4.5034933  20.5082703  16.7338982
   3.2032969  32.8787460  59.3501320   3.7242582  33.6064072  59.6897507
   3.0354397  32.3272247  60.1142540  68.8074036  62.0315895  71.3495636
  68.1705322  62.3767319  70.7238541  68.2922745  61.8355484  72.1321487
   7.1098638  41.3606720  59.7665749   7.3231640  41.9528046  60.4877625
   7.7605453  41.5592270  59.0932083  49.6504364  47.5028419  37.0814476
  50.0847282  47.3273277  36.2466965  50.0323143  48.3277512  37.3813286
   2.9919975  16.9960766  38.7763290   2.1292832  16.7381210  38.4516525
   3.6011643  16.6974087  38.1010933  58.8653412  28.9559574  14.0066156
  58.8048592  29.7628021  14.5180626  57.9729042  28.6099453  13.9986811
   3.9797509  19.8823452  81.4532394   3.2136104  20.3973484  81.2001877
   3.8588092  19.7166538  82.3881989   0.9011704  50.8689728  67.7475510
   1.7157487  50.9101372  68.2485504   1.1840409  50.7953758  66.8360748
  10.2679749  44.3662758  43.5314560  10.7683983  44.7127075  44.2702332
   9.7695398  43.6372299  43.9006271  48.4286346   0.3955219  21.7284622
  48.6552010   1.2579085  21.3803387  48.0267868   0.5781141  22.5778217
  24.7647648  58.8933754  79.6210251  24.8129501  59.0999374  80.5544281
  25.6576233  58.6417160  79.3850098  22.9828568  26.6247616  81.9238586
  22.2240543  26.5964108  81.3410645  22.8745098  27.4368706  82.4188004
  69.9473877  69.9960251  34.0625534  69.3056870  69.4088364  34.4621162
  70.3034210  69.4970932  33.3273430  44.6151848  40.3972244   1.2669810
  45.3770332  40.9766350   1.2771101  44.9067268  39.6101646   1.7271640
  27.9532986  19.0807209  78.8961258  28.7795124  19.4897785  79.1535645
  27.7346287  19.4890938  78.0584869  60.0480614  45.0440369  30.7437820
  59.3984528  45.3505287  31.3764763  59.6414375  45.1954613  29.8905773
  84.8709869  43.9456139  81.3570099  84.6216660  43.2068138  80.8018112
  85.3978729  44.5061531  80.7874374  15.2521944  16.8636131  72.2955551
  14.5901728  16.5777664  72.9250412  15.1943827  17.8190250  72.3043976
  59.5430870  65.4356766  28.6386185  59.7706413  65.6535645  29.5424862
  58.5930481  65.3195877  28.6521358  35.5674629  57.7557755   3.5599856
  36.0184250  57.2299538   2.8993969  35.7603073  58.6615105   3.3177316
  36.5562553  16.4230556  65.3686752  35.6906013  16.5299606  65.7629395
  36.8541985  15.5660801  65.6737213  25.8970032  44.6312599  80.5469437
  25.9795818  43.6834679  80.6522980  25.0573292  44.8452034  80.9536438
  28.8728428   9.4601727  58.8076935  29.4108810   8.9499931  59.4130554
  27.9975567   9.0810184  58.8873787  78.8709335  49.0342140  19.8063259
  78.9939575  48.2151985  20.2862396  78.9255753  49.7152023  20.4767723
  63.9041176  67.8026810  38.1131439  63.0795135  67.5015488  37.7316017
  63.9630737  68.7238083  37.8596001  75.9074631  60.2224846  43.7770882
  75.8410873  59.9971390  42.8491631  75.1125412  59.8607712  44.1688652
  25.4027214  67.8510666  38.7676849  25.3498783  68.2527695  37.9004631
  26.2967777  67.5133667  38.8211479  47.0397491  53.7622032  33.0765114
  46.8295364  54.4492111  33.7090187  47.4205666  53.0597687  33.6035767
  16.6691551  57.5124397  63.3987617  16.1952553  57.3222656  64.2083817
  17.4532127  57.9812241  63.6846428  19.5159054  14.4975014  13.7689161
  19.9140778  15.2061739  14.2743607  19.9162655  14.5671711  12.9022627
  63.3500481  33.8942490  73.9215393  63.9613495  33.9516602  73.1872025
  63.7068710  34.4930000  74.5775909  71.2083511  45.5676880  61.3203659
  71.7893143  45.5397682  60.5601463  70.9948044  46.4949112  61.4246902
  63.8380814  29.9151688  64.0212555  64.6390076  29.9430733  64.5446701
  63.1530457  29.6729946  64.6443939  34.8926392   0.4003800  59.3748550
  34.5304375   1.2520225  59.6192894  35.2740784   0.0610198  60.1845284
  32.8952446  56.5289192  69.5985870  32.2093353  56.0033951  69.1867828
  33.6546974  55.9472809  69.6325989  14.3313351  48.3578224  49.3209877
  13.3762465  48.2951889  49.3102188  14.5820522  48.3538704  48.3972168
  34.0435448  50.4066086  48.6392403  34.2237892  50.9651108  47.8830490
  34.9002228  50.0631447  48.8929405  70.0204315  53.7146225  71.9308319
  70.0726624  52.7633705  71.8379669  70.8740463  54.0313454  71.6354294
  35.4431801  41.8176422  71.3304062  35.7786598  40.9327087  71.4738617
  36.0648117  42.3860779  71.7850342  18.5546227   4.1072593  26.9572315
  18.0732536   3.2812953  27.0051765  19.3548431   3.8906839  26.4787197
   7.4544010  13.4476480   7.6983361   8.3645811  13.1574612   7.6383772
   7.1571145  13.1291428   8.5506315  41.6370239  23.3598957  76.5041885
  42.5638123  23.1243896  76.5469971  41.3589211  23.4052238  77.4189758
  31.9994984  16.7261391  12.2103157  31.4055042  17.3996658  11.8790083
  32.8534203  17.1570435  12.2473307  20.2249756  18.3333912  71.8447723
  20.5092163  17.4626160  71.5669479  20.0283489  18.2352486  72.7764053
  43.6326714   8.8027458  10.6364279  43.6720314   8.2371006   9.8652420
  44.4282303   9.3325987  10.5856838   7.8150277  31.6145058  22.9140663
   8.2412987  31.9452629  22.1234169   7.6637444  30.6865921  22.7342873
  42.0027351  38.5025444  75.9114609  42.6033287  38.9655724  75.3274002
  42.1747818  38.8750801  76.7762451  51.9376755  26.0509892  64.7766037
  51.0417213  25.8789806  64.4869232  52.4018517  25.2285042  64.6207504
  60.3973732  24.8824024   2.0180972  61.1612053  24.8164291   2.5911918
  60.3967590  24.0623074   1.5244639  47.8004990  10.0177622  16.7269020
  48.4180489  10.4636164  16.1471806  47.1396141   9.6533661  16.1381092
  29.4689960  60.5148888  49.7132988  28.7734699  60.3750801  50.3558960
  30.1397476  59.8716545  49.9425812  55.5808144  17.3830357  33.2669678
  55.3634109  17.0775280  32.3862686  55.6531143  16.5827179  33.7870636
  53.8415565  30.6072979  53.4891777  53.9446144  29.9788837  54.2038193
  53.8204460  31.4608154  53.9219551  85.8970566  46.6455040  71.1103592
  85.6686783  46.0918884  71.8570786  85.2691803  47.3671112  71.1463013
   2.7080870   1.7297966  12.2259731   2.4825633   1.7447765  13.1561060
   3.3198707   0.9987068  12.1396017  27.5287724  69.7258148  12.0631647
  26.9928017  69.0562592  11.6381159  28.0793247  70.0730438  11.3613434
  33.3643150  47.5266876  33.6884270  34.2755356  47.3038216  33.8787918
  32.8528748  46.9421120  34.2478333  58.8936462  20.1911087  10.0896454
  58.5072975  19.9363308  10.9275322  58.2077332  20.0140285   9.4459076
  29.0843620  71.2503738  82.9445572  29.8558998  70.8492661  82.5444717
  29.4164143  72.0461960  83.3600616  26.7947502  71.2974243  26.8842220
  26.0313416  70.9718628  26.4073067  26.4792614  72.0804367  27.3354321
   1.8136173  31.7968979  38.3026505   1.8817626  32.0544319  39.2220345
   1.1806784  31.0788307  38.3013420  47.7653427   5.0120468  85.9721985
  47.6978188   5.3002706  86.8824768  48.5798225   5.4036469  85.6567612
   5.3796835  59.9274902  58.5487442   5.6539059  59.0353317  58.7610817
   6.1939764  60.4302902  58.5299950  66.6462555  30.9646721  34.0548935
  66.2951279  31.8469162  33.9341164  66.1590576  30.4256077  33.4317703
  76.4265289  57.8197250  10.5760803  76.7939377  58.5608597  10.0944548
  77.0548477  57.1105309  10.4400778  53.2759056  69.8135452  11.8053608
  52.8643112  68.9494247  11.8161669  54.1915779  69.6454926  12.0279160
  22.5980358  61.2101250  66.3548126  21.8199387  60.9541740  65.8595505
  23.1009731  61.7525024  65.7472687  53.8325233  43.1632538  14.0617208
  53.7648659  43.8788261  13.4295778  53.7560234  42.3688126  13.5332861
  21.7043648  66.4824142  38.2543068  22.5462246  66.5498352  37.8037987
  21.0770893  66.2788010  37.5605507  13.3934793  64.9765625  12.2447023
  13.5634050  65.7050552  11.6474991  13.0338669  65.3893967  13.0298643
  36.5705032  49.7100868   8.4895420  36.8381500  49.2394295   7.7001882
  37.0288849  50.5486488   8.4354095  40.5434380  15.7512503  69.9813843
  40.8153458  16.5448570  70.4423523  40.2396660  15.1642704  70.6737823
  80.6232147  65.0575333  59.9408302  81.1632385  65.1929855  60.7194595
  79.9958420  65.7803116  59.9557610  21.6761379  47.9505348  78.2154236
  20.9360752  48.2999611  77.7190018  21.7737179  48.5510063  78.9544373
  80.9870071  32.1128159  48.1548500  80.1315155  31.9407692  47.7614594
  81.4545364  32.6265297  47.4962540  62.2984772  58.2365799  47.2501488
  62.8353119  58.9874802  47.5035057  61.4891434  58.3410683  47.7504425
  54.2812653  35.0261574  62.2118988  53.4205437  34.9163857  62.6160545
  54.2856102  34.4036179  61.4848099  73.4178619  65.5174866  10.5556364
  72.9725037  66.3639069  10.5174217  73.8626633  65.4425507   9.7113810
  42.7010727   4.5624371  37.8935013  42.2077026   5.0210629  37.2134399
  42.5721359   5.0913200  38.6808319  16.9702549  63.2719536  47.0882492
  16.1005154  62.9665985  47.3462105  17.5579357  62.5581818  47.3360214
  29.4081154  70.7752914  55.8942604  29.7702427  70.0037689  55.4585381
  28.5716686  70.4777451  56.2521095  37.2203827  32.0989571  74.3199081
  36.3132591  32.3585815  74.4810181  37.6070023  32.8480949  73.8665314
  79.7787704  52.6332741  50.4726257  79.0652313  52.6395493  49.8346138
  79.4092636  53.0533142  51.2493286  84.5292587  25.0331306  80.8905258
  84.9848938  25.4413395  80.1543274  84.5203857  24.0996704  80.6788635
  13.6257935  59.7958641   2.4932363  13.7232466  58.9117393   2.8468699
  14.4290934  59.9441452   1.9942844  16.0356846  54.2890549  86.7052460
  15.1914206  53.9810257  86.3757477  15.8896980  55.2121544  86.9121399
  55.3474312  69.2227783  87.1045609  54.8185234  69.4446106  87.8709030
  55.9361115  69.9696350  86.9954987  63.7757454  41.7319336  66.2967758
  63.3117447  41.4872665  67.0974426  64.6838455  41.8535957  66.5738754
  10.3387527  67.7608566  29.1947155  11.1481771  68.1361084  28.8479481
  10.0360575  67.1675491  28.5072594  69.2051163  64.2845154  88.9855728
  69.0228348  63.7192688  88.2349091  68.3729248  64.7229843  89.1628876
  69.1282501  70.6348724  24.0104504  69.9565735  71.0079269  23.7088814
  69.3639755  70.1216736  24.7832966  21.4433422  49.4588966  74.8368835
  20.5180969  49.5116158  74.5973511  21.7215500  48.5961456  74.5294876
  34.4501114  14.0214920   3.7967823  34.4364624  14.4610710   2.9465966
  33.9196129  14.5808449   4.3641663   1.4694964  39.2573700  80.1115265
   2.0724034  39.9964218  80.0306625   0.8459146  39.5295372  80.7848053
  71.5707474  18.9868259  55.6823997  72.3606110  19.2924328  55.2363472
  71.8300781  18.1600590  56.0891380  75.1015244  70.9659119  47.6365166
  74.2868042  70.5241547  47.3971176  75.6660233  70.2659760  47.9646339
  43.9534225  33.8043709  67.8454208  43.5102654  34.1541557  68.6184006
  43.9933205  32.8603897  67.9988632  27.4095459   1.9871517  16.2234058
  27.1313934   1.1865275  15.7785864  28.3439236   2.0575035  16.0279026
  78.3773804  44.6142960  58.5969162  78.3735352  45.5119209  58.2645187
  77.6691055  44.5941734  59.2404785  10.1285191  53.6956329  46.6127853
  10.2504616  52.7951851  46.3118553  10.4359980  53.6889458  47.5192299
  77.6712112  60.9367332  72.2561417  76.9831848  60.7677994  71.6124649
  78.3939972  60.3690224  71.9887238  27.1344357  49.5698929  13.6650677
  27.3017502  49.5544052  14.6074038  27.8981705  49.1409531  13.2791252
   0.1799772  46.9690056  88.5552368   0.3131195  46.0584068  88.2919693
   0.8034668  47.1057129  89.2685394   9.2998867  29.7973518  50.9729424
   9.5448084  29.9307270  50.0572701   8.5362387  30.3600845  51.1010246
  86.0425262  48.8929901  85.3508377  86.3177795  48.8868141  84.4340820
  86.3253632  49.7461166  85.6800919  57.3679161  55.1571884  31.5306072
  58.2301941  55.3432388  31.1589985  57.1366730  54.2969398  31.1802769
  20.4009209  55.2732849  45.9278679  19.6148376  55.8178482  45.8859482
  20.5378551  54.9805908  45.0268631  23.4377708   9.1325855   9.3192244
  24.2892189   9.1191168   9.7563572  23.4473591   9.9372301   8.8008738
  77.9308777  24.1550884  23.7068748  78.2761612  24.8267002  24.2950535
  77.4011688  23.5918694  24.2711620  75.5366669   7.6812954  83.2003174
  76.2306290   8.2667027  82.8970871  75.5928116   7.7177124  84.1551819
  51.8056870  66.9132233  44.4466667  52.0325012  67.8196487  44.2388725
  51.6050797  66.5161896  43.5991096  55.0219421  70.8001328  25.2778587
  54.1577988  70.3922043  25.2223339  55.5090103  70.4305954  24.5413513
  11.3278770  50.2213020  38.6727600  10.9917440  50.6820297  39.4415131
  12.2722425  50.3759689  38.6947632  78.4194717   3.1750913  14.6376867
  78.2536163   4.1145611  14.5594616  77.6390228   2.7624698  14.2677250
  55.0302849  32.0562859   8.5467310  55.0926552  31.7374134   9.4470987
  55.9237747  32.3161049   8.3222237  26.3379230  40.7119713  74.9094620
  26.6549416  41.5157280  75.3214188  27.1296978  40.2757187  74.5948029
   0.4603002  62.8028183  69.1284637   0.3177400  62.6347923  70.0599518
   0.2241189  61.9811516  68.6979828  34.3043480   2.9637997  63.2178001
  34.5471649   2.0833855  63.5044060  34.6321983   3.0224884  62.3204155
   4.1985621  32.1879005  29.2544117   3.7290177  32.5635872  28.5096836
   4.7045927  31.4670334  28.8795567  85.0917358  44.2478676  84.0717392
  85.7752075  44.8187218  84.4227676  85.2740326  44.2052345  83.1330261
  32.3591309  28.2445908   2.4571319  31.7073078  28.6013050   1.8537151
  32.1192398  28.6065369   3.3101728   5.4516811  50.5692902  52.9667320
   4.8499727  49.9278831  52.5888710   6.3132920  50.3115120  52.6389961
   1.3404450  19.9401188  69.3367233   1.8543969  20.0110340  68.5323257
   0.9801230  19.0536346  69.3133621  81.4131775   8.5883875  14.3760357
  81.0240555   7.7551913  14.6417427  81.7714539   8.9541359  15.1847973
   3.8290472  53.5798759  61.1589851   3.0170696  53.1169586  60.9525108
   4.1538033  53.1520920  61.9513016  86.3494797  58.5766754  25.2696629
  87.0200958  58.8057785  25.9131088  86.5848618  57.6945457  24.9821301
   3.5562847  20.7534466   0.6205965   4.4487443  20.6626606   0.2866719
   3.2163634  19.8588905   0.6418840  61.0620728  42.6790581  15.1779346
  61.4206543  41.9846230  15.7305727  61.5008049  42.5648537  14.3349028
  14.4570723  28.1217728  11.9721880  14.2074347  27.4570599  12.6141148
  15.0737534  27.6750088  11.3922405  14.7951565  15.1015873  24.4564590
  15.5617828  14.6925430  24.8579559  15.1312723  15.9078684  24.0650940
  79.3868637  69.1210556  15.5266542  79.7573776  68.4296417  14.9781094
  79.7270889  69.9330368  15.1509399  17.1610870   8.5344687  31.8371944
  17.0780945   9.0117912  32.6627274  17.8300285   7.8719325  32.0098076
  29.9481430  54.7876930  71.1794357  30.1816654  53.9139214  71.4928360
  30.5146332  54.9294357  70.4209976  38.0269814  40.9753151  11.5803461
  37.8015785  40.7313766  10.6826153  38.2063065  40.1425896  12.0169725
  61.9817085  34.2281914   5.8885913  62.3705482  33.8702965   6.6866817
  61.4517593  34.9659691   6.1903744  30.7748833  68.8756561  57.7634964
  31.4056072  68.7176971  57.0610237  31.1174679  68.3818436  58.5084915
  65.3894730  63.2537193  41.4268494  65.1715851  63.9457703  40.8024902
  64.6179810  63.1871872  41.9895325   2.2935724  10.5482531   2.4736495
   2.4111080  10.9360867   1.6064688   1.7384341   9.7836018   2.3208036
  76.1303558  45.5955162  44.3308029  76.1667938  45.5601273  45.2866554
  75.6991882  44.7794266  44.0771751  64.6628189  42.6047173  76.2641983
  64.8149414  43.1499138  75.4922867  63.9682465  43.0565300  76.7434311
   6.2850313  33.5278397  36.0789337   6.0732503  34.0312576  35.2928352
   5.4389062  33.3710594  36.4981308  76.8070831  63.0919037  82.5020142
  76.1943970  62.5042534  82.0598373  77.6107788  63.0327606  81.9854736
   0.0916214  20.6666336  55.8874321   1.0087940  20.5421906  55.6434212
  -0.0030138  21.6137943  55.9882317  28.3372440  68.5058212  53.4525986
  28.0194645  69.1064758  52.7784615  29.1682186  68.8850098  53.7388268
  54.9198303  39.8442841  52.8880119  54.0108871  39.9540100  52.6086998
  55.3802872  39.5596695  52.0985794  74.1222382  40.0704880   8.6103849
  73.5436707  39.9380379   9.3613520  74.2529373  39.1929855   8.2510252
  84.6788254  17.8052826  23.1596012  85.3318176  17.6649628  22.4739304
  83.9043732  18.1184978  22.6923199  10.4019003  40.2225151  41.4691391
   9.6577768  39.6344337  41.3400192  10.6320953  40.5147324  40.5871811
   8.9169426  46.5256195  57.5584183   8.9303341  46.3218918  56.6232491
   9.1657858  47.4486809  57.6060448  27.0514526  33.7664642   1.6837122
  27.9547291  34.0803223   1.7263427  27.0444355  32.9817505   2.2318072
  81.6877670  33.6561890  45.0791588  80.7944717  33.4845238  44.7811928
  82.2358017  33.4578896  44.3198357  43.5233765  58.5235214  74.6076050
  42.9309731  57.8895836  75.0118484  44.2117233  58.6573830  75.2591324
  74.0744324   1.8125942  64.6173553  74.2619019   1.3298831  65.4223862
  73.1192551   1.8672450  64.5877762  39.6854172  18.0610657  13.7886553
  40.4237785  18.3673725  14.3151817  39.3826103  18.8412228  13.3240099
  85.7528687  25.6282368  73.3146973  86.6867447  25.5699196  73.1129379
  85.6225052  25.0035572  74.0281448   2.0600431  49.3433151  34.5839729
   2.2443836  50.2321510  34.2802887   1.7914565  49.4527512  35.4961777
  61.4274826  61.4627686  52.9556541  60.6966515  61.4622993  53.5738106
  61.8428802  60.6087341  53.0752449  82.3797455  10.9622917  39.6032944
  82.8226318  10.1184483  39.5137787  83.0498505  11.5483627  39.9550285
  47.0446320  63.9772453   1.1379334  47.7877045  64.5800629   1.1642070
  46.5993385  64.1816711   0.3156452  81.8831940  34.2481346  81.2529526
  82.0540466  33.4286461  80.7887573  82.1673279  34.0783730  82.1511078
  20.8836498  16.5703392  14.8801632  21.2903576  17.2071018  14.2924948
  21.5038280  16.4821434  15.6039257   1.7124742  59.6648560  31.5184460
   2.1093264  60.4475861  31.1362534   1.6710234  59.0396423  30.7948246
  41.8826294  44.3444901  86.2471237  42.1615677  43.6255722  85.6800461
  42.6036415  44.9729385  86.2093430  62.4624519  57.1713333  71.8142929
  63.0635376  57.7073212  72.3316345  61.8798141  56.7729378  72.4608612
  23.6007271  38.9948158  84.3634720  24.5087223  39.0185051  84.6654892
  23.5786591  39.6011810  83.6231613   7.9118714  41.1367950  42.7353287
   8.4732847  41.2593002  43.5008621   8.4817562  41.3204842  41.9885216
  52.5886002  43.4185257  32.0573883  53.0262375  43.7337074  31.2665882
  53.0648499  42.6225204  32.2936020  72.0972519  34.8121071  71.0372467
  72.2771683  34.9186668  70.1031647  72.6031036  35.5064964  71.4593353
  49.5907631  47.3238029  57.0185890  49.8365135  46.9432259  56.1753769
  50.3103065  47.9178734  57.2320557  73.4394684  62.0010757  29.0723991
  73.3730240  61.5380287  28.2372913  72.5373001  62.2379951  29.2873363
  27.8073254   5.3834972  14.3917227  27.5340862   4.6876850  13.7938795
  28.0093803   6.1244779  13.8204498  41.5737457  15.5962114  36.7834053
  40.9074669  16.2057629  36.4659882  41.1063805  14.7687111  36.8976173
  22.1615677   1.8807511   5.7494383  21.6901207   1.2029442   5.2651381
  21.6557693   1.9960202   6.5538721  11.5584126  31.0586433  25.5319862
  11.1377401  30.8136406  24.7078266  12.4301872  31.3595905  25.2757206
  61.3876915   5.8383713  13.8116283  61.2787170   5.8965964  12.8624363
  60.5305176   5.5604801  14.1345224   1.9433858  31.3643188  67.8806000
   2.8059552  31.0310669  68.1278763   2.0654497  31.7129612  66.9975433
  64.2808380  16.3587952  18.5492897  63.8744469  15.6590538  19.0606041
  64.5238724  17.0193291  19.1980267   0.6812640  17.3022633  68.4666901
   1.4339443  16.9884071  67.9654922   0.0390826  16.5953693  68.4023743
  48.1077118  27.7424431   5.5688105  48.0609665  27.0009499   6.1723289
  48.0012207  28.5126934   6.1270294   2.8213243  30.4091949   5.5362082
   2.4454837  29.8621807   4.8464613   2.7486351  31.3023930   5.1998353
  50.6738319  20.5870552  10.9977036  51.4337730  20.0226688  11.1398020
  50.0186653  20.0116749  10.6028337  86.5484009  44.9591293  74.3087082
  86.1822510  45.8194580  74.5136337  87.2463303  44.8364067  74.9521866
  29.4062710   6.6972251  54.8322449  29.8704834   5.9335070  54.4895020
  29.6742897   7.4168024  54.2607498  11.5464277  41.9414902  76.5970078
  12.3616123  42.3952713  76.3830185  11.5008850  41.2214432  75.9679718
  68.2527924  37.2601318  69.8540115  68.9674072  37.0053444  69.2703705
  67.8318405  37.9962807  69.4100418  26.5809536  40.4128723  56.8623543
  27.2661152  40.4589310  57.5291824  26.3849392  41.3269653  56.6568108
  23.0324478  59.2751770  68.8601913  22.2684097  58.7926903  68.5444717
  22.6671619  59.9721832  69.4051514  43.0807381  12.2881804  11.4923515
  43.6213074  12.0649443  12.2500982  43.5361977  11.8936281  10.7486343
  57.6277580  48.5953598   3.5028341  58.1097069  48.5942802   4.3298492
  56.8917198  48.0023193   3.6537776  76.5772476   6.0509853   0.4477036
  77.2461472   6.7274861   0.3420728  76.1311417   6.0210361  -0.3986530
  65.2101364  54.3734055  59.0404434  65.8661957  53.9492340  59.5935249
  65.6820984  54.5984383  58.2386703  63.8498001  62.9655151  43.7558403
  63.1677856  63.6124268  43.5752983  63.3886490  62.2446289  44.1846657
  64.4003830  36.7300835  35.8829536  64.1862869  35.7974243  35.9061508
  64.0556488  37.0341492  35.0433502  12.0476513  47.1325569   9.1682796
  12.8425903  47.2834396   8.6568718  11.9412508  46.1812935   9.1705294
  14.5811491  13.0583029  75.6571732  15.4772615  12.7330036  75.5711746
  14.6266232  13.7012653  76.3648224   8.8638849  40.4203339  34.3405800
   9.6906881  40.4205666  34.8228951   8.4253254  39.6158142  34.6174278
  81.2042465  69.6312408  82.1201859  80.6136169  69.7122498  82.8690643
  80.7281494  70.0354919  81.3948288   4.9554706  41.5358887  70.4546814
   4.5987501  42.3623314  70.1291351   4.7597251  40.9021454  69.7645416
  85.5299149  58.3111801  59.0579033  84.9321060  58.5966721  59.7488098
  85.0276794  57.6683426  58.5571518  80.4486008   3.6390221  77.7433624
  80.4696884   3.2169015  76.8845291  81.0659637   3.1347742  78.2733002
  28.3713264  36.2771683  59.4571228  28.3966103  35.9002686  58.5776100
  27.4919376  36.6473198  59.5338898  86.4436188  54.9516869  15.7256126
  86.2352829  54.6856995  16.6211987  87.3494492  55.2576790  15.7712259
  38.0926056  52.2348900  62.3625412  38.6525383  52.9808311  62.5776787
  38.6030731  51.4687691  62.6246719  51.7731514  51.9103432  16.9384861
  51.1845894  52.6064606  17.2304592  52.5116119  51.9504776  17.5461826
  27.0097103  63.3064995  40.0584488  26.4935207  63.5622635  39.2940102
  26.8386765  63.9927597  40.7034492  86.7214203  36.3625908  64.6294022
  86.7152557  37.3190804  64.6658173  86.5617142  36.0875053  65.5322037
   2.4725337  26.2177486  58.7005653   2.0317378  26.2471752  57.8514099
   1.7622956  26.1294842  59.3361778   1.8592110  47.6614265   1.6198748
   1.4786175  48.5272102   1.7675182   2.5798292  47.8174973   1.0094788
  54.0398521  17.0172691  29.8500385  53.3267555  16.3837948  29.9302750
  53.7373581  17.7817783  30.3401947   1.0704556  29.4314384  46.8304405
   0.8109859  29.6846581  47.7163239   0.5990384  30.0385818  46.2600250
  64.7986069  53.6429176  19.9327850  64.6111984  54.5812187  19.9062939
  65.6935806  53.5679893  19.6016617  11.6205006  13.4384804  78.6970825
  11.7067146  12.5526047  78.3449097  11.2404709  13.9455051  77.9796295
   1.4903169  36.0253487   5.5113831   2.3996186  36.2485657   5.7103190
   1.3430483  36.3797073   4.6344719  72.7167282  56.8295403  66.5318604
  71.8544540  57.1364174  66.8121338  72.6128769  56.6428375  65.5988083
  19.9574490  10.7137251  74.1342087  20.6680622  11.3469963  74.0330734
  19.7262955  10.7592497  75.0619659  50.9518814   5.7630911  59.8164825
  50.4452171   5.9606705  59.0287743  50.9049530   4.8105927  59.8987999
   4.8009849  17.4020691  13.9950285   5.7537756  17.4116783  13.9037619
   4.5027118  18.1458092  13.4714699  42.0837402   3.4810836  17.9453392
  41.9533119   3.2023118  18.8517094  41.6917458   2.7826462  17.4211674
  33.7269020  48.8896408  72.3586121  34.6153183  49.2198296  72.2247162
  33.2303886  49.2293396  71.6140976  44.8536949  71.2975082  55.8397331
  45.0821304  70.9188461  56.6886559  44.8071938  70.5470123  55.2474289
  42.7001038  61.3405533  62.5524940  42.7585754  61.5241432  61.6148872
  42.2112503  60.5193176  62.6057205   0.0828962  42.4568520  53.7168846
   0.9623416  42.1030273  53.5841599  -0.0357142  42.4537010  54.6667023
  48.1236916  60.4763069  87.9217834  47.6142426  61.1486626  87.4694214
  48.3073616  59.8213806  87.2483063  64.3995667  49.5079956  51.7788658
  64.4602966  48.9008713  51.0413437  63.5824928  49.9840431  51.6305618
  61.8143349   5.4103975   4.1621776  62.0600700   4.6754813   4.7240906
  62.3185043   6.1500955   4.5011353  11.6974821  54.8399963  63.0071335
  10.8979864  55.3642387  62.9601288  11.7952089  54.4729424  62.1285248
  21.3711720  60.3407898  13.5413237  20.8309212  59.7474060  13.0195417
  21.0648651  60.2161598  14.4395857  66.7783432  38.7545013  88.3369751
  66.1636581  39.3328552  87.8854218  66.2236633  38.0999451  88.7613907
  73.5002899  16.2167091  78.7848358  72.5553207  16.0825977  78.8574600
  73.5940552  17.1412506  78.5553513  11.9970980  25.0254993   3.9729240
  12.0895109  25.9737263   3.8804049  11.1365538  24.9068146   4.3749318
  75.0318985  28.8594532  45.8312569  75.7057495  29.5209408  45.9880791
  75.5174484  28.0866337  45.5427780  22.8140240  38.4037590  78.3441925
  22.3913651  37.8701324  77.6712646  22.3480396  39.2393646  78.3149414
  40.8809624  52.0665283  34.1158638  41.2240868  51.6860428  33.3073311
  40.5684700  52.9339371  33.8586082  63.1827888   4.8611784  15.5750904
  63.7130775   5.6481729  15.7002439  62.5276146   5.1147256  14.9249430
  66.1645813  17.4664230   2.6533380  66.8385696  18.0124645   3.0580752
  66.5467606  17.1929302   1.8194478  81.0430832  51.6348572  83.0666809
  80.3069382  51.0601921  83.2766571  81.1306152  51.5740929  82.1154251
  42.3599930  56.8247147  66.9209824  41.6833229  57.4949074  66.8251114
  43.1184616  57.2974586  67.2637253   8.2087688  57.8601875  35.5045433
   8.4782295  57.0903435  36.0055084   9.0297098  58.2940559  35.2720718
  26.3097420  37.9016228   9.7615404  26.3115826  37.0033569   9.4308720
  26.9043198  37.8820229  10.5114231  30.7053127  11.2209244   8.2290535
  30.5143757  12.1581144   8.2671137  31.0053387  11.0738525   7.3320661
  59.2126846  16.6335621  21.5548992  59.6293221  17.4240227  21.8981438
  59.2099380  16.0243740  22.2932186   8.7130365  63.7899361  40.7777519
   9.5629320  63.5908737  40.3849640   8.6398039  64.7425919  40.7201729
  46.3983307  71.1802673  37.0732307  47.3522491  71.2084045  36.9992447
  46.1270409  70.5288773  36.4264488   0.9700515   0.8087516   2.0859535
   0.8641171   1.6985316   1.7493509   1.6688639   0.4319977   1.5512112
  64.8889694  71.2659302  20.9787731  65.6312408  71.8477020  20.8150730
  64.5169983  71.1025696  20.1120625  64.5369873  45.9851532  87.8043442
  64.1524353  45.4187469  88.4733200  65.4577484  46.0606308  88.0548325
  56.4210091  28.5354481  22.1449280  56.3125191  28.9349728  23.0079708
  55.5308914  28.4649410  21.8000317  52.3857002  68.4800873  34.6105423
  52.7751541  68.9584885  33.8786354  52.9543343  68.6768494  35.3549690
  43.0062599   6.5141792   6.4778123  43.3393135   7.2496080   6.9920602
  43.2972755   5.7370481   6.9548950  78.0653229  22.4358425  13.3768682
  78.0791168  22.0327873  14.2449627  77.9087219  21.7067585  12.7767467
   5.2802882  33.8081894  55.9344254   5.4204307  32.8663712  56.0322762
   5.6545129  34.1898003  56.7285042  79.2478409  67.5945587  39.9718819
  78.6667404  68.3086548  40.2338409  79.9964523  68.0316238  39.5659256
   3.3957448   0.8742476  18.4432602   3.8538330   0.2454696  17.8855629
   3.7863302   1.7196593  18.2220039  63.2534828  29.1964970   1.0848825
  63.0004539  28.4046574   0.6103318  64.0814133  28.9681702   1.5075338
  13.2603331   5.1170492  53.9006233  13.7851744   5.3802366  53.1446419
  13.3719454   5.8299394  54.5295601  25.8796387  62.1576500  62.7604256
  25.0036583  62.3477592  62.4246483  26.4549007  62.2643280  62.0028458
  86.6022949  33.6923599  61.1432457  86.9791794  32.8558197  60.8704987
  85.6563034  33.5611954  61.0789261  50.0988464  49.2940140  80.0550461
  49.2598610  49.7328262  79.9144058  49.8824921  48.5285149  80.5874252
  80.8517075  20.1887398  79.0821152  79.9013977  20.2032566  79.1958694
  80.9846115  19.7735062  78.2299728  78.2452621  45.8055687  81.8697891
  77.6699905  45.7194481  82.6299744  77.7341995  45.4525871  81.1414642
  60.9216080  25.9769859  27.0241394  60.6584282  26.1150913  27.9340267
  60.3164787  26.5165100  26.5152531  45.1511650  35.6249199  63.5632248
  45.6436043  36.4455948  63.5784492  44.2516670  35.8815346  63.7664108
  84.8114929  31.1041431  67.2825928  84.3601761  30.7693176  68.0574646
  84.1784668  31.6936779  66.8727646  15.4122133  60.0312653   5.7264023
  16.0588093  59.3653069   5.4926319  14.5675602  59.6191330   5.5449085
  57.9661560  60.1161842  56.9975128  58.2922859  59.7860603  57.8347054
  57.3957176  60.8474770  57.2342491  68.2440720  21.5366669  22.1399250
  69.0358505  21.3639832  22.6493397  68.4706650  21.2726650  21.2481918
  43.0641594   3.5370677  78.3757629  42.9395790   2.8141832  78.9906998
  44.0141678   3.6211267  78.2942200  43.5000305  41.9312057  13.3340502
  43.8559074  42.1167450  12.4650517  44.2190361  42.1282997  13.9344015
  59.2196388  58.1476822  52.0012398  59.3101845  58.1703644  52.9538765
  59.2674904  57.2180710  51.7781639  75.2313461  31.6698265  53.4678917
  74.6433182  32.4170990  53.3581657  74.7516174  30.9306469  53.0941277
  77.4209976   8.4492159  55.9162903  76.8663483   7.9817352  55.2917404
  76.9551392   8.3791361  56.7495384  83.7049255  11.9642220   7.9698586
  83.7762604  12.6581783   8.6252728  84.1043015  12.3357115   7.1832638
  33.5287743   5.0020566   2.7167606  33.1263390   5.7831511   2.3370621
  34.1645355   4.7170377   2.0604043  64.9573441   7.5540681  51.8712540
  65.1736603   7.5926728  52.8028946  64.6015930   8.4200497  51.6718903
  60.0907249  24.2366238  11.3824129  61.0417786  24.2109928  11.2771912
  59.9165535  25.0901833  11.7790680  11.5505114  23.9689808  26.6349258
  11.4418917  23.0666466  26.3345470  11.1059179  24.4972610  25.9719868
  50.8486481  44.1448441  18.0807590  51.1318130  44.5182266  17.2461128
  50.8170586  44.8915749  18.6787777  75.3107605  54.3266602  59.6862831
  74.6188660  54.1496010  60.3235931  75.4194946  55.2773972  59.7087402
  68.6000443  52.7200661  66.2341614  67.6612778  52.8283272  66.3866043
  68.8429565  51.9614258  66.7649078  86.2740555  13.2218256  35.9516869
  87.1276550  12.9083834  36.2505989  85.7617188  13.3230076  36.7538757
  29.5629444  52.7121201  32.4519081  29.1993790  52.0742645  33.0660744
  29.7430019  52.2060547  31.6596260  26.8732910   6.7752285  44.5359383
  27.6289616   7.2204242  44.1525421  26.3622570   7.4761758  44.9405975
  10.7667274  36.6992607  41.4228134  10.4427195  37.5990143  41.4639664
  10.9490385  36.4684448  42.3337021  74.5339737  27.4136982  17.0182934
  73.7670441  27.4392567  17.5904770  74.2397079  26.9329205  16.2446709
   6.1418343  56.8708725  46.1927147   5.2844038  56.8743057  45.7672348
   5.9713192  57.1931152  47.0777664   4.7078686  64.5616455  63.0141983
   4.4387755  65.2450943  62.4004250   5.2640328  63.9798698  62.4960747
  26.8242073  26.5818310   1.5761137  26.3920479  27.4238968   1.4333009
  27.7250195  26.8106995   1.8049980  70.5140457   9.0605574  21.6700420
  69.9213791   8.7222681  22.3412628  70.4469147   8.4311657  20.9519958
  79.6113739  11.1719561  60.0610962  79.1145859  11.0590334  60.8714523
  78.9515610  11.3963537  59.4049492  26.6063957  55.7458344  20.0187588
  27.3517570  55.5847092  20.5972996  25.8699780  55.8930817  20.6122570
  17.0504913  66.1645126  51.9637337  17.1310272  65.8715897  51.0560226
  16.4972286  66.9441376  51.9156303  82.1753464  58.1075020  75.4329834
  81.4781113  57.5431480  75.7670517  81.9322891  58.9863586  75.7241287
  23.9177456  35.1474113  73.0121841  23.3143311  35.6764908  73.5339050
  23.4007149  34.3872261  72.7456741  30.5100441  33.8205185  64.1147842
  30.6135788  34.1972923  63.2409668  31.0516605  34.3721809  64.6791916
  25.5178127  43.8324432   6.6391287  25.2356071  44.7388954   6.5169072
  24.8526516  43.4495659   7.2111387  39.9660263  11.3261147  37.0198135
  40.6303177  11.5544510  36.3695755  39.1467934  11.6571426  36.6516953
  57.0470543  69.1744919  34.6732712  57.7286568  69.8461838  34.6952896
  56.2343254  69.6524887  34.8382645  25.6074944  46.0513420  64.2439728
  25.0705776  45.8450584  63.4788628  26.0855675  46.8423080  63.9948769
   8.7227859  12.3573475  47.1619606   9.4626026  11.7578058  47.0647354
   9.0572710  13.0626497  47.7159462  22.1484375  49.1738777  88.1851730
  22.2041245  49.7788811  87.4455109  22.4409637  48.3343353  87.8304520
  18.8290539  12.4001007  20.6675510  18.9056530  13.3339920  20.4720745
  18.2182865  12.3587313  21.4034061  19.9563274  14.8990479  88.3421478
  20.4639530  14.7768211  89.1443939  20.4038658  15.6086750  87.8813095
  85.3793869   4.4537086  15.5116711  84.7528839   5.0213242  15.9606009
  85.2137680   4.6032047  14.5808363  54.0212097  42.8354225  29.7397575
  54.3601799  43.6782799  30.0412960  54.6826401  42.1996994  30.0128841
  29.6495819  67.8267899  63.3583412  29.2521782  68.2442627  64.1225510
  28.9135437  67.6487045  62.7728806  56.5541420  58.2829704  35.0620232
  56.9164810  58.4954147  34.2019043  56.7717094  59.0391998  35.6070099
  79.8548126  28.7698936   9.1339636  79.4283371  27.9956417   9.5012264
  80.7547607  28.7233887   9.4567232  52.8540955  53.6088638  14.7377310
  52.0415993  53.8163300  14.2761688  52.5714378  53.1294670  15.5165205
  75.6047363  49.0820770  35.9719429  76.1432190  49.1123047  36.7627411
  76.1770020  48.6992035  35.3069954  41.4910011  64.7447433  42.9763451
  41.6644783  64.0896301  42.3003578  42.1603699  64.5853424  43.6417542
  64.4002075  40.3821678  84.8165436  64.1775360  41.1664047  84.3149261
  65.1350021  39.9944191  84.3411865  69.4773407  44.8639374  36.3190804
  68.5412369  44.7749519  36.1401329  69.5533752  44.7383347  37.2649536
   8.9973564  54.7358208  29.4863338   8.4319849  54.1142654  29.9448700
   8.3929024  55.3698845  29.1005497  60.5015793  29.9520626   4.5153503
  60.1836243  30.8549023   4.5194497  60.2825165  29.6249428   3.6428614
  36.5619202  43.2423668  67.9323730  36.0296478  43.9933777  67.6698685
  35.9399033  42.6376343  68.3368759  69.3363190  56.5106964  58.4504547
  69.6716995  57.1498070  59.0791779  69.4991302  55.6618690  58.8618126
  30.8578739  41.7072563   0.1711786  31.6484509  41.1988907  -0.0098959
  31.1708469  42.4739685   0.6512081  43.8071098  44.6340675  31.1315937
  43.4463348  45.2593994  30.5030746  43.1161346  44.5255966  31.7850609
  59.6421432   3.0552583  56.2923508  59.3092308   3.1192851  55.3971939
  58.8651581   2.8866754  56.8253670   1.1607366  61.1762848  81.1743774
   0.6765917  60.9058571  81.9545746   2.0132046  60.7497787  81.2616882
  18.3675861   2.0802128  19.5240955  18.6138744   3.0047526  19.4958076
  17.4143925   2.0888245  19.6111469  18.2853947  49.0830650  50.1153603
  18.0464420  48.8627586  49.2150269  18.7073574  48.2923698  50.4514847
   5.1837521  11.9796963  85.2041016   5.4939308  12.5410728  85.9146500
   4.5934439  11.3582077  85.6301575  73.0509338  57.8512077  84.8230515
  73.4249802  56.9842453  84.9802017  72.3964691  57.7093124  84.1391144
  36.9798241  13.8158789  62.5876770  36.4096909  13.6615210  61.8344498
  36.7025223  13.1674032  63.2348366  86.3372192  14.7531528  48.9474335
  85.7999496  14.4560261  49.6817932  86.8542862  13.9856138  48.7029877
  56.9215698  57.1559944  47.0486145  56.5637627  57.6586304  47.7804375
  56.2692413  56.4750977  46.8840599  50.0260735  45.1857834   1.8115988
  49.7562370  45.2399597   0.8948188  50.9729691  45.3243523   1.7911578
  67.8486557  42.5031548  22.4581928  67.9097748  43.4379768  22.6546688
  67.6550293  42.4674454  21.5214615  72.5673599   2.8133616  18.6648159
  73.3349152   3.2226372  19.0642948  72.3605423   3.3722258  17.9157314
  31.6492538  50.9001503  44.5755348  32.3378830  51.5136681  44.8316917
  30.8893147  51.1625481  45.0950241  35.3684692   2.7108316   7.7365823
  35.2614670   3.1336699   6.8845315  36.1407433   2.1549084   7.6327858
  60.1186371   7.6783242  87.8775558  60.3052940   8.2368841  87.1229630
  60.7051125   7.9980831  88.5631409  57.1000710  48.1491318  26.2794895
  56.3892937  47.9035721  25.6872616  57.5246925  48.8913040  25.8492508
  54.3852386  63.9124908  10.6965418  54.6083412  64.8378143  10.7977133
  54.7096977  63.6816711   9.8260946  70.4306107  27.9808826  73.5400391
  70.8669434  28.4492683  72.8283768  70.6093750  28.5080376  74.3187408
  38.1806030  49.1054306  55.9825325  37.8445053  48.3803177  56.5093002
  38.6620941  48.6820869  55.2717743  10.3305569   3.4576340  88.8988953
  10.4658127   4.3964729  89.0274200   9.3879480   3.3339751  89.0103760
  77.4129105  65.1880798  88.0620728  77.8443375  65.7192307  87.3927612
  76.6408691  65.6965027  88.3104477   4.9195104  12.2406559  21.6676884
   4.5416942  12.2365408  20.7882175   5.8545609  12.0915775  21.5273743
  29.3069630  44.0234680  62.2447090  30.0724258  43.6634331  62.6926765
  28.6293201  43.3564453  62.3547592  65.0081787  19.4750957   1.2209998
  65.1446381  18.6751785   1.7286847  65.8793716  19.7054424   0.8981945
  69.8701630   3.0153081  45.0573235  69.5465698   2.5562398  45.8324203
  69.0928421   3.4290481  44.6820641  30.4958611  67.8690109  45.9347572
  30.8784657  67.2316284  46.5377426  29.8444881  67.3707199  45.4411430
  43.1983604  57.1748085  29.5267887  43.0797043  56.5523376  28.8093758
  44.0875244  57.5091629  29.4091854   6.9754114  22.7515392  83.3397751
   6.9533911  23.5692234  82.8426437   7.6810541  22.2453804  82.9371490
  73.0879898  15.4455442  35.7817726  73.8139648  15.3097382  36.3906670
  73.4156570  16.0947762  35.1593857  64.0773621  63.7265015  25.8458118
  63.1966858  63.3536377  25.8859634  64.4218292  63.6232834  26.7328949
  80.2053986  57.7383842  49.5260124  80.2909546  57.2136688  48.7300339
  79.5979767  58.4385490  49.2871933  76.7448883  60.2135811  81.7584457
  77.2358856  59.4334831  82.0165100  76.5880737  60.6803169  82.5792923
   3.4099383   5.0745287  30.4522686   4.1664448   5.5680671  30.7690487
   3.5220821   5.0480227  29.5020313  74.6801987  10.4277344  21.2374935
  74.1273193  10.7238817  21.9605770  74.3366470   9.5632906  21.0117931
   6.4962587  31.8754883  82.9509277   5.5673900  32.0829277  82.8489380
   6.5110440  31.1341114  83.5562210  11.1289463  42.2976875   1.6329651
  11.0750408  43.2209206   1.3860531  10.2214460  42.0395241   1.7942935
  66.3388748   6.7052264  36.0664368  66.0182037   6.9265265  35.1921234
  66.8187256   7.4835324  36.3496552  70.7371674  61.0101166  77.9968414
  71.0075531  60.0942650  78.0626984  71.4686279  61.4448662  77.5584564
  52.9486580  41.8727531  51.1029472  52.7636185  40.9343643  51.0652542
  53.4190254  42.0569725  50.2898979  45.8347588  54.3978767   4.3548489
  44.9538002  54.2961845   4.7151227  45.7719994  54.0477448   3.4661982
  82.6677246   6.0565567  81.2055588  82.9586334   5.1775193  80.9628754
  83.0674591   6.2134767  82.0610275  11.7421350  16.6629257  13.6937008
  11.2876425  16.4797821  12.8714314  11.9735384  15.7998304  14.0368490
  68.4071198  66.3139648  38.1116447  67.4620590  66.2594833  38.2535057
  68.7260513  65.4272537  38.2797203  26.1584415  28.3214111  80.0977173
  26.7622700  29.0045681  80.3891296  26.7110920  27.5494843  79.9754944
  49.0477982  32.3219070  36.3853226  48.1962662  32.7286110  36.2249603
  49.4053841  32.8015137  37.1325417  70.3240356  60.0153885  59.5071106
  69.7327423  59.5958633  58.8821297  69.9222717  60.8662186  59.6829185
  22.7153091   4.2484918  65.9528809  22.3597126   5.0464358  66.3441238
  23.0516586   4.5284691  65.1015854  83.8130798  19.0049076  76.7935791
  84.6259384  19.0592747  76.2910538  83.9766769  18.3183155  77.4401550
  44.3381348  66.9956436  24.7334251  44.1312485  67.0841904  25.6637955
  45.0849266  67.5788040  24.5975723  85.8538818  13.6597719  84.8559647
  86.2721329  12.9687529  84.3423615  86.3148880  14.4592943  84.6020508
  46.2138405  68.5630188  48.3390198  45.2980652  68.3351517  48.1788254
  46.1736107  69.3699646  48.8522987  86.1128464  66.5531693  41.3644028
  85.5020065  67.2737198  41.2097664  86.7134247  66.5843124  40.6197090
  52.9610329  67.2906036  17.2780037  53.8603172  67.4903946  17.0179901
  52.9095764  67.5659180  18.1933098  84.4992447  17.0050678  49.5654488
  83.6375656  16.5902119  49.5249939  85.1183319  16.2805862  49.4755249
   1.8384640  45.3946800  64.4265060   1.7637556  45.6655464  65.3415375
   2.6256595  45.8372650  64.1092224  21.9204674  39.2645950  71.1604538
  22.8008728  39.6394424  71.1358414  22.0447979  38.3454437  70.9239502
  46.2206688  56.1510582  62.2735443  46.8192444  55.4182663  62.1287918
  45.3477173  55.7670364  62.1916161  16.1981201  31.3935394  20.1262951
  16.0163364  32.2514992  19.7427711  15.4524689  31.2259655  20.7026234
  15.6222982  41.5348320  35.5650826  16.0342903  42.3980522  35.5284348
  16.3546314  40.9188194  35.5438614   5.6912217   1.8028533   3.0685744
   6.5324340   2.2559066   3.0108087   5.0541844   2.4379177   2.7413001
  84.6013641  37.2217522  60.3940506  84.2539520  36.7908897  59.6130943
  84.6021652  36.5383682  61.0642853   4.6988053  26.5424595  43.0295181
   5.3258152  26.9341946  42.4215431   5.1905556  26.4333801  43.8434715
  67.7249451  44.4749680  59.1397171  66.9254761  44.9487000  58.9102173
  67.6587372  43.6479874  58.6622772  74.9739609  65.6873016  77.7056656
  75.7249603  65.9906998  77.1955795  75.3599472  65.2799988  78.4811401
  69.6904984  11.1081219  64.2059326  69.9137802  11.2783461  65.1210251
  69.9335861  11.9119349  63.7465553   7.4703016  11.2848873  32.5032539
   6.8235617  11.9903545  32.5198288   8.2892733  11.7045145  32.7667503
  79.0340576  43.6564865  42.6932793  78.6026688  42.8356781  42.9307899
  79.4028244  43.9798431  43.5152817  23.2956924  61.1300888  16.4224091
  23.4885807  60.8888702  15.5164070  22.9493713  62.0205688  16.3646355
  38.2623901   9.6380615  86.4212036  38.6572495   9.3770447  87.2531891
  38.2281151   8.8304529  85.9085388  30.1948395  50.7285652  23.3637466
  29.7389240  49.9051590  23.1894646  30.7129498  50.5538292  24.1494045
   0.6540603  52.1429825  26.8601837   0.6856854  52.8711739  26.2397270
   1.5319567  52.1141319  27.2405739  15.7001591  61.6281586  44.4147720
  15.9220982  62.3124237  45.0462418  14.9280291  61.2011185  44.7858276
  24.7159443  56.9510117  33.9260330  23.7966423  56.8306236  34.1639900
  24.9814396  56.1068382  33.5611801  83.9101791  15.5685425  15.4256163
  83.2276688  14.9025335  15.3428898  83.4456024  16.4003315  15.3332996
  54.7071114  42.8441315  72.3966980  55.5902634  43.1417046  72.1782379
  54.6780853  41.9368591  72.0929718  58.8206367  13.2995110  27.3676033
  59.4228935  13.6830082  26.7300701  58.0259590  13.8280592  27.2944393
   9.3555355  42.2357292  70.5950775   8.6466370  41.7278709  70.2003937
   9.4117165  41.9104652  71.4935684  29.1471519  46.7316704  52.4412308
  29.7524071  46.9061584  53.1619606  29.3114662  45.8184280  52.2062416
  25.6778450  34.7243233  14.9743509  25.9827480  35.3606300  15.6211729
  26.0173664  33.8851509  15.2853918  70.8303757  50.3312569  79.6022339
  70.6503296  49.5561447  79.0702438  71.2949905  49.9935646  80.3679504
  25.3361740  63.5271301  44.3225861  24.4775410  63.1616516  44.1095009
  25.6311493  63.0203285  45.0791397  62.2178574  38.7272835  84.4609909
  63.0034103  39.1701965  84.7818756  62.0006104  39.1838264  83.6482162
  82.1765900  10.7395601  82.2608871  82.9576340  10.8280020  81.7146378
  81.7082367   9.9917641  81.8898468  77.8864288  63.5493927  51.4135475
  78.3936386  63.2645721  50.6533852  78.5124512  64.0345993  51.9510460
  17.4034786   4.1679392  77.1895447  18.1989117   3.6444209  77.0923538
  17.6568794   4.8823676  77.7740250   7.9920225  20.4114666  85.1579285
   8.5171680  21.1284847  85.5133667   8.0611172  20.5117645  84.2085114
   8.0323114  23.2258358  66.1888809   7.7832832  22.6445065  66.9074020
   8.0073891  24.1031227  66.5709534  11.1258821  21.3881378  66.9681625
  11.5273886  21.9355927  67.6429367  10.3551064  21.0114136  67.3926773
  85.9127808   5.6792655  80.1801605  85.8584061   6.4046345  80.8023529
  85.0335312   5.3009381  80.1759186   5.2243848  63.9464340  77.3642197
   6.1179996  63.8459892  77.6922302   5.3148279  63.9226112  76.4115982
  35.0526772  52.4069176  58.8211403  34.5635948  51.9392586  59.4981384
  35.9357719  52.0405235  58.8673706  50.2735214  25.5275822  78.7155304
  51.1827278  25.3694839  78.9696503  50.2504311  25.3374443  77.7776871
   4.5113301  19.1499920  28.3016109   4.3659916  19.9753990  28.7640095
   4.1539941  18.4817238  28.8863831  68.3567276  41.2498055  45.0210381
  68.2148056  40.3427315  44.7502861  68.6508408  41.6939240  44.2257462
  51.6576614  31.2631378  11.5186872  51.1467400  31.9042530  11.0245562
  52.1774368  31.7885742  12.1269503   2.4757073  12.9786301  73.4369812
   1.9461377  13.2393723  72.6834564   2.2123315  13.5792866  74.1341782
  55.5551376   2.3781803  81.7651978  55.9179611   1.9135165  81.0110855
  54.6176796   2.1869841  81.7359848  51.3314857  61.8282280  58.4806099
  51.3394966  61.6185074  59.4145203  52.2446098  62.0249214  58.2714615
  41.8323441  59.5584602  27.8270226  42.6698074  59.4649506  27.3729897
  42.0637321  59.5732269  28.7557182  43.4436111  45.4333649  58.6271057
  42.7124443  44.9478264  59.0090446  43.0876274  45.8077354  57.8212814
  60.9021378  20.6012840  74.7206802  61.0547066  20.0324745  73.9660873
  60.3817711  21.3256721  74.3732529  34.4800148  27.0841103  72.3847580
  34.4521790  26.2363720  71.9411469  34.9676323  26.9165230  73.1912155
  31.9937992  46.5391884   8.2620134  31.8829918  45.7390671   7.7484417
  32.9315186  46.7256317   8.2156305  46.9267387  48.3484650  77.8961487
  47.5830727  47.6588097  77.9953232  47.1782799  48.8048134  77.0932083
  59.3243141  52.6788177  44.4909058  59.4243469  51.8782654  45.0060158
  58.6086235  52.4860458  43.8852196  80.8685455  59.4648323  89.2919998
  80.5126801  60.0446587  88.6186523  81.7306824  59.2136536  88.9605484
   7.8850641  42.4674454  16.9037533   7.2451401  41.7610550  16.8157692
   8.6699972  42.0384789  17.2444916  54.6672554  30.0306625  80.9906311
  53.9074898  30.5583363  81.2366943  54.5566902  29.8743343  80.0527725
  59.4321136  58.8272858   5.3190255  60.3211784  58.5850410   5.5780916
  58.9113846  58.0418053   5.4866300  14.8001575  23.9216156  62.9799347
  15.3477964  24.6218452  63.3348999  14.6742105  23.3205204  63.7141380
  26.3807983  68.6707230   0.5116979  26.6695156  67.8055573   0.2212311
  25.8078213  68.4940033   1.2578206  45.9726562  -0.1865092  48.3821754
  46.4335327   0.4533781  48.9247322  46.0996323   0.1239082  47.4856529
  75.5777588  16.2660351  68.9855042  75.7601929  16.2368011  68.0463028
  76.0159683  17.0606976  69.2899933   7.5775042   0.1091998  38.5781479
   7.1050177   0.8782542  38.2594872   7.0770001  -0.1803241  39.3409729
  61.9531937  13.6438417  84.0547485  61.5408363  14.0034389  83.2693329
  62.4971275  14.3575745  84.3878479  65.8851929  54.9070702  27.6681366
  66.6053619  54.3227730  27.9051819  66.2689209  55.7835541  27.6956367
  80.2487411  34.1043015  54.4764977  80.7334061  33.2922058  54.3287392
  80.2951508  34.5665779  53.6396103  50.2916908  11.3575840   6.2745233
  49.6794052  10.6260738   6.3534689  50.8243980  11.3107862   7.0684166
  73.3162994  18.6879177  36.5107040  73.6149750  18.3649044  35.6605949
  74.0727386  18.5798836  37.0872040  64.7376709  22.5880699  33.4565086
  64.8828278  21.6562271  33.2927132  63.7904587  22.7005711  33.3767281
  20.2129173  30.5652428  12.4311256  20.9112701  30.5376511  13.0851698
  20.6058407  31.0094795  11.6797962  28.8782444  67.5446930  31.0618343
  28.8373451  68.4892197  30.9120998  28.7658005  67.4469910  32.0073738
  53.7215195  25.8473606  50.6192398  54.3482285  26.0636120  51.3096733
  53.5830650  26.6725769  50.1543922  77.4392548  53.5964127  25.3455200
  76.7108688  54.1795921  25.1320038  77.9700470  53.5747261  24.5492687
  -0.1825069  62.5065193  36.2751083   0.5377300  63.1265411  36.3893890
   0.2465857  61.6567497  36.1750679  57.8775711  65.7680893  46.8032875
  57.1069794  66.2689590  46.5357971  58.2622070  66.2815247  47.5136909
  46.8561058  47.0750008  22.5580482  47.2475967  47.4399948  21.7644825
  46.0246048  47.5400467  22.6506329  75.0373001   9.9031954  42.6282005
  74.4301071   9.9172907  41.8883705  74.6484528   9.2834520  43.2454109
  14.7919130  66.5428085  15.1537552  15.6035881  66.9309082  15.4805489
  14.8054333  66.7163544  14.2125177  57.9405289  14.2279510  70.6092834
  58.7414932  14.7276659  70.4512634  57.8171310  13.7145004  69.8109283
  62.9648933  54.1108475  43.5444069  62.2352486  54.2622261  44.1451836
  63.1442604  54.9706955  43.1639862  24.0747528  14.2990599  16.4491444
  23.5636482  14.0589533  15.6762571  24.9759579  14.3570061  16.1318111
  72.3404160  66.2623825  62.0165825  73.1466522  66.1015320  62.5068245
  71.7640457  65.5376358  62.2590141  11.0956392  33.0345383   0.5051705
  11.2304068  33.0851440   1.4514835  10.7025261  33.8760834   0.2738823
  12.6747589  64.6868134   8.8866529  11.7658300  64.7943039   9.1668777
  12.6825409  64.9881668   7.9781628  21.6919060  62.6147728  22.3841381
  22.1026211  62.3754349  21.5533180  22.3692284  62.4542236  23.0411682
  42.8670120   4.4575834   2.2193375  42.9980583   3.6731341   1.6867051
  42.4749947   5.0918746   1.6191462  53.5926476  58.4364967  81.4300308
  53.4939499  57.6500778  81.9667206  52.7556725  58.8926544  81.5173492
  70.6270065  21.5628052  23.5642872  70.7072983  22.0453930  24.3870239
  71.5296021  21.4360657  23.2718849  31.2154408  60.1087532  35.7502136
  30.5149632  59.8803864  35.1391373  31.2650394  59.3623810  36.3474579
  48.8073692  64.5619888  28.4533119  49.5069885  63.9301376  28.2874165
  49.2574234  65.3317795  28.8013287  37.0121689  16.3836384  75.2212448
  37.9038048  16.0396099  75.2747192  36.8482895  16.7597313  76.0860748
  27.6195984  68.8747940  18.2560940  27.5090580  68.1416473  17.6507015
  27.0925694  68.6370468  19.0189495  23.4537430  45.5935631  12.6674643
  23.9912262  45.9749298  11.9732723  22.5728207  45.5558243  12.2949247
   9.1420050  14.5089912  24.4135094   9.9081993  14.9608841  24.7670231
   8.4011183  15.0594387  24.6671333  27.9146881   8.3667336  35.2913475
  27.7225685   9.1322346  35.8329468  28.3991146   7.7787843  35.8708992
  65.6743240  59.5602417  42.5502357  64.8877563  59.8027763  42.0616417
  65.3459778  59.2506905  43.3943901  24.7235298  69.6178360  45.3206825
  25.6365356  69.4577332  45.5594749  24.2966995  69.8470306  46.1462250
   7.8632264  70.0560608  53.0289383   8.6167583  70.1138840  53.6163750
   7.9773445  69.2214127  52.5744362   5.2970905  52.9692993  26.7351875
   4.6557670  52.6711960  26.0901527   6.0497937  52.3915367  26.6092548
  59.2951889  47.1027069  75.4787827  59.6205368  47.9831543  75.2911758
  58.6926842  47.2214127  76.2130356  25.6890564  63.8731346  27.5534744
  25.9595776  64.3928452  28.3104115  26.5044613  63.6835289  27.0893631
  10.3071823  25.1005630  52.9756584  11.1230822  24.6335564  53.1557808
  10.5021009  25.6351376  52.2059364  36.2890396  23.2698135   4.6207271
  36.9233856  23.9127712   4.3038058  35.9703484  23.6346054   5.4463153
  80.9317245  35.0084343  51.7663651  81.2753525  34.3433533  51.1698647
  81.3206406  35.8280067  51.4609566  19.3437119  61.9695320  54.3320427
  19.7557392  62.3693848  55.0979271  18.9763947  62.7072639  53.8451538
  19.3805885  22.4815483  79.0836563  19.4342003  21.6073532  79.4698410
  18.8217716  22.3697853  78.3145905  76.6942520  54.8127365  41.2461205
  77.1614227  54.4521065  40.4925079  75.8544846  55.1035957  40.8905716
  50.2343979  58.9735527  86.0610352  51.1851158  58.8776436  86.1173782
  50.1037979  59.7475395  85.5132065  46.4377022   4.9181790  67.7598343
  46.3796120   5.7809300  67.3493271  46.2507019   5.0798559  68.6845627
  75.8778915  47.7544594  22.6980896  76.2905426  48.1346016  23.4736195
  76.4152985  46.9898109  22.4913368  25.0140228  64.9303741  12.1075172
  25.1140099  64.5787201  12.9921474  24.9671726  64.1565628  11.5460463
   4.3288298  70.1281738  29.9344769   4.3903823  70.5078812  30.8109856
   3.6799705  70.6689835  29.4842052  78.4664688  50.7303123  83.2099991
  78.2081757  50.5576248  82.3046341  77.6415100  50.8921471  83.6677017
   6.1375389  45.0096245  45.5634460   5.7132020  44.6229477  46.3293800
   7.0716772  44.8545914  45.7033844  83.8203888  38.5127525  29.4203568
  84.0887604  37.8068886  30.0085430  84.0348358  38.1897964  28.5451717
  45.8241043  41.0398560   8.4120750  46.4679527  40.3798294   8.6690931
  45.2118034  40.5695763   7.8462481  65.0873337  67.0557251   4.4951606
  65.3365402  66.7063828   5.3507848  65.9186249  67.1907349   4.0402255
  41.0406990  41.8115540  66.3960190  41.5466690  41.0318108  66.6245499
  41.5821152  42.5435104  66.6915436  50.5934868  37.3640442  65.3697128
  51.2488785  36.6694336  65.3048553  49.7586861  36.9003143  65.4352417
   3.6406453  27.7829819  60.9767265   3.3944933  27.1929836  60.2643051
   4.5441618  27.5443611  61.1839676  84.1350861  33.7176132  42.5030251
  84.7119370  33.3663445  41.8247299  83.4180679  34.1273460  42.0190468
   9.7467613  21.1406956  28.9629669   9.0147247  20.6507759  29.3375740
   9.5560150  22.0547390  29.1736202  41.1251678  10.6196461   2.7417367
  40.6553116   9.7921877   2.8455546  40.8444633  10.9489832   1.8879377
   2.8153152  60.1427498  73.8407974   2.9705842  59.2011223  73.9147110
   2.1797543  60.3355293  74.5300903  79.0096970  51.2497673  54.0203018
  78.6326523  51.6430016  53.2332573  78.7930603  50.3199959  53.9508324
   2.2594287  26.8072872  46.2919693   2.0922558  26.1569347  46.9741173
   1.7173392  27.5569324  46.5377388   4.7922010  66.1695251  47.3303452
   4.7006164  65.3060532  47.7331543   5.7373881  66.3139572  47.2857018
  37.6900558  16.5870304  61.9075775  37.2348976  16.4744835  61.0730705
  37.0957489  16.2113571  62.5571175  73.9537659  58.1213684   8.7857571
  74.3861923  58.5099487   8.0253363  73.5284653  57.3350639   8.4435863
  34.9114189   9.2339106  30.0178986  34.0548439   8.8126936  29.9466076
  34.8860817   9.6870842  30.8606472  35.6403656   5.6813092  15.9415607
  35.0300636   5.0581570  15.5472908  36.0754204   5.1846495  16.6345863
  33.2380066  24.6927719  77.3000336  33.9869118  25.2727261  77.4379654
  33.1658897  24.6168804  76.3485794  72.2908936   2.0763512  44.4107666
  72.6306534   2.1767020  43.5215416  71.4153214   2.4617093  44.3775291
  35.9715691  58.4921875  75.1944580  36.4745941  58.0067673  74.5405731
  36.0808754  59.4104843  74.9474487  38.3764839   2.2084494  85.2574463
  37.6685143   1.6320268  85.5451050  39.0899010   2.0366757  85.8720627
  25.5500183  48.3014603  78.4034119  25.5242901  47.3472748  78.3320084
  25.1885605  48.4866104  79.2701874   0.1288413   3.0095656   5.9569845
   0.3364772   3.1859372   6.8745966   0.5937302   2.1968045   5.7581639
  53.8121147   8.3271894  45.6725464  52.9458084   7.9384565  45.7935104
  53.7758141   8.7275372  44.8038483  79.0571899  68.1619797   5.8802299
  79.2657013  69.0275421   6.2317357  78.4101257  67.8057480   6.4890323
  33.0207787  61.7768250  80.9807053  33.0994072  60.8228645  80.9839630
  33.7961731  62.0826683  81.4512939  38.6698189   5.6945190   9.3236170
  38.6453362   6.5320048   9.7864885  39.2863274   5.1613874   9.8255339
   2.8573380  48.6187820  30.1333790   1.9986138  48.5352478  29.7188358
   2.6759894  48.5697556  31.0719643  10.3664055  48.1440659  44.2095222
   9.8535175  47.9585991  43.4228973   9.7135315  48.2527657  44.9010239
  14.5148697  51.1666069  17.2746449  13.8854446  51.4268303  17.9472084
  14.5838242  51.9309387  16.7025700  83.3855515  31.3152676  16.1801395
  84.0853043  31.9375839  16.3783817  83.8234558  30.6028252  15.7144222
  67.9913788  21.5229397  15.1847553  68.8290329  21.0597649  15.1793280
  68.1841278  22.3616009  15.6039495  62.0163193  36.6173210  38.3807487
  61.2927208  37.2062912  38.5946465  61.6726303  35.7416153  38.5575218
   9.9671755  69.1691055  19.0304203  10.7585258  68.6479721  19.1661243
   9.3426514  68.5586472  18.6385765  70.1727982  29.5212841  32.4291077
  70.8915024  29.3624897  33.0410538  69.4483109  28.9961529  32.7690811
  17.8436317  45.8033791  47.6538925  17.6341000  45.4479408  48.5176010
  18.1198025  45.0428429  47.1424751  37.2016144  39.1046181  62.4812851
  36.3102417  38.7950706  62.3204689  37.7606468  38.4635620  62.0422363
  82.5338974  28.7441559   2.4496729  82.8760757  27.8552361   2.5443735
  81.8638840  28.6717358   1.7699224  63.1845627  12.5688505  77.8741608
  63.5897408  12.5660706  77.0069504  63.0855827  13.4962912  78.0893097
  81.4146729  32.8247795   6.2852993  81.7791214  32.9060745   7.1666622
  81.9851532  33.3658485   5.7393761  47.4347687  67.1898880  60.9745598
  46.5049057  67.3568726  61.1285324  47.7243118  67.9261246  60.4357224
  39.7288017  57.6922264  27.3689651  38.8726196  57.7999954  27.7831745
  40.2674065  58.3867836  27.7480812  59.2203903  24.7169571  46.0345306
  58.8163490  24.2318554  46.7540131  60.1367950  24.4406605  46.0442200
  73.4615784  60.9482269  76.3057632  73.3376160  60.0701981  76.6662216
  74.0349045  61.3865395  76.9345779  33.1888428   0.3258661  15.3471231
  33.9763947  -0.1583526  15.0990829  32.6909180   0.4062231  14.5335827
   1.7181678  53.5195999  -0.0447795   0.9418039  53.2280273  -0.5227715
   1.3712246  53.9381523   0.7430496  32.6697273  69.4165268  41.5249290
  32.2110748  70.0563889  40.9804611  31.9878845  69.0467453  42.0858078
  64.8748398   5.5373125  39.1254387  64.0214157   5.7373228  39.5100136
  65.1728439   6.3693705  38.7578735   0.9375637   5.6426930  70.0992813
   1.3082677   6.1073542  70.8495483   0.9779359   6.2752423  69.3820038
   6.8575020  70.9434433  85.8307495   6.0290437  70.4924622  85.6679306
   7.4320965  70.6518097  85.1229172  77.1037979  16.1603851  50.0145378
  76.3836060  15.8679018  49.4559631  77.8943024  15.8911877  49.5467072
  23.0978775   9.0187883  13.9123602  23.2542572   8.0853567  14.0554790
  23.8841705   9.3270550  13.4618635   9.9927750  42.1943169  32.6762352
  10.5796528  41.7099342  32.0955620   9.5119896  41.5161896  33.1508102
  75.6714401  57.6459312   1.4348638  75.9157333  57.3224678   0.5677273
  76.4975662  57.9301453   1.8259737  22.2493324   8.2074480  74.7452927
  22.5697212   8.8973188  74.1642075  22.6306286   8.4163380  75.5980606
  33.3519554  45.1889992  62.2256203  32.4789886  45.5152893  62.0072250
  33.8667526  45.3321037  61.4314308  44.8679962  32.6828537   9.9421082
  44.8827095  31.9672375  10.5776472  44.3837433  33.3825569  10.3804493
  74.3892975  62.0447159   6.3428640  73.9160614  62.6985931   5.8283553
  74.5131302  61.3104553   5.7414021  30.2364407   3.8016603  16.9585609
  30.8561039   3.6507421  17.6723328  30.1806297   2.9591508  16.5076790
  69.4580307  69.4920578  26.5755272  69.2906952  69.9938202  27.3733158
  69.9305954  68.7156143  26.8756123  37.4207497  53.8441238  68.7961273
  38.1161995  54.0955353  69.4038925  37.8461647  53.8279457  67.9388046
  21.3493309  26.5386372  64.3161469  21.4012604  27.1322746  63.5670624
  22.1776180  26.6642551  64.7791748   7.6463704  40.3643074  69.6294022
   6.9731669  40.4915314  68.9609375   8.1531668  39.6138840  69.3191528
  80.1258774  63.7649841  49.6541405  79.8097610  64.6152878  49.9595604
  80.1167755  63.8348579  48.6995392  45.1616249  11.6577711  58.3477058
  45.4668770  11.0340385  57.6889076  44.2599182  11.8532257  58.0928459
  39.2602386  60.8850746  33.2331200  38.4781914  61.0150223  33.7695389
  39.2758904  59.9444580  33.0564156   9.5525599  62.4777565  43.4751740
   9.0196533  61.6841011  43.5236778   9.4054174  62.9166298  44.3130112
  41.6687775  58.4746246  80.5837402  42.5846596  58.4231415  80.8571320
  41.2063522  57.8899727  81.1842194  13.4892073  40.6652870  33.9983139
  14.3597441  40.7943993  34.3747787  12.8974571  40.6865845  34.7503815
  31.3649216  63.3769951  45.7218590  31.5792065  62.7632866  46.4244766
  32.1434593  63.3849144  45.1650391  57.5429230  47.1550751  80.7057495
  58.1275520  47.9113846  80.7551422  57.2400665  47.0273476  81.6047440
   5.6361775  56.8906670  34.5788116   5.3249273  56.9326630  33.6746063
   6.5020299  57.2979469  34.5532303  21.8435898  27.5075684  61.8514442
  22.4838543  27.9392891  61.2858391  21.0306816  27.5202045  61.3462181
  16.3198967  40.6035957  22.0471020  15.3951015  40.4425240  22.2342930
  16.7466698  40.5716705  22.9033012  21.9615269  16.8124809  87.1710205
  22.0317650  17.7065830  87.5055084  22.1238823  16.8948689  86.2312927
  71.9389114  51.9812469  76.4859161  71.9324646  52.8290100  76.0415192
  71.2659149  51.4700928  76.0364380  69.4204712  42.0507050  64.5529556
  69.7443542  41.6741829  65.3712234  69.8150558  41.5107460  63.8681297
  46.7227287  43.6006241  30.9385891  45.8371162  43.7860413  31.2509117
  46.9348488  44.3390427  30.3676472  13.1991682  36.7318344  14.6975527
  13.5189819  36.8146706  15.5959349  12.7680292  37.5675354  14.5187864
  44.0559006  22.5861855  77.3686523  44.2482986  21.7656364  77.8224258
  44.7233887  23.1959686  77.6830597  12.2094011  14.1342449  61.2511139
  12.9529028  14.0693607  61.8504677  11.4453859  14.2022533  61.8237267
  12.4125824  14.8605433  25.7899532  13.2138224  14.9268837  25.2704868
  12.3937607  15.6669846  26.3052502  50.4407272  60.0063095  65.5272217
  50.0715675  60.7821121  65.1052246  50.1722412  60.0811501  66.4429474
  47.2259979  59.7237206  48.8223343  47.3293839  60.4130974  48.1663589
  46.9105759  60.1804886  49.6021461  51.4255791   2.6899445  13.7943010
  52.2378273   2.3943093  13.3830976  50.7345619   2.2305110  13.3171806
  78.3814316   7.4345622  62.5291748  78.6748428   7.5094538  61.6211395
  77.6830826   6.7804956  62.5020523  31.1460953  49.2851486  47.6269188
  30.4400349  48.9316635  48.1679878  30.8081036  50.1224136  47.3091354
  39.9377251  69.5368195  71.8467484  39.1575470  68.9829636  71.8750839
  40.6601181  68.9437332  72.0532150  62.9647369  34.6297913  67.2627182
  62.1674576  34.7183151  66.7404709  63.5570679  34.1190681  66.7108688
  13.6316490  66.1036758  35.5016823  14.0334845  66.9379044  35.2591629
  13.9376669  65.9408340  36.3939095   8.4387760   5.1683455  65.0969849
   8.8305769   5.8778510  65.6062241   7.5876036   5.5109601  64.8243103
  79.6701508   8.9461069  11.8945808  80.2078934   9.2050180  12.6429338
  79.8925171   8.0269537  11.7464466  41.6043282  58.0169373  31.5782833
  42.1348495  58.4728775  32.2316551  42.2263908  57.7719269  30.8932743
  58.9755287   2.4731381  10.5805931  59.5223274   2.6188467  11.3526125
  59.5759468   2.5657389   9.8408947  82.8181000  69.7889023  50.6627235
  82.1161804  69.1381912  50.6517029  83.4656677  69.4323959  51.2708168
  22.6650982  59.6933670  73.6982498  21.8382187  59.2705765  73.9300995
  22.4633884  60.6290703  73.6963425   1.3568014   4.0015430  80.3473892
   0.7333013   4.7163920  80.2190475   1.2608285   3.4568641  79.5661392
  33.6952324  40.6873474   3.7457328  33.3972321  41.3944321   3.1734915
  32.8981514  40.2050819   3.9655495  32.7467384  55.8291359  62.4090500
  32.3513794  56.6996384  62.4553757  32.0693474  55.2404022  62.7418709
  86.2181778  24.8668022  15.3860235  87.1572876  24.7148781  15.4920034
  85.8962555  24.0795574  14.9468842  85.8523636  64.7518463  20.7588177
  86.3010483  64.9958878  21.5683575  85.1916122  65.4334946  20.6363564
  24.3302212   2.6452584  70.1940536  24.6807899   3.2298279  69.5220337
  24.7863998   1.8158762  70.0517273  71.0246811  50.5974464  61.5753403
  70.8315353  51.1655235  62.3211403  70.8382339  49.7138443  61.8926964
  73.6706161   5.1804295  77.5749588  73.5276871   5.6964078  76.7815018
  72.8347015   4.7399178  77.7280121  22.0258236  54.2281342  55.6923141
  21.9632931  54.7333069  54.8816833  21.3718014  54.6209679  56.2703857
  64.3900452  66.7104950  68.8622437  64.0663834  67.5762405  68.6133270
  64.6597900  66.8090668  69.7753448  31.9055367  19.1684017  77.1810074
  32.1336594  18.2492733  77.3202667  32.6952820  19.6508808  77.4254532
  25.7450180   4.0782151   9.8530216  25.4772396   3.3404267  10.4009218
  26.0711193   3.6736271   9.0491571  68.6433334  42.1109924  14.1409149
  67.7518845  42.3471985  13.8844814  69.2035599  42.6034203  13.5410051
  48.8811111  51.9027176  30.3100948  48.9245567  51.5265121  31.1891918
  48.0244255  52.3281555  30.2737083  38.3103600  51.5033188  32.7008400
  38.0762215  52.3310471  33.1206932  38.8096199  51.7607079  31.9257793
  47.1630173  48.5679970  38.7172203  48.0780296  48.7172127  38.4790573
  47.1962013  47.8668976  39.3680611  55.9576836   0.6497384  33.0112648
  56.6790199   1.2629995  33.1520348  55.6240654   0.4666998  33.8895721
  15.1379576   7.5761013  82.2540512  15.1492186   8.5269699  82.3633881
  15.3876095   7.2333646  83.1122131  79.1114883  31.1218719   6.6308551
  78.7226334  30.8817501   5.7898054  79.8646545  31.6656151   6.3999772
  55.1378937  32.0009727  49.5428391  54.3975296  31.5369282  49.9336815
  55.1640358  32.8402863  50.0022926  50.1935196  28.2390022  13.9863939
  50.0660057  29.1756916  13.8361034  50.3657875  27.8781586  13.1167126
   5.5770941  37.0208855  71.2614594   6.0551467  36.4796715  70.6331406
   5.0673380  37.6232338  70.7196503  71.4466400  62.8527222  24.8498764
  71.9942169  63.5086060  24.4183578  72.0665359  62.2944145  25.3191910
  82.0947647  37.7024040  16.6928768  81.8595123  36.8722229  17.1072292
  83.0478363  37.7468491  16.7697468  33.1247444  66.8022003  10.8899717
  32.7156296  67.4575806  10.3248806  32.7391167  66.9554062  11.7525549
  75.5705032  20.4371681  67.5335007  75.9543686  21.2391529  67.1789551
  76.1941528  20.1470947  68.1991959  57.4001007  39.5447731   7.0219679
  57.3568153  40.4673233   7.2734904  57.7685547  39.5544014   6.1385756
  48.0103912  22.5641651   8.8870363  48.8351326  23.0318985   8.7556763
  47.5860100  23.0254784   9.6104498  66.8784180   1.3190708  14.4662075
  66.9093170   1.7985455  15.2940845  66.0737152   0.8033148  14.5180187
  32.4499702  61.2850342   8.8729181  32.1176605  61.8600883   8.1836309
  33.4020081  61.3311729   8.7850323   4.2815447  37.3915253  53.5322304
   4.7030435  38.1186295  53.0740929   4.1235924  37.7244263  54.4156685
  64.6633072  61.9695930  80.2089233  64.5894928  62.5582542  79.4577484
  65.1910095  61.2379189  79.8888931  41.4984703  65.5296326   7.7849164
  42.4192162  65.7766571   7.6986523  41.5182610  64.5886612   7.9593096
  50.6280861  46.7413940  45.1413269  50.0325966  46.0241623  45.3585930
  51.4261436  46.5473671  45.6329460  31.4901428   9.0793257  63.6913490
  31.9005470   9.8141537  64.1472321  32.2060852   8.6677532  63.2073364
  65.6890335  18.0856380  31.4392014  65.2234421  17.4262848  31.9536972
  65.2989273  18.0282269  30.5669918  85.8194046  41.3134384   4.7846007
  84.8929443  41.1547127   4.9654655  85.8210831  42.0460014   4.1685014
  23.4449043  66.1772842  27.7694950  22.8898392  66.1237411  26.9915047
  23.8769093  67.0284042  27.6973820  48.5233421  54.2871361  78.7893906
  47.9108124  54.9632034  79.0791702  48.0651627  53.4627914  78.9529800
  49.1462250  16.7105713  25.6792660  48.7994766  17.5351410  25.3385563
  48.3905449  16.1234303  25.7002678  69.3799820  14.4818974  75.1004944
  69.6677399  13.9221687  75.8216934  69.9754257  15.2309055  75.1263351
  53.1849251  51.1658516  34.0020103  53.3463936  50.8983002  33.0972557
  54.0577888  51.2958641  34.3727341  13.5803432  21.9650555   0.2792870
  14.1568136  21.4306030  -0.2668576  13.8810234  21.8043461   1.1737119
  83.3923721  70.7735062  15.7979460  83.9401627  70.9800110  16.5552502
  83.5145111  71.5147324  15.2047396  30.2203560  57.1688194  63.6737747
  30.6402054  57.6953735  62.9935570  29.6983089  56.5272827  63.1919823
  11.4321527  58.6840668  71.3536911  11.0571480  59.5637131  71.3964005
  12.3213120  58.8184242  71.0257034  35.8724213   8.4703312  24.1097908
  34.9193268   8.4558630  24.1971474  36.1849403   8.8047838  24.9504471
  84.1389084  64.9911499  42.8151779  84.3430252  65.4551392  43.6271400
  84.6635742  65.4337158  42.1480293  38.3714600  26.6452427  63.8851280
  39.2844772  26.6693687  63.5986938  38.2541161  25.7629013  64.2371750
  69.3013763  44.9085274   6.6947751  69.9149094  44.1912270   6.5357709
  68.4370804  44.5005264   6.6422167  69.5426941  60.6530724  54.9300919
  69.8634491  60.3582764  54.0777740  70.2653503  61.1643829  55.2941818
  83.0968399  25.7386589   2.3629827  83.6964569  25.7989750   3.1066585
  82.2353363  25.9297562   2.7338238   3.4962962   6.9002323  45.9447556
   4.2785711   6.3566489  45.8509750   3.2986381   7.1911273  45.0545044
   2.0332720  47.3062897  46.9561539   2.9817822  47.2324371  46.8507690
   1.7238505  47.6388931  46.1136208  72.6023865  36.0554581  11.5826149
  71.7248611  35.8071518  11.2918997  72.5497284  36.0459442  12.5383177
  61.3762550   3.3193378  30.7782154  60.6526184   3.3146448  31.4047661
  61.7545776   2.4424427  30.8426857  15.3362503  58.4713821  21.5827770
  14.9016438  58.2123947  20.7702045  16.0539036  59.0383530  21.3003731
   4.0638342  26.5625095  16.7219582   4.6074376  25.8106880  16.9575291
   4.4404163  26.8829288  15.9023542  11.1645584  12.3669271  56.8891106
  11.5487108  13.0857658  57.3910370  10.6326456  11.8883152  57.5249023
   2.0729454  56.8174973  36.0451736   1.6394856  57.6441116  36.2574234
   1.9986726  56.7455482  35.0935745  15.3472157  49.8928337  12.6601934
  15.8654184  50.6785393  12.8344584  14.7693262  49.8138504  13.4191637
  58.0241737  37.8465195  68.9729462  58.1651993  38.3839188  68.1934967
  58.8576164  37.8820305  69.4423523  83.0481186  61.1340599  23.2241344
  83.1167450  60.5528717  22.4666767  83.7940063  61.7278633  23.1387634
  67.4649429  69.1566925  42.5777817  66.6461334  69.3547516  43.0322609
  67.6158905  68.2273407  42.7502861  58.9614639  15.5149860  16.0095539
  58.5603561  15.1426449  16.7948608  59.3240738  16.3519897  16.2996788
  71.5301208  34.7924614  37.4328651  71.1398697  33.9779129  37.7498016
  70.7918472  35.3964081  37.3526382  78.5440521   6.6128592  75.1808395
  79.2783508   6.0121799  75.3082275  78.4707413   6.7034268  74.2307587
  82.7171326  17.8644791  40.2098198  82.1727905  17.2621288  39.7027779
  83.3646927  17.3021164  40.6348495  64.0368423  33.7744637  17.1303387
  64.2502670  32.8876419  17.4205723  64.7981796  34.2980194  17.3803158
  36.8046150  51.2715492  56.4088135  37.2689743  50.4345779  56.3996048
  37.4985619  51.9301376  56.4392815  76.3810196  45.7678757  74.9875107
  77.0940933  45.1298523  74.9614410  76.1274185  45.8060837  75.9097137
  54.6340790  18.1899261  51.6353760  54.4823265  17.8904247  50.7389946
  54.0774384  17.6270256  52.1734505  58.8194275  28.3000755  28.1787148
  58.7960510  27.7882462  28.9872417  59.6235657  28.8151226  28.2444572
   8.6524973  58.5584908  16.0999470   8.5368366  59.2307167  15.4284058
   8.8238249  57.7554626  15.6079855  25.7821617  59.3766594  59.6571770
  26.5049801  59.2235222  60.2657089  25.0988922  59.7790909  60.1932945
  42.6629791  23.9134769   2.7683818  42.2031937  24.7064972   2.4927986
  43.2198563  24.1989536   3.4926920  42.3717422  43.1840897  68.4449539
  42.9997559  43.7577782  68.8839417  41.6711197  43.0612984  69.0854874
  58.6332283  35.0977249  17.3955078  58.9019547  35.7523613  16.7509403
  59.3887863  34.5154190  17.4747829  67.7516174  53.3044930  83.1404877
  68.3343506  52.5929451  82.8752365  67.2035904  52.9223557  83.8259583
  10.0790768   7.1517015  12.0565310   9.1763926   6.9452081  11.8141375
  10.1042557   7.0367908  13.0064745  11.7514000  35.1381111  84.3714905
  11.3176346  34.2894554  84.4601364  12.4577856  34.9817467  83.7447510
  80.6196213  55.4621010  38.6173897  80.8624420  55.7240944  39.5054398
  81.3413315  55.7722244  38.0704002   9.1293736  56.5744629  45.8242569
   9.4005146  55.8517494  46.3902931   8.2867823  56.8551941  46.1812820
  48.9503212  10.9514589  62.1239777  48.4317780  10.6841202  62.8828430
  48.3179970  11.0004110  61.4070396  48.5277176  52.5949516   8.5556240
  48.4795723  52.0922241   7.7424932  49.2238350  52.1716347   9.0580740
  57.6068039  28.6752605  74.5603867  58.1956558  29.0428123  75.2194748
  56.7994652  28.4869175  75.0388870  27.3151302  45.5744781  78.2366714
  26.9624138  45.2524948  79.0662231  26.5782318  45.5249710  77.6277695
  50.9712639  49.8101997  34.7878113  51.7391434  50.3227768  34.5350990
  51.3260155  49.0851021  35.3022194  17.7999706  65.8262634  29.8004074
  16.9597683  65.4889221  29.4897709  17.5865211  66.2940598  30.6077728
  72.0370941  70.3664474  75.9570618  71.3341904  70.9883804  76.1451035
  72.1725159  69.9012756  76.7826004  63.9689827  54.8555679  33.3100853
  64.4235840  54.6442261  32.4946709  64.6643066  55.1309814  33.9075089
  78.7598572  15.3613739  48.0030594  78.8916473  16.2079105  47.5761642
  79.0393753  14.7184029  47.3513794  79.6746292  36.3275185  86.8570633
  79.7788162  36.2030334  85.9137344  80.2497940  35.6711464  87.2502441
  60.3786316  58.0550385  25.0470161  60.5367126  58.6450195  25.7840118
  60.7058411  57.2063446  25.3451519  46.2233620  50.9466858  23.3818665
  45.8097610  50.1680107  23.0092602  45.9450989  51.6623726  22.8103828
  31.6844940  53.7511139  85.7154694  31.1667137  54.4627075  85.3389435
  31.2139645  52.9553108  85.4674149  38.7747879  45.4595222  82.4413147
  38.9784203  45.1859703  83.3357086  37.8376617  45.2892570  82.3462677
  27.5112648  16.3754826  17.5162354  26.8651390  16.5245152  16.8259144
  26.9954338  16.0851765  18.2684784  73.5109558   3.3969970  32.8242188
  73.4277344   3.7635319  33.7045364  74.2103119   2.7478721  32.9001770
  17.3702412  47.0777969  28.0794277  16.4502621  46.9010506  27.8828850
  17.7616329  46.2116547  28.1927567  40.3097534  27.3881474  82.3654785
  39.7978821  26.7480335  82.8599243  40.2285080  28.1990623  82.8675232
  84.9897537  13.3662176  45.6822853  85.6522751  12.8419018  46.1321716
  84.2100601  12.8110247  45.6738472  28.1721306  41.7705536  83.3128204
  27.8899364  42.6175652  83.6580276  28.0470638  41.8438301  82.3666611
  52.8642998   9.6916761  78.3136520  51.9216614   9.8288918  78.4076767
  53.1154366  10.2502155  77.5779953  52.0623474  61.9604378  61.1537819
  51.3132935  62.0407791  61.7442856  52.3141975  62.8638000  60.9621048
  12.8676071  14.2554522  14.3811512  13.2661800  14.0665083  15.2306643
  13.4230871  13.7990961  13.7491598   5.6422062  53.4375572  52.2290573
   5.6622028  52.6282349  52.7397652   4.7109051  53.6351891  52.1298027
  74.4997711  45.1881638  37.3114319  74.8723450  45.3583069  38.1765747
  74.1366653  46.0302925  37.0371895  68.7992325   0.5514792  56.6214600
  68.2470245  -0.1247153  57.0139618  69.6931305   0.2321875  56.7449036
  22.5998402  51.5041008  37.2522430  22.1955700  50.8961678  37.8712883
  22.0831509  51.4099312  36.4519958  22.1633167   3.4720407  49.5055351
  21.8982048   4.2642593  49.9728012  22.7868137   3.7794175  48.8475075
  79.3112488  27.1996326  36.6216164  79.5264130  26.5570335  37.2976341
  78.6597977  27.7690163  37.0310593  37.1556320  39.8448792  72.4707870
  37.0447388  40.2444649  73.3334961  37.1480522  38.9028549  72.6403885
  79.5771790  56.9549294  74.7428589  79.5373840  57.1012383  75.6879730
  79.8238754  56.0344238  74.6531677  69.7332382  28.4203796   7.7712455
  69.0472717  28.8260155   8.3014736  70.2661285  29.1547852   7.4664412
  34.3317528  70.7757492  56.6082115  34.2287941  71.5388260  56.0395737
  34.4126015  71.1423569  57.4887161  66.9055557  14.5551100  76.0763016
  67.6503296  14.1148968  75.6667175  66.9356995  15.4475937  75.7316284
   1.9275126  60.7844505  36.6524315   2.6816092  60.8902206  37.2324181
   2.3016958  60.4774437  35.8266220  45.6095123   8.7443562  75.7464523
  45.1094170   8.2109728  76.3642197  44.9912567   8.9376440  75.0417328
  80.0127411  47.4560585  73.5297165  80.7693558  47.6483612  72.9758377
  79.3350296  47.1684227  72.9179993   9.7161674  37.9542122  71.4841843
   9.2392683  38.1762466  70.6844940   9.0371218  37.6748695  72.0982666
  79.0080643  61.4573517   4.2301173  79.6522751  61.9772606   4.7106600
  79.4894867  61.1167259   3.4761696  70.7939758  45.2171135  30.4941406
  71.1076889  45.1569138  29.5918140  71.4044571  44.6774712  30.9964676
  53.2798347  27.2829437  78.6726913  53.9156380  26.6477680  78.3432388
  53.5867081  28.1251812  78.3369904  81.1337280  61.4479179  39.3358078
  81.8299103  61.1052017  38.7753448  80.5514450  60.7016106  39.4779358
  12.0598755  49.0846977  70.6804123  11.9072247  49.4337006  71.5585480
  12.9347925  48.6989670  70.7247314  75.4412613  64.8286667  51.3012543
  74.9813309  64.2940140  51.9484367  76.3074646  64.4274063  51.2311096
  61.2089119  34.2428169  88.3765717  61.2548599  33.3647346  87.9982986
  61.0293884  34.0945473  89.3050232  31.4498482   6.8257570  31.5762920
  32.2602501   6.9952950  32.0566444  31.3241158   7.6057253  31.0358543
  64.0158234  15.8081293   8.5546675  63.6515579  16.5568218   8.0824347
  63.3026695  15.5115852   9.1200962  27.1548691  35.8619308  62.7864914
  27.1702671  35.5778770  63.7004433  26.2507210  36.1381950  62.6367416
  12.2373495   5.3725939   9.9081392  11.2875042   5.4331656  10.0099087
  12.4789791   4.5777817  10.3836603  25.1821098   2.2979102  19.1482887
  25.4647179   1.4579983  18.7864685  25.6189041   2.9525566  18.6034203
  73.1498489  22.8636723  14.4941521  73.7668533  22.7283611  15.2133369
  73.3152771  23.7600975  14.2021093  80.9458847  26.2405739  73.6428452
  80.3314972  26.2696438  74.3762741  80.9177017  25.3321018  73.3426590
   2.8912756  53.9549026  57.8953133   3.7660208  53.8594666  57.5185585
   2.7336090  53.1262016  58.3476753  24.5406590   7.4658837  67.3949585
  24.6889229   8.4088831  67.3242264  25.1080303   7.0833578  66.7256317
  71.3989105  49.3186073  36.8736458  70.7510834  48.9131927  36.2972832
  72.0257416  49.7291946  36.2780533  80.0263977  65.4617767  84.0600586
  80.1207352  64.5521393  84.3427048  80.5567169  65.5219116  83.2654648
  11.1960726  24.0955448  82.4473953  10.5616074  24.6230297  81.9621735
  12.0362568  24.2890015  82.0315857  44.7341995  24.0165348  63.4717712
  44.2565269  24.2139740  62.6661186  45.3917427  23.3726063  63.2086716
  60.8790970  62.0581779  48.8472977  60.6421623  61.5621033  49.6308861
  60.1118774  62.6012611  48.6665535  85.0739822   1.5183610  65.9521027
  85.0852051   2.2678621  65.3568268  85.3191299   0.7731795  65.4036179
  33.3373604  59.7364578  53.0627441  33.0016060  60.5908356  53.3339310
  32.5537262  59.2192497  52.8766098  49.4699287  36.6277046  28.7312450
  49.8457336  37.2561722  29.3477116  48.5348778  36.6213226  28.9358692
   9.6842308  24.0845356  19.0044918   9.2061310  23.9029198  19.8136082
  10.5475922  24.3766842  19.2968750  17.5184650  45.5861778  40.7446899
  17.9719582  45.1604424  41.4722366  18.2171669  45.8346291  40.1394501
  84.0644455  14.1734829  64.1286850  83.1403809  14.4077110  64.2150726
  84.4115448  14.7987118  63.4924126  47.3773384  57.5107346  72.5172272
  46.6214676  57.0366783  72.8638687  47.7523918  57.9531403  73.2787018
  82.0964432  27.8156796  70.7975616  82.5914459  27.5029583  71.5547943
  81.3226013  27.2530518  70.7683029   0.4892085   1.9834416  10.7539663
   1.2563579   1.7738163  11.2866678  -0.2436796   1.5825183  11.2212648
  86.2127533  18.6002655  72.4594955  85.8014832  19.4247017  72.1998901
  87.0631561  18.6080780  72.0202026  45.7254944  66.9612503  74.0870590
  45.4676361  66.3514252  73.3957901  46.6697540  66.8339844  74.1787643
  28.8348064   9.6769123  64.5850525  29.6539345   9.4550009  64.1423111
  28.9389896  10.5948677  64.8355255  74.6262817  46.1705208  70.0825195
  74.8069534  46.8030586  69.3871918  74.8174591  46.6436768  70.8923416
  35.8639565  59.3118172  50.1823311  35.6510239  60.1719513  49.8203049
  35.3282967  59.2453880  50.9728317   2.1328022   5.4355807  34.1355743
   2.9640048   5.9087629  34.1734314   1.7046913   5.7662821  33.3458977
  60.3181496  60.7475586  89.1751404  60.1172028  61.6492767  89.4256439
  59.7237816  60.5628815  88.4479141  36.1451111  66.5506287  27.1289883
  36.1014099  66.0728760  27.9572830  36.3790359  67.4442291  27.3799648
  23.9431629  59.7592888  46.8952217  24.1230354  58.8888283  46.5400085
  24.0312843  59.6542931  47.8425560  39.2242241  69.9209595  51.4083290
  38.9048462  69.0237656  51.5046234  39.5595055  69.9610138  50.5126648
  77.9092178  35.6997910  10.3507891  78.3476410  35.1246033   9.7237501
  77.7566452  36.5107994   9.8657942  39.6603546  18.8201847  75.2377701
  39.6399803  19.5570850  74.6271973  40.5685883  18.7826633  75.5376587
  25.7086220  62.3965645  65.6976852  25.5159187  62.1908188  64.7829361
  25.5500431  61.5769882  66.1660614  74.2619324  70.5068130   8.7703772
  75.2161560  70.5729370   8.7341042  74.0412750  69.8575439   8.1025467
  16.1365929  49.3469696  85.4924088  15.5939932  49.6740570  84.7748871
  16.7227821  50.0745583  85.7003174  33.6249123   3.8874948  71.1434021
  34.3655586   3.7641554  70.5497208  32.9867020   4.3832140  70.6303940
  59.5301857  56.6960258  28.0840015  59.8962479  57.5544395  27.8710289
  59.7615776  56.1448059  27.3364410  75.7300034  47.7641182  17.3000221
  76.3697281  47.4441490  17.9361076  74.9708023  48.0118217  17.8277435
  54.4788475  51.7627869  18.6488628  54.9434395  52.2392616  19.3368721
  54.2045746  50.9462509  19.0663300  53.7820053  56.5602150  61.2671013
  54.6700363  56.2452965  61.4358025  53.2247124  56.0133018  61.8207664
  19.8603859  54.0336571  21.8114738  20.5144081  53.8654099  21.1331062
  20.3688774  54.3312416  22.5658684  39.3250427  54.1496735  66.8266754
  40.2503319  53.9376488  66.9496307  39.2823372  54.5377846  65.9527283
  61.3432312  21.1571274  54.4546165  60.4974365  20.7529144  54.6481972
  61.1969337  22.0937843  54.5869179  74.6690979  51.7722092  79.2783127
  73.7383728  51.5495834  79.2575989  74.9715729  51.6207657  78.3828735
  25.6203804  50.5902405  16.8172531  25.7791004  51.5146484  17.0083313
  24.6699886  50.5246811  16.7240391  30.1195068  60.9203720  13.8969536
  30.3728104  60.5163879  14.7269316  30.7734966  60.6106453  13.2703781
  50.7384987   4.1388664  30.8944855  50.7097626   3.4022176  30.2839489
  51.5827293   4.0505128  31.3368626  39.4763603  59.9534035  68.4294968
  38.8367195  59.3418312  68.7942886  39.1636963  60.1254959  67.5413208
  57.5977058  56.5910759  41.3503799  57.7687531  56.0648689  42.1314545
  57.1289902  55.9999237  40.7612457  81.7276840  70.7269974  46.9432106
  81.8840866  71.4063644  47.5991364  80.7972336  70.8066254  46.7330704
  71.0943680  64.5086365  58.0339661  70.5892487  65.1833801  57.5803070
  70.8195114  63.6880646  57.6248894  35.6995659  62.2844124  33.1916847
  35.8591461  61.6863060  33.9217758  36.3248978  62.9968185  33.3246040
  75.5799637  29.9296227  41.9188843  76.1580353  30.4555149  41.3661652
  76.1479416  29.6025276  42.6164818  48.4094086  28.0404873  18.1204243
  48.6652451  27.1198750  18.0633812  48.3188744  28.2062130  19.0588112
  32.8974113  16.2498283  77.5515976  32.1339302  15.9673967  77.0480499
  33.5110321  16.5762272  76.8934402  60.4650536  57.3065033  66.5526047
  60.1466331  57.9647026  67.1703568  61.0860291  56.7831039  67.0592346
  51.6074791  64.9315262  17.5438385  52.0644684  65.7298355  17.2790737
  50.7253990  65.2249603  17.7720108  14.9160156   7.0170674  88.8597183
  15.3769426   6.9038048  88.0284882  14.1377468   6.4656782  88.7790985
  66.3274307  56.9436226  31.5456829  67.0652695  57.3658714  31.9856071
  65.7469254  57.6656799  31.3051147  56.0184898  67.4336014   2.2945876
  55.9465714  68.3416824   2.5886128  55.1160393  67.1149292   2.2783253
  76.4241638  28.5579338  61.2071495  75.5472183  28.4187794  60.8496246
  77.0147629  28.2515297  60.5190048  75.5885086  48.9521065   2.9467695
  75.7025986  48.4134026   3.7297225  75.9774857  49.7956734   3.1776848
  36.0275650   7.3385863   6.4732513  35.2971916   6.9465036   5.9946547
  35.6257744   7.7174015   7.2551045  15.2596874  53.0006180  53.7514153
  15.3049393  53.7784309  54.3074684  14.9462357  52.3081741  54.3332214
  20.4918041  61.0307961   9.5548429  19.7565441  60.7954979   8.9889288
  21.2516823  60.6182137   9.1442385  55.8025970  10.8986511  32.8671646
  55.9745674  10.8511496  31.9267387  55.5772591  11.8157320  33.0234184
  74.4243088  41.9728432  58.5195160  73.7700195  41.7001801  59.1627808
  73.9556580  42.5751381  57.9417267  53.0636406  70.1586761  17.7986698
  52.2674026  70.6546097  17.9891624  52.9894485  69.9334869  16.8712978
  33.1176949  65.5220642  60.5634003  32.9967880  64.5922623  60.3708344
  34.0260544  65.5895844  60.8576012  52.2355995  33.4730110  28.0965919
  51.8805046  34.2477951  27.6608791  51.6632500  33.3396912  28.8521519
   2.4495065  28.7631741   9.2638302   1.5368441  28.5614777   9.0574379
   2.7587507  28.0004387   9.7525387  38.6649933  14.7739773  37.4760399
  37.8918800  15.3135891  37.3106689  38.5448799  14.0058870  36.9176102
  83.7036209   1.8941189  38.8278694  83.6535492   2.3224845  39.6824036
  84.5551147   1.4568700  38.8286552  45.8726616   5.6755509  71.0976562
  45.6092720   6.5830612  71.2502441  45.0772095   5.1660614  71.2522812
  36.8042107  53.6411781  36.5224152  36.2463570  53.5154419  37.2900200
  37.5974197  53.1425896  36.7185364   7.0476503   6.5996971  79.7765198
   6.7112222   7.4625793  80.0183487   7.8294463   6.4872746  80.3172455
  22.7973595  51.0778503  67.7951813  22.9298992  51.5334854  68.6264877
  23.2809467  51.6007538  67.1556931  59.2866554   0.9451461  26.4950790
  59.5681534   1.6335597  25.8925209  58.3308449   0.9596033  26.4455471
   3.1812789  19.8040390  56.1868935   3.3980391  19.1540890  55.5184555
   3.3982635  19.3768940  57.0155640  50.8723640  27.9652061   1.6010329
  51.0542793  28.4611988   2.3992357  50.2002258  27.3343906   1.8589782
  18.9990005  58.6894035  79.8363495  19.3633499  57.8308792  79.6209106
  19.5777187  59.0309944  80.5179901  14.8899050  -0.1529018   6.4407806
  13.9663773  -0.3493465   6.2834978  14.9808712   0.7715185   6.2096872
  24.1808968  42.6319389  53.5489616  23.2756615  42.4653282  53.8116837
  24.1535892  43.4905586  53.1267509  50.3372726  10.6325264  77.8084412
  49.5180054  10.8355904  77.3569946  50.9147148  11.3665018  77.5985031
  55.2158127  22.3464470   4.1290021  55.6132927  21.9722729   3.3427217
  54.7849007  21.6056194   4.5552874  35.5713921  59.5500908  64.8179092
  35.0696678  59.0485344  65.4605179  35.0222092  60.3101082  64.6255493
  22.1455765  63.2078514  73.2530518  22.7797909  63.9161530  73.1420822
  21.8164539  63.3186150  74.1450348   3.9200284  14.5233965  18.5005722
   3.4626024  15.2601500  18.0953732   4.7127328  14.9093504  18.8732529
   9.6912947  17.6566200  25.9063778   9.0417356  18.3499298  25.7896500
   9.2070646  16.9418697  26.3197613  43.8818817  58.1026115  13.6399460
  43.0438881  58.4785347  13.3703489  44.5039062  58.8263969  13.5661259
  62.1129532  45.2946739   9.0126677  61.8637047  44.9834099   9.8828516
  61.3883514  45.0287933   8.4465494   6.2909627  60.8826408  42.7237892
   7.1877513  60.8811264  42.3891258   6.3877168  60.7638054  43.6686440
  60.3162842  14.4200830   0.4947869  60.4951019  13.5745230   0.9062275
  61.1511383  14.8867035   0.5336877  75.1692581  15.2903757  47.7344170
  74.6641769  16.0561924  47.4612007  75.7346649  15.0971260  46.9866180
   9.6389675  63.8244553  80.9637680   9.6786070  64.2548523  81.8178329
   9.3345652  64.5068893  80.3655548  12.1430836  43.1945267  83.9424286
  12.1215630  42.2956963  84.2708664  12.1877584  43.7363853  84.7302322
  30.7568207  69.9144974  48.0295219  30.8841343  69.9356613  47.0810623
  30.1856117  69.1608505  48.1777534  55.1312103  46.7996330  70.6455307
  55.1188812  46.6446533  71.5900192  54.5158119  47.5207291  70.5130920
  14.7899199  10.2799511  29.3239098  14.3221893  11.1142540  29.2865067
  14.3593655   9.7953520  30.0281944  53.8788757  32.5584602  21.6171112
  53.1825180  31.9619808  21.3422928  54.6877213  32.1209297  21.3514595
  59.6866264  35.5580788  30.6552391  59.6144562  36.1115341  31.4328728
  58.8400612  35.6482086  30.2177067  53.6033173  19.0161419  83.8438873
  54.1707344  18.2947216  84.1155853  53.3804970  19.4656849  84.6590500
   1.1428199   6.8233414  27.5660992   0.2930341   6.8096862  27.1257477
   1.4800667   5.9334130  27.4635124  46.8199425  11.7729855  13.1373262
  46.0619583  11.4500132  13.6245451  46.5866699  12.6700945  12.8985529
  21.8842754  19.8594456  59.4705315  21.1087971  20.3615456  59.2200089
  22.4194794  20.4776993  59.9680786  69.0741959  68.5829239  45.4153862
  69.3235168  68.4302597  44.5039253  68.2498398  68.1080399  45.5209656
  56.2480240  59.0240822  44.3150711  57.0074615  58.4706459  44.4972687
  55.6003914  58.7655029  44.9707680  39.0554276  46.0098839  12.1869621
  39.4500351  45.9846649  13.0586729  39.5692139  45.3866234  11.6733475
  27.7467861  17.8060608  73.0055008  27.5095329  16.8798199  72.9605637
  28.1059933  17.9188747  73.8855438  40.2681122  61.5638809  26.2679577
  40.7898254  60.7816772  26.4474201  40.4986191  61.8048706  25.3707294
  54.9987755  18.7337017  27.9926319  54.7275505  18.6115570  27.0828247
  54.5195770  18.0618839  28.4776688  19.3709126  43.5849686  63.5428734
  19.4675865  42.6847420  63.2322617  19.9633636  44.0941238  62.9897041
  44.0742416  56.8207588  69.7258530  43.1657867  56.7073631  70.0052872
  44.5407715  57.0705185  70.5234756  13.5509930  18.2663784  19.1942120
  13.7832460  18.6261711  20.0502720  13.8530073  18.9242725  18.5679588
  66.2237701  34.9750481  12.1448402  66.8273849  35.4960709  11.6152973
  66.5864334  35.0143089  13.0298061  61.6210022  10.7639875  45.5111313
  62.2665482  10.1566353  45.1497116  61.8387756  11.6081343  45.1158829
   7.4852762  41.0687752  52.3829041   7.3396811  40.5423317  53.1689606
   8.0864496  41.7583809  52.6644440   2.9001191  44.4504852  11.9970531
   3.4344738  44.1056824  12.7124615   2.1662922  43.8395309  11.9302444
  67.2086029  49.3688431  10.5387907  66.9043808  50.1783752  10.1285009
  66.4731522  49.0842285  11.0813217  41.3897400  34.7065430  10.2457371
  40.9397125  33.8649979  10.3199892  42.1437569  34.6273041  10.8300447
  62.7309990  39.4836922  68.9869843  63.4380379  39.9616661  69.4204254
  63.1260376  38.6494331  68.7336349  13.8592329  16.1116657  74.5580673
  14.5451555  16.4119091  75.1543884  13.0498238  16.1964512  75.0619507
   8.0741129  45.7970924  81.8976974   8.9713421  45.5755920  82.1469955
   7.8362870  46.5209198  82.4771271  80.9911728  71.1681824  55.8519516
  80.2704086  71.5166321  56.3766556  80.9068069  70.2179184  55.9301872
  36.8960304  64.8057709  22.5368404  36.4378281  63.9664040  22.5786304
  36.3936882  65.3818207  23.1130791  41.0561523  30.3265152  72.8167038
  40.9755287  30.6921272  71.9357605  40.2542419  29.8184872  72.9394989
  59.6132965  41.5481873   0.9283972  60.4534760  41.7316856   0.5080928
  59.5520096  40.5929680   0.9343219  57.2613945  28.1082973  51.9185257
  57.8444595  28.1178532  51.1594658  56.7460289  28.9105549  51.8347816
  38.4775467  39.2338104  55.0080910  39.2172737  39.7077484  55.3881111
  37.7545357  39.8606987  55.0303650  75.1768875  22.9259129   2.4839060
  75.0282059  22.6089058   1.5930451  74.4004364  22.6478977   2.9697692
  72.2282257  10.5325470   5.9688625  71.3075256  10.7213745   5.7875075
  72.5286407  10.0459843   5.2012453   8.1294947  53.2459984   8.1618805
   8.0321379  53.5330009   7.2539253   8.7123594  53.8944511   8.5568590
  68.8525085  19.0153522  65.8991318  69.2521362  18.8649197  65.0424576
  68.2444839  19.7405987  65.7557602  64.3671722   0.7919005  55.0795326
  64.8216095   0.5233786  54.2810249  64.2055817  -0.0260397  55.5497398
  43.9385986  25.8165989  76.4283981  44.1501007  26.1521225  77.2995605
  44.7027702  26.0358067  75.8952789  64.4525452   1.6891230  42.9842911
  63.7592087   1.8900539  42.3556862  64.1800385   0.8640633  43.3858452
  50.5007477  57.1612244  69.2938766  50.8242226  57.8898468  68.7640610
  49.5508881  57.1837997  69.1777039  18.1284580  26.7529278   2.7331297
  18.2260590  27.2773266   3.5279331  18.1563740  27.3910618   2.0202219
  62.2559242  50.5149689  64.3278198  62.5349731  51.1700058  63.6880646
  62.0115852  51.0239716  65.1007614  14.6172276  47.9866028  87.2933807
  15.3206606  48.2552643  86.7024155  14.1878786  48.8050766  87.5423584
  20.0028553  14.4186602  10.9882660  19.1119499  14.6390982  10.7163744
  20.1604652  13.5524244  10.6127300  84.5035400   5.4913950  28.8584251
  85.1051407   5.7151780  29.5685177  83.8453064   4.9312544  29.2697582
   9.4232531  50.9399185  30.0585938   8.6884375  51.5285873  30.2310715
   9.0376282  50.0640030  30.0759773  61.5581169  24.9704781  64.6906509
  62.3353500  25.4889660  64.8987732  61.0923233  25.4896774  64.0351334
  51.5169449  12.3458138   9.5889282  50.6983337  11.8562384   9.5088072
  52.0903854  11.7720900  10.0971012  82.5238266  69.9975357  86.3823624
  82.1651382  69.2493515  85.9050827  83.4280930  70.0658875  86.0759735
  79.8225479  34.8802567   8.1881943  80.0879440  34.1299286   7.6564050
  80.6241837  35.3917542   8.2976761  39.1768303  42.4053879  68.8184662
  38.3460732  42.4892159  68.3504486  39.7189522  41.8601189  68.2483673
  67.1223907  31.6855335  22.7308750  67.7335510  32.3018227  23.1344910
  67.5608902  31.4046917  21.9277058  60.8298416  64.1376190  86.1723404
  60.9714737  63.2762222  86.5649872  61.6734047  64.3639297  85.7806549
  62.5994339   4.1574411   6.3639293  62.3535652   4.9386935   6.8593321
  63.4826050   3.9488404   6.6684384   0.8094303  37.9135551  37.6403198
   0.0508949  38.1785927  38.1605263   1.5639668  38.1448593  38.1819878
  50.0017700  34.1800499  14.7751303  50.8961906  34.0342674  15.0833302
  49.5834427  34.6751595  15.4794741  30.6698570  34.8717346  60.6681213
  30.5411606  34.0477562  60.1983032  29.8131771  35.2980080  60.6431618
  61.5387840  39.0282021  76.4703293  61.6859055  39.9188576  76.1520157
  60.9248123  39.1320267  77.1973038  22.2815437  55.5406837  60.2723503
  23.2218723  55.6939392  60.3646774  21.9930401  55.2867699  61.1490059
  50.8642807  35.4662437  26.7963390  50.2682724  35.5502396  26.0520611
  50.4177666  35.9173393  27.5128384  53.0184631  60.9795532  56.3036079
  52.7508163  60.1559715  56.7114220  52.8124886  60.8654480  55.3758240
  67.7282639  28.1518154  72.9540634  67.7236252  28.9114132  73.5364914
  68.6326675  27.8390369  72.9755630   2.3780618  48.0967331  20.9279518
   1.9260851  47.2537231  20.9637871   3.3046703  47.8758888  21.0220623
  63.7654228  58.5901642  65.3850708  64.2068329  57.8704910  65.8361282
  64.1504135  58.5956078  64.5087204  74.5789566  59.2504272  20.4232578
  73.8395615  59.2450943  19.8153896  75.0378876  60.0690689  20.2350025
   6.6488252  46.6911964  68.7908859   7.1239095  46.1727982  69.4403381
   7.1650491  46.6027794  67.9896774   6.9749837  25.6641788   6.2924376
   6.2268887  25.2754879   5.8391104   7.7077422  25.0837040   6.0866537
  18.9708271  28.2724781  75.5925903  19.7750759  27.7574177  75.5283127
  19.1052628  29.0028725  74.9887009  30.9586449  70.3745575  78.9069519
  30.2974472  69.8087006  78.5083923  30.4701195  71.1433487  79.2011337
  11.8160868  22.0286980  74.4540176  12.4297047  22.2897987  75.1406937
  10.9994583  22.4736252  74.6807098  11.5727224  23.0822124  87.9480820
  12.3160067  22.5874119  88.2929459  11.3956108  23.7448502  88.6157455
  39.9516525  20.6419125  68.4208603  40.2353287  21.3623886  67.8581238
  39.4602776  20.0624256  67.8386383   0.6597300  54.2399368  55.8577232
   1.3266155  54.1979218  56.5430908   0.7052795  55.1395988  55.5340462
  38.1893997  51.0567284   5.2153907  37.8902664  51.8856201   5.5891452
  38.7446213  51.3126183   4.4788589  57.4078979  43.1953659  71.6485748
  57.9728317  42.8637161  72.3464966  57.9939194  43.7023888  71.0866623
  19.9953823  70.3006973   9.7924137  20.7196484  70.6265793   9.2581177
  19.3326988  70.9896698   9.7434244  19.1498604  11.2991714  77.5504913
  18.4212284  11.8280525  77.8754654  19.6811638  11.9108524  77.0407867
  53.1639023  30.8490620  50.9399261  53.2360077  30.6004219  51.8614540
  52.3780823  31.3941326  50.8996964  79.8018188  51.3643951  34.1065216
  79.9696426  51.4758568  35.0422783  80.6702652  51.3774567  33.7042122
  64.6652832  49.6905937  23.3489132  64.5967560  49.1696053  22.5488472
  64.4205322  50.5760002  23.0798683   2.1535094  47.7024155  73.3202133
   1.2718772  47.7495651  73.6899948   2.7276287  47.6112366  74.0806808
  47.3279114  67.8687897  84.3068771  47.4241638  66.9301224  84.4677200
  47.6531181  67.9936066  83.4153061  43.9160347  44.1263351  73.2590866
  44.6021118  43.4728813  73.3952179  43.7996101  44.5337448  74.1173935
  57.1886559   0.5673205  11.2014427  57.0803986   0.4313997  12.1427383
  57.7052155   1.3702818  11.1332397  57.5582085   1.5043132  57.6768532
  57.0605927   2.3174262  57.5904961  57.4383698   1.2460787  58.5907402
  53.0663757  37.0651627   3.4459596  53.1683426  37.9836082   3.1963818
  53.9373741  36.6864777   3.3268425  77.0614548  33.5588455  35.3754234
  76.9566116  32.8740196  34.7149277  77.6658020  33.1834641  36.0158043
  68.9084854  32.3871231  47.5644226  69.8344116  32.4347572  47.8023834
  68.5207520  31.8127308  48.2246971  64.3808670   3.8181100  58.5355186
  63.9947243   4.6549215  58.7941208  63.6941948   3.3836262  58.0296135
  47.3508568  58.9954834  13.6410761  47.3911591  59.0784035  12.6883268
  47.1653290  59.8819122  13.9510050  71.6080551  36.2373810  62.0771866
  71.3856659  36.2333450  61.1461906  71.7063217  37.1640511  62.2959518
  15.6528435  43.5092773  66.5790405  15.3069420  43.0737000  67.3580475
  15.6833248  44.4360619  66.8164749  72.9826279  61.8337555  58.5882454
  73.3631363  62.7076759  58.6760139  72.6250687  61.6400719  59.4547729
  15.9687881  17.3201008  23.4479427  15.8011837  17.9878082  24.1130028
  16.9107304  17.3740082  23.2864819  79.7482605  15.0450974  66.7284775
  79.7043381  14.1818447  67.1396942  80.2679214  15.5730085  67.3346863
  78.1593170   7.9304471  23.7677479  78.2192230   8.8623180  23.9781265
  77.3105850   7.8366361  23.3352127  19.2143021  63.0446701   6.2092438
  18.5633030  62.3703957   6.0148563  19.9197159  62.8843269   5.5824165
   3.3744662  24.4144173  78.5222168   3.6581802  24.0458069  79.3587952
   3.6555860  23.7726307  77.8700562  24.3025074  69.5705109   2.3800383
  23.8064423  69.7866440   3.1696177  24.6113071  70.4152374   2.0524545
  16.3474636  60.4153023  38.5652237  15.8066530  60.0139008  37.8850517
  16.4055042  61.3366814  38.3123856  71.4532089   0.7759840   5.5487642
  70.9260635   0.1755766   6.0758848  71.4813309   1.5835756   6.0618300
  40.6709900  35.4113083   7.5657449  41.1598740  35.0722122   8.3155708
  39.7727966  35.1141205   7.7112122  67.0080261  43.7413559  32.2204895
  66.4094543  43.9969826  31.5186348  66.7557220  44.2909241  32.9624786
  35.9019203  64.6536102  73.0637970  35.1045113  64.1780090  72.8310547
  35.8464165  64.7642212  74.0129623  58.6152000  52.4094200  37.4369621
  59.5101204  52.7471390  37.4728966  58.3928146  52.4189110  36.5060043
  30.1592140  39.0095825  77.8701019  29.7042809  38.3421516  77.3564911
  30.8226204  39.3588448  77.2750092  52.7611504  53.3487015  81.7653885
  52.2960472  52.7375031  82.3366547  53.5079155  53.6429749  82.2869034
  20.9089565  45.1219521  11.7953043  20.7087116  44.8375931  10.9035244
  20.0778313  45.0443726  12.2637510  51.8718376  48.4062462  83.0949402
  52.5215073  48.8145218  82.5226822  51.3870850  47.8124886  82.5216141
  35.0861931  61.9647446   8.1616325  35.9420929  61.6740990   8.4765854
  35.1261826  62.9200478   8.2066193  35.9057426  20.4589291  69.7056656
  36.0445976  20.1646328  68.8054733  35.7032242  19.6589241  70.1906509
  82.4571457  60.1317177   9.6619110  83.0157242  60.8582153   9.9383631
  81.6194611  60.5419922   9.4470100  18.1877575  48.8779221  40.9295578
  19.1208515  48.6694336  40.8837242  18.1434574  49.6576195  41.4830399
  56.0096397  16.5693169  76.8670502  55.9630127  16.0140972  77.6453705
  56.7263451  17.1771431  77.0490189  22.7956276  68.0263901  63.2608185
  23.0462742  68.8907852  63.5867462  22.0094433  67.8015137  63.7583885
   8.6145067  53.4718857  73.8528366   8.5388641  52.5332985  73.6808929
   9.3636255  53.7521095  73.3269806  57.1596603  39.2505951  40.2325134
  56.9001694  38.4725952  39.7389412  57.1449165  39.9586945  39.5886116
  20.8155556  28.7603741   8.8921099  21.0560608  28.0209026   8.3339224
  20.7905655  28.3947830   9.7763901  57.7012215  63.3676338  59.2649879
  57.2844772  63.0498505  58.4640083  58.6396484  63.2815666  59.0971031
  56.2797661   3.6196594  57.2592087  55.9239197   4.1346698  56.5350723
  56.0524826   4.1197009  58.0431290  10.7127781  62.1945572   8.9876957
  10.0744286  62.7661743   9.4143019  11.5514574  62.4372406   9.3800640
  19.9864750  13.0156908   4.2794480  20.6702976  13.3260632   4.8729873
  19.3235493  12.6354399   4.8557906   5.6676269  17.2908516  65.0395508
   6.5795283  17.5755749  65.0995636   5.4378901  17.4155083  64.1187286
  67.9579086  47.6232834  77.1035919  67.5555725  47.6261978  76.2350616
  68.8984680  47.6695442  76.9320145  67.2964859  61.4006004  13.1743832
  66.6599350  61.2233467  12.4818430  68.1376953  61.1408691  12.7986984
   9.0282516  60.1442680  82.7601471   8.5089521  60.2020721  81.9581375
   9.1734648  59.2063370  82.8843765  76.8214569  28.4604225  19.3752708
  76.9606552  28.6056557  18.4394493  76.4534988  27.5783863  19.4286385
  47.9964638   8.4905539  76.8290939  48.6340828   8.1834803  76.1845932
  47.1691551   8.5269127  76.3490143  17.7202778  29.2923737  79.7792664
  17.5182991  28.6779289  79.0736542  16.9668598  29.8821754  79.8062439
  45.2821121  59.5454750  76.5864716  44.6828690  60.2889519  76.6526947
  45.8743668  59.6481247  77.3314056  82.1996994  67.0300217   8.1569719
  82.5789871  67.4201355   8.9444866  82.1711273  67.7476120   7.5241370
  15.5059557  54.9365273  26.3369713  16.1807404  54.9818001  27.0143528
  15.8035526  54.2427750  25.7484322  79.7513733  70.8196716  12.7175417
  79.3368301  71.5187149  13.2232361  80.6207352  70.7256012  13.1068869
  82.3447571  10.7264099  36.0812874  82.6147079  10.6321974  35.1677895
  81.5553360  10.1900129  36.1542892  10.9962873  60.4567299  31.9338665
  11.7498198  60.3397484  31.3553028  10.4901552  61.1608543  31.5285625
  65.9707336  15.2092705  70.6129837  65.1453323  15.6165934  70.3502426
  65.9237976  15.1674223  71.5681152  50.1630745  61.4417381   0.4262425
  49.3955040  61.4604988  -0.1453477  49.9834480  60.7341385   1.0453284
  46.8988571  28.4750957  59.9157791  46.6398544  28.8224831  60.7692833
  46.1430511  28.6380730  59.3514824  73.7078018  64.1296387  59.8651276
  72.9185486  63.7764511  60.2756882  73.5594559  65.0747833  59.8345985
   8.3222990  13.5312929   1.9639685   9.0992060  13.2288370   1.4936827
   8.5347605  13.3985634   2.8878057  49.7437248   3.3234401  22.4053421
  49.0683212   3.9419112  22.6838341  50.5692062   3.7548382  22.6260414
  34.7842484   0.3327951  36.0616341  33.9059448   0.5089976  35.7243385
  35.3323135   1.0124105  35.6692314  76.5572281  16.5039425  75.5671387
  76.1369400  15.9215202  76.1998978  77.3274536  16.0192986  75.2703171
  54.2750282  10.4601822  61.5158882  54.2923126   9.5784426  61.8880005
  53.3450966  10.6487665  61.3898354  64.3422241  31.3704472  24.1972141
  64.8447723  30.6352749  23.8462181  64.9399033  31.7980251  24.8105545
  31.3522778   6.9704132   8.3778381  31.4143810   6.0230451   8.4997740
  31.2182407   7.0824928   7.4367194  59.0341911  39.0715904  24.8904591
  58.4197006  38.3392563  24.8423004  58.7842178  39.6421852  24.1637077
  18.4676685   4.1475172   4.5803685  18.1378384   3.5930545   3.8732507
  19.1220512   4.7063437   4.1611705  75.4079590   7.3050499  78.2346039
  75.2490540   7.4387903  79.1689987  74.9004517   6.5238109  78.0147552
   0.5848020  16.9454117   2.6643143   1.4021173  17.4308796   2.7763324
   0.0351781  17.5211639   2.1326625  59.5634651  13.9025021   8.8813219
  58.7452850  13.5843449   9.2628860  59.7602043  13.2788553   8.1823292
  41.7928352  50.4538574  79.5760574  42.1899071  50.8446465  78.7976913
  40.8600922  50.4002419  79.3678513  50.8100281  32.3143654  48.6062393
  51.2114525  31.4798203  48.3641129  50.6542625  32.2409744  49.5478249
  38.1098595  55.7313766  15.1158695  38.8189850  55.0992088  15.2330723
  38.1877174  56.3204956  15.8662739  37.4934387  27.5229149  76.5132294
  36.8624153  28.2107086  76.7253113  38.2313461  27.9881115  76.1191254
   0.3321222   3.4349625  27.6200428   0.8460125   3.2476878  28.4055843
  -0.0113886   4.3168640  27.7631588   6.6464219  56.8295441   6.8123713
   7.0202041  56.0307999   6.4401774   6.4439840  56.5993042   7.7191463
  42.4111977  41.9785881  84.7332458  43.2921600  41.6729393  84.9493790
  41.8324051  41.2864113  85.0528107  27.7038136   5.6382217  69.2685699
  27.6323051   4.7025189  69.0799484  27.4977264   5.7111287  70.2004776
  36.9837379  71.3740540  69.9147491  37.5665359  71.3343201  69.1564636
  36.1248093  71.5804214  69.5461197  37.1446037   7.3162003  14.4836216
  38.0382271   7.4365506  14.8048372  36.7451668   6.7105713  15.1080389
  22.2999344  34.1976242  14.2302036  23.1132011  34.5262222  14.6134195
  22.5265942  33.9983139  13.3218355  47.3363152  51.2841797   0.4602548
  48.1157227  51.2520981  -0.0944726  47.6356812  50.9674416   1.3124803
  72.9932632  67.8122330  82.2810974  73.7122192  68.3810501  82.5563736
  73.1329193  67.6868973  81.3424683  15.2385874  59.6042099  87.0863190
  15.5988560  60.4111061  87.4542236  14.3796587  59.8576813  86.7483444
   7.6635962  57.8306084   1.7403138   6.9157472  58.4123611   1.6042329
   8.0225353  57.6928940   0.8637132  30.8799229  32.0284576   2.0718217
  31.4604645  31.5943890   1.4466912  30.3769131  31.3159351   2.4661837
  43.2285881  64.2831497  29.7022381  42.4745674  64.0687256  29.1529617
  43.2292404  63.6090965  30.3818588  49.0508537  69.8766861  48.1925278
  48.3498268  69.4629211  48.6961021  48.9298019  70.8147583  48.3395157
   6.3665166  17.8766537  17.2213936   6.7772388  18.0485210  16.3740444
   6.9700589  18.2544250  17.8611240  79.4658508   8.6705494   8.8819561
  79.7565460   8.3973789   9.7520742  80.2631454   8.9728327   8.4470091
  49.2383842  36.1167641  13.0862417  49.9739761  36.7155113  13.2152367
  49.4704933  35.3393021  13.5940895  26.0065594   9.3985806  78.5969925
  26.6027145   8.6955833  78.8551102  26.5377636  10.1933193  78.6464233
   5.2975616  59.2144356   1.8315275   4.6520467  58.7350616   2.3508968
   4.8137622  59.9606895   1.4775858  70.4717712   8.9291792  13.9122705
  70.8013458   9.7939358  13.6677141  69.6755524   8.8204422  13.3922234
  41.4950218  61.1786308  69.5918961  40.6763306  60.8317070  69.2374573
  42.0047302  60.4017334  69.8218155  85.5125427   4.6707630  68.2746735
  85.7988968   3.8085868  68.5761490  86.0173264   5.2890635  68.8030014
  48.4684143  19.7577534  63.2843208  48.1584740  19.1334419  63.9403687
  49.1056938  20.2986813  63.7506905  35.0179977  67.5167694  62.1980438
  34.7960434  68.0274734  61.4194946  34.1731834  67.2323532  62.5467949
   2.5784869   7.4456019   2.1456816   2.1575251   8.0442505   1.5287188
   3.5103836   7.4995937   1.9338207   4.6730194  56.4105225  11.8470421
   4.9159827  56.5395546  12.7638578   3.8363283  56.8661880  11.7545815
   2.3520045  35.7945366  68.8879623   2.8493247  36.6026382  69.0139618
   3.0029120  35.1554909  68.5978394  55.2538834  48.6443863  16.6636009
  55.8610992  48.1416283  17.2065182  54.8429871  47.9917984  16.0965691
  34.0214233  42.3888245  60.9656754  33.2961540  42.8016396  60.4968529
  33.6095352  41.9648514  61.7185555  16.3411274  24.9404373  65.0230789
  16.5467529  24.8059177  65.9482040  17.1227016  24.6417980  64.5581207
  79.9830704  14.5677881   6.0717926  79.3766479  14.7119341   6.7982221
  80.2211838  13.6430759   6.1384606  13.7944441  30.3231087  85.4101257
  14.0379372  31.1498203  84.9936066  14.4030361  29.6817570  85.0433655
  61.6856270  24.6894703  60.2653427  62.0501289  25.3829460  60.8153076
  62.4147415  24.4177628  59.7078514  34.5362167  67.4929352   7.5112596
  33.8722725  67.9372787   8.0384884  35.3385887  67.9911118   7.6669989
  55.7928162  69.0267487  11.9983578  56.3218040  69.5024872  11.3579874
  56.4218636  68.7314758  12.6566458   5.4952693  69.7847900  32.7945671
   5.3928514  70.1030731  33.6914749   6.2728453  69.2274323  32.8255348
  80.0994797  25.3592625  38.6215591  80.7381821  24.8811474  38.0926933
  79.7825165  24.7150726  39.2546349   5.5216002  18.5513096  43.4272194
   4.6475487  18.6521950  43.0502739   5.8691173  19.4422607  43.4680672
  80.4541931  15.0704288  12.2344074  79.9114304  14.8923092  11.4663477
  81.0791855  15.7319822  11.9378204  54.2959137  67.2639771  14.1514997
  54.6432571  67.1266861  13.2701731  55.0655823  67.4660416  14.6834908
  10.1704626   5.1633682  29.4491329  10.0558529   4.5537200  30.1781216
   9.9448109   6.0188065  29.8145618  52.7998810  24.3874474  61.2264214
  53.5220222  24.4451256  61.8520546  52.0544052  24.0898266  61.7478828
  24.5836334  15.0072327  81.3069534  23.7473640  14.5432568  81.2668076
  24.5640888  15.6014929  80.5568237  77.3164291  37.5388527  25.8511276
  77.5804291  38.4589119  25.8564835  77.0449295  37.3623314  26.7518826
  81.7888260  50.8928833  26.3036366  80.8837585  51.0888329  26.5458717
  82.0676041  50.2298012  26.9351692  68.7380142  51.4418907  26.0458622
  69.4786911  50.8655815  26.2342587  68.3729706  51.1032982  25.2283478
  76.5450058  36.1292992  34.5582390  77.0747528  35.3691902  34.3177528
  75.9523010  36.2524261  33.8167686  42.7265205  51.8849449  73.1076584
  42.5630264  51.2577744  73.8120422  42.2896614  51.5071030  72.3443604
  48.3496666  71.3174973   7.4104548  49.2895355  71.1369705   7.4274201
  47.9533997  70.5657883   7.8510628   2.6845498  58.9176865  51.6827087
   2.6435347  59.1691284  50.7600365   2.9817536  58.0078812  51.6700325
  54.1323891  52.4704704  49.1926193  54.8949165  52.3475380  49.7580147
  54.5006752  52.7148018  48.3435593  32.9927940   4.0286374  75.4966812
  33.8582191   4.1827006  75.1178131  32.6881638   4.8972731  75.7591782
   2.9186909   7.4418964  51.8524513   3.2284522   7.1389585  50.9989243
   2.6526718   6.6431813  52.3079948  63.2755203  25.6037827  71.0591660
  64.1818085  25.2962856  71.0413971  63.1262932  25.8568878  71.9701538
  47.6163292  17.0972786  88.6480942  47.0733185  16.7888508  89.3735275
  46.9892387  17.4013214  87.9919357   9.0076342   6.4820061  47.1546974
   9.3563671   7.0485148  46.4664497   9.7800961   6.1893287  47.6383018
  86.0432281  50.1851883  44.5887184  86.1664352  50.4046173  45.5122452
  86.8677139  50.4345131  44.1712379  41.5861740  67.6092987  36.4798393
  41.6911507  68.2632065  37.1709404  42.4791565  67.3326263  36.2742462
   3.0661004  66.4887466  16.8755608   2.8895981  65.8951340  17.6054230
   2.4684372  67.2234192  17.0144386  39.9885292  41.4384918   0.2915318
  39.4370537  41.2949448   1.0606242  40.8161011  41.0082245   0.5065350
  64.2745056  49.7229805   5.6991134  64.2589417  50.6419258   5.9665556
  64.2479782  49.2337341   6.5214076   2.9511080  49.4490433  81.3022842
   2.2989864  49.0119629  80.7546310   2.4452949  50.0670433  81.8299789
  53.8551903  24.3546200  72.1428757  54.7747955  24.1165962  72.0249710
  53.6989098  25.0372562  71.4903259  26.8166943  38.5094948  81.7211761
  27.2338409  38.3102531  82.5593414  27.4428215  39.0763664  81.2707825
  80.1946793  61.8329926  26.3558788  80.4960861  61.9489212  25.4547977
  80.9733047  61.5478287  26.8340626  25.0607815   9.8240824  60.1318092
  24.5539646   9.5782366  60.9057121  25.9277267  10.0436020  60.4730530
   9.6777964  56.6198235  25.3593292   9.2262487  57.4625053  25.4065208
   9.5281725  56.2196198  26.2158794  68.3198471  59.4848442  36.1610718
  69.1485672  59.8745728  36.4395752  67.9422531  59.1257286  36.9639969
  56.7803001  35.9829826  56.7128792  56.7864799  35.3851357  57.4603920
  55.9627037  36.4722824  56.8042717  48.1327477  47.5087509  86.9612885
  47.7608757  46.7573700  87.4232101  48.5191231  48.0472260  87.6519394
  28.6560955  37.7216988  65.7792740  28.8569889  36.8055840  65.5879364
  27.7996159  37.6950455  66.2058411  69.2819824  65.2998276  54.3756447
  69.8897400  66.0179901  54.5519905  69.8405151  64.5799866  54.0821991
  27.9425240  59.6258011  47.7775841  28.5286541  59.9217224  48.4740868
  28.4494286  58.9682693  47.3012085  52.6460152  66.0251694  30.6557484
  53.5953751  65.9408112  30.5672722  52.4962616  66.0669632  31.6002369
   6.8817239  49.1156387   5.8817148   6.3071213  49.0995331   6.6470933
   6.3166599  49.4016190   5.1639757  73.3668976  10.0704012   8.3546085
  74.2762833   9.9817982   8.0692892  72.9003754  10.3754683   7.5764575
  43.6006279  61.7600098   0.7396836  43.3561096  61.6332970   1.6564093
  44.5046806  61.4497871   0.6878585  44.2678337  10.2587576  85.0160141
  44.3326683  10.8620901  84.2757263  43.9044876   9.4568434  84.6403198
  66.0524368  47.9785538   3.8215702  65.9388275  48.7478676   3.2634676
  65.8257980  48.2842445   4.6998744  37.7409363   2.6455698  12.2132149
  37.1769066   2.7078464  11.4423542  38.6214828   2.8189690  11.8803473
  67.6085587  26.5986652   6.7859368  68.3362961  27.0015488   7.2595549
  67.5952988  27.0473957   5.9405394  43.6997185   4.9521656  47.1209488
  42.8393288   5.2933631  47.3649559  43.5134163   4.2771068  46.4683990
  46.0633621   2.5841587  64.5133743  45.6654320   2.1414552  63.7637787
  45.3215714   2.9382691  65.0038681  50.4137650  29.5234146   3.8684626
  50.0250816  30.2278004   3.3498116  49.7873154  29.3736229   4.5765271
  57.7601814  59.4425850  16.4852123  58.4827309  58.9476967  16.0988941
  58.1619949  59.9323502  17.2027855  38.9345703  49.6745949  79.1702271
  38.3059654  49.2170372  79.7285538  38.7179489  50.6010590  79.2749786
  80.1093445  46.3918953  34.3185463  80.5200348  47.2543373  34.3798103
  80.4181213  46.0382843  33.4843712  20.5425301  69.4112778  21.2572613
  20.9238930  69.0668793  22.0648403  19.9052448  68.7483139  20.9915924
  43.2390594  38.0974693  80.6983414  43.3896523  37.2678261  81.1513824
  42.4843292  38.4808121  81.1451797  59.0042725  67.5710602  33.3573341
  58.4435921  67.7801895  34.1044159  59.3652802  66.7086868  33.5627975
  57.8468933  27.2828293  54.4933357  58.5765839  27.8644257  54.7067108
  57.6664658  27.4541130  53.5690308   6.2080722  53.8688240  32.4718132
   5.5806570  53.4156952  33.0350685   5.6879849  54.5334511  32.0201378
  85.1095276   3.7550380  63.9351768  84.3524246   3.2712233  63.6051064
  85.8655548   3.2922938  63.5738983  83.7235947   7.2018938  87.7409286
  83.3244476   8.0179386  88.0425720  84.1129761   6.8205528  88.5278168
  33.1894150  19.1461906   2.3351696  33.4501801  19.9272537   1.8471378
  34.0140877  18.7060642   2.5411747  63.4170952  39.5865707  12.2031155
  62.6413422  39.0896988  11.9431915  63.7772942  39.0983238  12.9434576
  64.5729218  60.5681343  60.1947861  64.2822189  59.7537384  60.6052551
  63.9735489  61.2337379  60.5323715  73.8855438  34.6401901  39.0791817
  72.9800568  34.7896118  38.8071480  74.0597687  33.7294197  38.8417511
  40.8890762  46.1255226   1.1664078  40.5875778  45.2774811   0.8405846
  41.7187920  46.2750320   0.7131414  84.2480545  53.8459549  25.2232609
  84.9258194  54.4330292  25.5582428  84.7259903  53.0686226  24.9341812
  12.0120735  30.2754211  75.7721558  11.8513880  29.6056595  75.1074524
  11.3893623  30.0739250  76.4706268  45.4887390  34.2741470  17.4651527
  46.3182945  33.9517670  17.1128139  45.6780281  35.1710052  17.7409134
   2.4699240  14.7182398  44.1448174   1.7486994  14.4159489  43.5928307
   2.8121295  13.9211664  44.5495415  14.4811268  13.2553825  16.4836578
  15.3956375  13.0980492  16.7184963  13.9882984  12.6164045  16.9984951
  58.5061264  16.4908905  43.6331787  58.5583153  15.5673409  43.8792725
  58.8468170  16.9611454  44.3941116  62.4835892  35.6040649  13.4357605
  61.8511200  35.0308914  13.0025301  63.2401428  35.0422478  13.6037560
  68.8425064  17.7639656  35.5382805  69.3283463  17.9906425  34.7453041
  67.9874649  18.1782207  35.4219475  57.4238930  39.7022171  80.1080322
  57.7557259  40.5928001  79.9940796  57.0304718  39.7030334  80.9806442
  59.6421051  13.1159067  80.5389633  59.9053230  12.2050619  80.4073944
  58.9877625  13.2767220  79.8591080  18.1632462  68.8178635  55.4049187
  17.2771301  69.1746292  55.4661331  18.2956295  68.6645737  54.4693947
  26.4343166   8.8045893  69.6639328  25.5423756   8.8215084  70.0108948
  26.6378479   7.8738289  69.5717773  37.7560997  49.1854897  19.2327499
  37.3095665  50.0150414  19.4021072  37.9600487  49.2097702  18.2978439
   2.4140561   0.0050020  65.6540680   2.9310224   0.8105932  65.6546478
   2.9953775  -0.6523566  65.2717361  80.6286316  25.3340282  26.8609600
  81.4951782  25.7406330  26.8620358  80.3844147  25.2882023  27.7853470
  40.7633743  53.3402405   1.3278205  40.0038109  53.9182358   1.4000014
  40.9993134  53.3694382   0.4006138  36.1765175  58.1120224  77.9014206
  36.0698738  58.0787354  76.9507675  37.1085930  58.2864914  78.0319138
  67.5671997  51.0191498  75.7225647  66.7374268  50.7049179  76.0816879
  68.0711899  51.2934799  76.4887009  85.4783554  69.8409119   6.1527991
  86.4210815  69.7436829   6.2871299  85.4024353  70.3345795   5.3362455
  86.5878906  17.0099831  38.6060905  86.2523270  17.0748787  37.7119865
  86.1809387  17.7427044  39.0684166  42.2659035  69.0053177  57.2382584
  41.8709373  68.1815186  57.5238953  41.6357040  69.3703918  56.6171341
  15.0140705   5.0013876  30.5895348  15.4835157   5.8166289  30.4128017
  14.1639557   5.1177211  30.1652660   1.5028600  65.9208374  39.7641869
   2.3838954  65.6396942  39.5172729   1.1282212  66.2718124  38.9562912
   7.4340057  55.0644112  26.0962219   6.8064251  54.3691330  26.2936039
   7.7502685  54.8589287  25.2164574  81.1034775   7.3062410  24.2776680
  80.2198257   7.4759984  23.9512157  80.9693527   6.8083067  25.0840816
  51.1181526  25.7241478  86.9440918  50.9744377  25.8313732  86.0038376
  50.3704262  26.1608791  87.3520126   8.4278784  12.0130835  77.4005508
   7.9314017  12.2111855  76.6065140   8.0778399  11.1735487  77.6986923
   2.8170660  19.9479866  83.9134521   2.3921447  20.0046005  84.7692947
   3.1088676  19.0385170  83.8506088  70.6079559   1.2870638  76.7237091
  70.0691833   0.8256751  76.0810089  70.2561569   1.0143384  77.5711136
  38.3671303   3.2052152  19.8436127  38.8261299   3.9715447  20.1875477
  37.6094475   3.1015055  20.4192791  53.0333138  52.6585770   6.6559687
  53.2782059  52.3503189   7.5284557  53.8403244  53.0275536   6.2970505
  56.1945724  40.9131622  57.7322693  56.1372795  40.1654816  58.3271828
  56.0517349  40.5389900  56.8628883  23.3579311   4.1491995  63.0405502
  23.9230175   4.8141298  63.4339676  23.9609814   3.4681251  62.7427254
  59.1395493  57.0788231  45.7397423  58.3402824  57.1460381  46.2621231
  59.5429497  57.9442787  45.8067284  52.4109497  15.0861015  19.3282623
  53.1223679  15.7123737  19.4620571  52.2024345  14.7691517  20.2070656
  69.7091293   7.7497711  40.4992027  68.9835434   7.4303412  41.0355988
  69.9467392   7.0035458  39.9488182  68.4584656  33.3780365  24.5935040
  68.4912491  34.2818375  24.2799778  67.6013412  33.3008385  25.0125694
  66.0518799  16.9909973  49.3035011  65.3702393  16.3827934  49.0176888
  65.8035126  17.8293438  48.9139862  50.8642578  28.0149193  33.6332474
  50.7768974  27.1691494  34.0728798  50.7179489  28.6604958  34.3246613
  10.5345173  11.1489544  24.3780727  10.8981762  10.3583488  24.7767296
  11.1093655  11.8537817  24.6763992  19.4136639  34.7078781  16.8979721
  18.5665417  34.3429756  16.6421146  19.5718288  35.4108200  16.2678242
  34.1657906  13.8105755  66.5097046  35.1181755  13.7269936  66.4626312
  33.9252396  14.2666492  65.7032547  82.6949692   6.2145996  40.7276192
  82.9099884   5.9608316  41.6251717  81.7911530   6.5259562  40.7767448
  34.0018616  51.9029236  42.6830673  33.1455383  52.3246346  42.6116333
  34.2123070  51.9446259  43.6159172  62.4105949  66.7606430  25.4608517
  63.0920258  66.9942856  24.8305416  62.1662712  65.8648224  25.2283707
  31.5207825  19.2946644  14.3110075  31.7813988  19.4694233  15.2153139
  32.2965164  19.5084953  13.7926006  14.1542807  45.7732048  75.5404510
  13.6983128  46.2879944  74.8746338  15.0569172  45.7209244  75.2262115
  15.4912977  62.3792648  19.7170982  15.9733038  62.9943848  20.2698441
  14.8431616  61.9880676  20.3028603  29.2034760  31.4585094   6.3467846
  28.9832897  30.6743488   6.8496175  29.7791309  31.1426296   5.6503124
  34.1419296  65.0551224   2.3431489  33.3838501  64.4718323   2.3068695
  33.8816681  65.7487259   2.9492960  17.7050591  51.3397484  82.7664337
  17.6699791  51.8088799  83.6000519  17.2430305  51.9093857  82.1513977
  79.7565308  53.3185577  45.4286041  79.8415604  54.1417389  45.9096222
  80.6019211  53.2068100  44.9937935  36.7896461  58.0469589  35.9734459
  36.8671494  58.3740387  35.0772057  35.8641548  58.1595345  36.1903000
  50.4659882  37.0444374   0.5370283  51.3213730  37.0051651   0.1092307
  50.5668793  36.5087433   1.3238465  67.7032013  35.8879890   0.0490193
  66.9780807  36.2766380   0.5382865  67.2870789  35.2462311  -0.5264983
  66.8181763  47.7420120  46.4252586  67.1246109  48.5872040  46.0966568
  67.0795822  47.7339706  47.3460388  50.0795631  27.8282661  85.2345505
  49.3176155  27.2858238  85.0310135  49.8216400  28.3208504  86.0137024
  73.8863754  27.5948963  36.9106293  74.2351456  26.9699593  36.2749825
  73.3410034  27.0655384  37.4925041  67.4444962  57.2555046  66.8594742
  67.1145554  58.1138115  66.5936203  66.8137436  56.6335754  66.4967270
  38.6593094  45.9558601  37.9775238  38.4988937  45.0318108  37.7861290
  38.0717812  46.4281425  37.3876152  22.5663681  27.2681980   4.4456148
  22.2763920  26.4206924   4.1081562  22.2847729  27.8989182   3.7829466
  55.9583893   4.1549091  34.5203400  56.1498032   3.2421734  34.3046875
  56.5016136   4.6624656  33.9174118  46.1769943  55.4134941  25.0601692
  46.7670364  54.9554596  25.6587410  45.8363266  54.7264938  24.4872704
  49.0360107  47.9094276  69.7115402  49.0072098  48.4025917  70.5314102
  48.4156570  48.3604317  69.1388321  34.2999115  22.2928658  12.0446110
  34.9597206  21.9967003  11.4175768  33.8378716  21.4947414  12.3010225
   9.6997910  48.6326408  55.0493126  10.2793417  49.3373184  55.3387642
   9.2217464  49.0048561  54.3082581  24.6476040   5.3201771   3.2215800
  24.1804237   6.0950994   3.5337803  23.9690571   4.7765250   2.8212705
   9.2187920  65.7030411  79.0316620   9.5929842  66.1854782  78.2944641
   8.5966396  66.3139191  79.4266205  20.6812782  54.5097656  84.3818665
  19.9123936  54.7683144  84.8900070  21.4162502  54.6250267  84.9841690
  17.7384319  55.9021835   6.2635531  18.5153637  55.4016914   6.0143156
  17.0071507  55.3067398   6.0995269  60.3016205  50.8957634  70.2622528
  61.0216866  51.1687698  69.6937485  59.5108757  51.1209450  69.7721024
  58.1826019  16.4213371  49.0537910  58.2422829  15.7598639  49.7430801
  58.2060242  15.9204235  48.2384567   8.3450756  28.6862202  70.1282883
   9.2514172  28.5247936  70.3904266   8.3985662  28.8907375  69.1947174
  46.9737930  35.5407257  21.7623329  47.8620911  35.1915169  21.8345127
  46.5571861  35.3090744  22.5923996  83.0565414  48.1710472  58.3753662
  83.5201874  48.1011276  57.5408745  83.5528717  48.8221512  58.8713036
  83.1964264  44.0222702  36.9575310  82.3346024  44.4367561  36.9986572
  83.5075531  44.2040558  36.0707474  63.1702995  60.0966759  17.3499527
  63.7760544  60.2830391  18.0672798  63.3059044  59.1690140  17.1568451
  73.0384369  58.7562218  77.4915466  72.1484070  58.4286346  77.6210251
  73.4724579  58.0742455  76.9789352  65.9921417   2.4726508  83.8258896
  66.5270767   2.0944576  83.1280060  65.3020630   2.9509346  83.3662567
  56.5417557  69.2209930  27.5987453  57.1411285  68.8344650  26.9603252
  55.8446960  69.6080475  27.0690918  70.6919098  67.0727692  13.2620125
  71.1202850  66.2353058  13.4391890  69.8345718  66.9965820  13.6808205
  76.0686493  24.9403896  14.5556946  75.2414627  25.4192066  14.6078644
  76.2360306  24.8529835  13.6173048  64.5351105  10.4552822  83.4950409
  65.4306030  10.7871189  83.4300690  64.3939514   9.9845266  82.6736450
  38.1610184  44.5518188  15.5100746  38.9173851  44.8844337  15.0268497
  37.7296371  43.9550438  14.8985195  22.8046875   6.9011612  50.4975471
  21.8945293   6.6115332  50.4346313  22.7831097   7.6244130  51.1241837
  48.4490662  46.6369972  25.2822857  48.2571640  46.9468918  24.3972034
  48.3559456  47.4139595  25.8335438  72.9253159   2.1319370  73.3830109
  73.2378387   1.9466121  74.2685699  73.6496506   2.5986290  72.9661560
  32.8888893  67.9824371  13.8734970  33.3917809  67.6050873  14.5952568
  32.5504379  68.8068924  14.2227182  72.4695892  22.6979294  29.4153633
  72.7593613  23.5741482  29.1613846  71.5190430  22.7185268  29.3046017
  77.9495621  59.1591949  32.2587471  78.5052719  58.6672974  31.6542168
  77.6520233  59.9137688  31.7504902  49.6438904  60.3283424  57.0870552
  49.9434433  59.4192390  57.0817413  50.4422379  60.8428917  57.2058449
  19.1623459  19.2519035   6.3512888  19.1429157  18.6219063   5.6309009
  19.0028267  20.0982876   5.9336534  68.8078308  59.6503220  22.0379581
  69.3585205  60.4289856  22.1195240  69.2767792  58.9731636  22.5255756
  78.7825012  12.0245667  48.4639091  79.2264557  12.0009832  49.3115997
  79.2382889  12.7088718  47.9737892  13.5739260  65.6812363  73.6975555
  12.9162025  65.7241669  73.0034485  14.3999434  65.5361710  73.2361679
   8.2378731  35.2549591  86.7382507   8.4433765  34.3627396  86.4590683
   7.3943849  35.4459915  86.3280487  30.7578449  39.5060196  65.2712555
  30.0934048  38.8689575  65.5337524  30.3132038  40.3519478  65.3253937
  77.8619003   6.4523516  48.7888870  77.0604935   6.9100752  49.0427818
  78.4199982   7.1351223  48.4166145  51.9705658  27.7276211   7.2550411
  52.1217308  26.9963684   7.8539143  52.8420334  28.0892830   7.0938549
  61.0108833  39.9855690  44.8304482  60.6662331  40.8326492  44.5477753
  60.5172615  39.7789230  45.6240883  40.2597961  69.5580597  14.0104055
  39.5465622  69.0834198  13.5835066  39.9456406  69.7117615  14.9014235
  10.2405376  50.8049698  69.3976288  10.8243790  50.4530716  70.0695801
  10.8168821  51.0034256  68.6596069  71.6929932  45.7436256  76.6602783
  71.7583542  45.5044823  75.7357407  71.3954468  44.9439240  77.0940704
  81.2418823  61.3557129  15.9322090  81.4948730  62.0300598  16.5626736
  80.6903229  61.8148537  15.2988033  76.1895752   2.9104071  43.7401695
  76.6913376   3.7031980  43.5505638  76.4601212   2.6613550  44.6239166
  28.6443787  17.6249027   6.8093524  29.0037842  18.2851200   7.4019523
  29.1094112  17.7648773   5.9844985  76.2096329  48.5785713  20.0303936
  77.1295013  48.8108826  19.9035301  76.1536026  48.3151627  20.9489307
   5.6039200  45.2941551  16.0365028   5.2096162  46.0168381  16.5248528
   6.0063939  44.7429810  16.7076626  78.4105301  53.2354164  39.3548775
  78.8233719  52.9892807  40.1826515  78.9620590  53.9385796  39.0119362
   1.1908839  45.8283539  57.4589310   1.8733947  46.2838440  56.9660454
   0.8504905  46.4884720  58.0627556  80.6779099  23.4634991  75.9571762
  80.1078491  24.2301121  75.8974304  81.4350433  23.7665062  76.4583435
  78.3455353  58.5606918   5.0530672  78.3922348  59.2358780   5.7299562
  77.6982803  58.8906898   4.4298525  28.1851521  14.6865559  89.3074799
  27.9677544  14.0444412  88.6317139  28.9377632  15.1607676  88.9540253
  34.2046204  48.7815247  42.7176743  33.9770660  48.4287148  41.8574562
  33.7919426  49.6449280  42.7392387   0.9030933  56.3914680  43.0883827
   0.6107429  57.2864952  43.2606773   1.7874762  56.4919777  42.7362518
  76.0222626   7.3289189  66.5301132  75.2461929   7.8422976  66.3056488
  76.2940826   7.6664157  67.3835983  18.0775814  15.8859444  76.8387299
  18.7533722  16.5558262  76.9426270  18.5574245  15.1002922  76.5765533
  72.6221313  42.7924919  21.5297680  72.0243225  43.5264091  21.6719761
  72.9592667  42.5858154  22.4014683   5.0574403   6.0893636  70.2040253
   5.2829652   5.4782743  69.5026398   4.7736230   5.5299501  70.9270325
  46.7644958  25.9233685  62.9983177  46.2285728  26.7129917  62.9240761
  46.1625595  25.2058887  62.8005066  13.9962044  23.3692169  17.4300385
  13.5317326  22.7598190  18.0037403  14.3964977  24.0018539  18.0265026
  40.4321938   2.8430421  22.9471817  39.7412033   2.6327779  23.5753155
  41.1340904   3.2173209  23.4796181  59.2353172   8.4948921  69.9614105
  59.6760139   7.9628220  70.6239243  58.4858742   7.9655318  69.6887512
  51.4931984  19.3425388  29.0049000  51.5591164  18.4115582  28.7923813
  51.9934921  19.7812881  28.3168335  70.8690414  46.4734917  40.7241287
  70.6092911  47.3755531  40.5369339  70.2801514  45.9391861  40.1912460
  28.0159435  57.7412758  18.5256252  28.9111500  57.4177742  18.4247055
  27.6192265  57.1520042  19.1671906  23.4726524  41.2065887  15.9059677
  22.8539009  41.0198631  15.1999130  23.9181328  42.0071068  15.6285715
  79.9262543  48.5199432   0.7264841  79.6350937  47.6085587   0.6975865
  79.6016541  48.8486176   1.5648378  59.4857330  53.3636284   1.0020581
  60.2461205  53.8330040   0.6589385  59.8181076  52.4912148   1.2133616
  17.7638397  49.5019264  26.4528503  16.8210049  49.5600967  26.2982292
  17.8634224  48.7598114  27.0491562  77.8605194   4.4224730  77.9798965
  78.0255203   5.3568068  78.1064987  78.7085648   4.0625429  77.7200851
  15.1206646  50.3720894  60.7786789  14.5073013  51.0914192  60.9289513
  15.9504709  50.8035126  60.5748940  64.1581802  63.2951279  56.5465355
  64.4418182  63.4352989  55.6431313  64.4071121  62.3909454  56.7381706
  27.5970516  31.7651768  14.9012747  26.7549801  31.4129581  15.1895294
  27.9012623  32.2930069  15.6395721  23.2000809  64.8435593  76.7235947
  23.5453243  65.6838989  76.4221268  22.9626160  64.9964066  77.6381836
  48.2424049  56.8274231  10.7217817  48.0245895  56.9530525   9.7981997
  48.6586113  55.9660721  10.7546883  57.3567085  40.3041916  26.8149872
  57.8611298  39.7695808  26.2018166  57.2576828  39.7509308  27.5897961
  65.2011642  56.7947807  14.3350058  64.2625504  56.6641350  14.2002373
  65.6103821  56.0329933  13.9245749  39.8607597  11.5444069   6.8974500
  39.3244209  11.9207067   6.1996183  40.3752251  12.2809305   7.2277384
  78.0579071  20.8448601  42.1855812  78.0289001  20.7503223  43.1376610
  78.9584351  20.6216774  41.9500580  31.1735630   2.3696911  22.6193905
  31.5395851   2.0162711  21.8086166  31.7016392   3.1469371  22.8017521
   3.9478028  44.1772842  51.5172195   4.6922898  44.5013733  52.0241089
   3.2157428  44.7328529  51.7849197  15.5896511   3.2165689  32.5667000
  15.0058203   2.5552285  32.1952133  15.5493212   3.9461513  31.9483852
  76.2894135  26.2807674  44.8983459  76.6867599  25.6594486  44.2881775
  77.0015640  26.5244694  45.4896851  10.1449594  31.4716759  60.9259987
  10.0903606  32.4210167  60.8164368  10.5996037  31.3525639  61.7598686
   4.1721072  21.5570107  29.4865761   4.1991715  22.4390221  29.8574638
   4.6119456  21.0099392  30.1373348  60.2596283  35.0986557  65.6355209
  60.5724754  35.9571037  65.3501663  60.1140060  35.1974144  66.5764084
  81.7094345  51.0951080   3.3938200  82.1422195  50.4216690   2.8690286
  82.2219238  51.1356888   4.2012472  49.5752106  12.9860029   4.1683249
  50.3324471  13.1516085   3.6067214  49.9073639  12.4057369   4.8533034
  58.2785530   2.2368233  77.6280975  58.5087128   1.8910767  78.4904861
  58.6910019   1.6332425  77.0101852   5.2111778  32.3334007  61.3893089
   5.8781800  32.6148567  62.0155029   5.5784230  32.5533371  60.5331573
  18.9564934  70.1270142  32.1252747  18.8386879  70.6170349  32.9390488
  19.8072681  69.6996307  32.2240639  35.2601433   8.9716816  80.3041077
  35.6260147   8.8749456  79.4248962  34.4703598   9.4976606  80.1783371
  40.4634933  56.5289345  53.8752365  40.8915253  57.3848419  53.8541298
  39.5944824  56.6865654  53.5061836  41.0043106  65.6142883  66.7054062
  41.7911911  65.8709183  66.2245789  40.6040344  66.4427567  66.9693222
  82.5484543  57.0661087  29.3517570  82.3466110  57.8057976  28.7787361
  82.8272018  56.3707008  28.7559872  14.8629522  23.3727455  83.8297348
  14.0312681  23.1504364  84.2482071  15.2019367  24.1050186  84.3446121
  45.5830727  65.0559235  45.9027634  46.3659859  65.2984848  45.4083443
  45.5214615  65.7163391  46.5928993  11.4397993  60.5453491  19.8955421
  11.3554268  61.1044273  19.1231785  11.0936022  59.6976662  19.6165943
  24.8604603  46.0667191  43.2703438  24.9397297  45.4578438  42.5360298
  23.9183884  46.1319122  43.4268036  50.7132416  26.9160080  11.5062017
  50.2338600  27.2726574  10.7583866  51.6135674  27.2147293  11.3780947
  35.5155373  54.0415382  38.8382454  35.2968063  54.8781090  39.2487793
  35.9368782  53.5364075  39.5336227  17.0144367  13.1601906  24.8391075
  17.2137318  12.2498846  24.6203461  17.4226341  13.2959156  25.6942005
  61.0093040  25.7885189  17.2667713  60.9297867  24.9363365  17.6953678
  60.7547340  25.6246052  16.3587189   4.8457198  44.6897087  60.5691566
   4.9440789  44.3349152  61.4527168   5.7426724  44.7927666  60.2512169
  41.1239624  69.9259872  60.2649651  41.8669701  70.1109009  59.6905289
  40.3909454  69.7765121  59.6678276  76.5428619  51.9515953   5.6322980
  76.4803162  52.8449669   5.9702411  75.7013016  51.5525284   5.8530965
  82.1724854  61.9050026  50.5752373  81.5027618  62.4826202  50.2090912
  81.9555740  61.8464050  51.5056953  74.7262726  42.5129128  67.2220535
  75.2133713  42.4854012  66.3985214  74.2303085  41.6943169  67.2344437
  21.4448662  55.5597496  65.3128128  21.2590008  54.6439857  65.5203323
  21.9027367  55.5268288  64.4728699  78.0795212  53.5709991  28.8475437
  77.8926315  52.8708534  29.4729214  79.0321426  53.5611115  28.7545567
  45.8782654   3.6217523  47.4110870  46.4182205   3.8079419  48.1792068
  45.0679092   4.1075716  47.5644989  51.6530609  33.7343979  63.3703766
  50.8260994  33.8886337  63.8270798  51.4103966  33.6846466  62.4457855
  26.9713840  15.4199448   6.6677217  26.8465137  15.3282461   5.7231421
  27.8400059  15.8119383   6.7575493  61.1994057  47.9910851  63.5449982
  61.4715576  48.8691254  63.8118477  60.3581390  47.8579865  63.9817924
  22.1296120  59.5017014   8.0869694  21.8533916  59.1628418   7.2354374
  22.2772064  58.7200470   8.6193800  76.6888733  10.7793188  64.6965179
  76.2609406  10.6473150  65.5425034  77.5221863  10.3148518  64.7745743
   1.5403389  44.9212952  71.5280533   2.3444555  45.2614708  71.9203644
   0.8372177  45.3052750  72.0518951  42.5805779  20.7020950  87.9308777
  42.2902870  20.4543037  88.8086929  42.0775223  20.1375389  87.3439865
  83.3872986  62.6225777  62.1115456  82.4423676  62.6236725  62.2643204
  83.5149689  63.2455368  61.3961029  85.4918213  24.3231297  36.9260368
  86.0272903  24.8835716  36.3644218  85.0961456  24.9244041  37.5570183
  68.2859955  49.3281670  36.0408249  67.6737976  48.7963333  35.5322952
  68.9016647  49.6703033  35.3926544  62.3296928  29.6094379  34.7016716
  63.0565414  29.9739952  35.2066650  62.3907967  30.0399590  33.8489418
  57.6083908  48.4047165   8.4335356  57.2061882  49.2715149   8.4894571
  57.0877647  47.9409637   7.7777066  33.6089783  60.5007248  87.8215332
  32.9176369  60.4611511  88.4823685  33.5666122  59.6527557  87.3795013
  59.3792686  65.6051102  36.3637123  60.3227196  65.6997375  36.2326469
  59.1308556  64.8745728  35.7972908  13.7323513  59.9160690  14.6339540
  13.9162760  59.6333160  15.5297527  13.5939407  60.8605728  14.7045679
  56.9468079  64.0954895  43.4219246  57.7880440  64.2166443  43.8622322
  56.9966507  64.6601715  42.6506348  48.8159676  53.8750763  71.8114929
  49.0081635  53.0295982  71.4059601  48.2193069  53.6658974  72.5301514
  84.4684372  44.5293503  28.2135773  84.5370483  44.3070412  27.2850819
  84.2292023  43.7063751  28.6398582  20.0905209  35.0423508  63.8510017
  19.9185791  34.2661476  64.3840866  20.5389271  35.6454926  64.4437790
  51.9122581  63.2971573  47.1229782  52.3723183  64.1015701  46.8831863
  52.5874023  62.6190262  47.0994987  71.2009201  47.8767548  86.0508575
  70.4585114  47.2737083  86.0135117  71.7849426  47.5811844  85.3524475
  15.2897358  43.4890022  58.0249176  14.7577391  44.2290382  57.7324142
  15.8332968  43.2707291  57.2678642  44.7285690   9.6465759   0.1529430
  44.7214355  10.3717098   0.7777326  44.5981674   8.8656406   0.6908710
  34.2949295  71.1980286  69.4514160  33.8016472  71.5960236  70.1687012
  34.7853508  70.4868469  69.8636627  63.6327934  45.7123489  85.2591095
  63.9909401  44.9702682  84.7719955  64.2182312  45.8109779  86.0099487
  80.6189957  20.6353645  46.0659676  81.0939865  19.8203659  46.2284317
  80.3669815  20.9433270  46.9365311  23.0412121  42.4118462  12.2798500
  23.6980152  42.7964058  12.8603287  22.5271187  43.1583138  11.9720669
  43.3755608  68.3537521  32.0495949  43.6463089  67.5785446  31.5576744
  43.9026260  69.0648270  31.6851730  60.5216217  62.3367348  60.5285072
  61.1902542  62.0192184  61.1354256  60.6515465  63.2847481  60.5035896
  50.9784012  19.9822845   7.4336772  51.5697670  20.4429398   8.0289230
  51.0691986  20.4446602   6.6004925  83.4040756  54.4042091  54.1868858
  82.8914871  54.6027374  54.9705162  82.7675934  54.4266319  53.4723091
  83.4100342  27.1436920  72.9099197  84.2479782  26.7257938  73.1085281
  82.7736588  26.6714172  73.4467773  11.0318937  66.8801651  89.2036591
  10.9454393  67.8268204  89.3159103  10.9905586  66.7464981  88.2567368
  23.8679028  34.0470123  69.0670547  24.3943481  34.8377609  68.9495773
  24.4778900  33.4049339  69.4302139  77.3568802  35.6601295  37.6087265
  78.1299057  35.1048813  37.7105103  76.8736343  35.2670212  36.8819695
  77.0038681  25.4642944  17.6503239  76.5204849  24.6381321  17.6554565
  76.4363708  26.0708771  17.1746750   4.6239243  18.1026230  34.7337685
   4.9726362  17.8034191  33.8940582   3.7483175  17.7186832  34.7799759
  33.7725563  61.5457382  64.4185486  33.9062042  62.3306808  63.8872948
  33.8529854  61.8514633  65.3220444  73.3381882  30.1585274  50.5771294
  72.5547638  29.9217739  50.0807266  74.0428009  29.6581059  50.1656227
  51.1172218  65.6048889  72.8376770  50.4262314  65.0309219  72.5070190
  51.2338066  66.2602386  72.1498108  62.2197037  46.9664459  28.7795544
  61.5597954  47.6569901  28.8420086  62.7365837  47.0559807  29.5802116
  57.1127968  69.9954605  39.5602150  57.7739220  69.9142990  38.8727837
  56.5191574  70.6758041  39.2424736  53.5006752  69.4760056  39.7168617
  52.7815437  69.3729935  39.0935898  53.2158012  70.1823578  40.2966423
  77.1304779   0.6246813  60.3080711  77.6790085   1.3978562  60.4405136
  77.3655243   0.0382281  61.0271339  63.4470100  66.8487701  72.2623138
  64.2190475  67.2356873  71.8494263  62.7915916  67.5461807  72.2455902
  38.8901405   4.6647067  28.2717705  38.6683159   4.7419610  29.1997013
  38.2160645   4.0884323  27.9115410  85.3880157  10.3001680  23.7678623
  85.3282700  10.8695736  23.0007629  85.9785995  10.7616186  24.3632603
  55.6446457   6.0014892  47.6055794  56.0733109   5.1502686  47.5167046
  55.6078758   6.3454905  46.7130852  16.4653072  70.0323410  64.1415329
  16.2690277  70.2874451  65.0429840  15.6993752  70.3133392  63.6409149
   9.2432518  70.1335983  55.5205154   9.5628271  70.9375916  55.9300346
   9.1184340  69.5265121  56.2499619  46.2690468  65.0836029  53.3593903
  45.8071747  64.7641754  54.1345520  46.9892349  65.6083450  53.7089806
  78.4904861  20.8205528   0.5927396  77.7666931  20.8072090   1.2189757
  79.2685318  20.6457043   1.1221776  52.2079010   3.7997193  38.9760284
  52.5058174   4.2288494  38.1739540  51.4127922   4.2735314  39.2200356
  35.0686951   2.8920226  22.1886063  35.6880112   2.1837587  22.3647957
  35.5473785   3.6900477  22.4127693  86.0349350  33.5649147  40.3364143
  86.9352722  33.7013245  40.6313934  86.0159302  33.9261169  39.4501839
  63.5651550  46.8512001  31.0798645  64.4355774  47.2461472  31.1309814
  63.2889137  46.7614746  31.9919338  74.6184921  69.6959686  50.9829521
  73.9940186  68.9922180  51.1590080  75.1746902  69.3531952  50.2833977
  19.0891953  24.9267578   0.6011012  18.6603069  25.3263683   1.3578023
  19.9451637  25.3530293   0.5581660  78.2758255  20.3778954  74.7680283
  79.2111435  20.3080139  74.5769348  77.8994827  20.7726002  73.9813843
  21.0150127  20.5852928  70.6736450  20.6423397  20.2550583  69.8561554
  20.8457870  19.8918190  71.3113708  58.1594582  62.8914986  70.1608429
  57.6006126  62.1449776  69.9449005  58.8166199  62.9079170  69.4650726
   1.0936925  56.5714493  69.9164581   0.9082754  57.3386536  70.4579849
   1.1705567  55.8502731  70.5411377  25.0118256  21.4178658  31.2765064
  24.5547409  20.8534431  30.6530209  25.8990650  21.0609264  31.3168945
  56.3501472  42.0772667  67.7280350  55.9484062  42.9388466  67.8399200
  56.8694496  41.9502106  68.5220261  77.4047623  32.5902290  49.8013191
  77.4765549  33.4941788  49.4948044  76.4771042  32.3764229  49.7014618
  25.7894001  24.1131973  63.4624405  24.9182777  24.4981709  63.3666763
  26.2563744  24.7178097  64.0391617  55.6110573  55.7506676  78.1489105
  55.1271477  55.0595093  78.6009750  55.6136856  56.4833832  78.7648239
  43.0902176   7.4255490  30.0182438  42.4853401   7.6824312  29.3222809
  42.8628922   6.5155873  30.2093620  32.1072121  18.8835201  59.3063622
  32.4830894  19.2468357  58.5045204  32.8636665  18.6975613  59.8626251
  75.6729431  68.9796371  61.4102440  76.5180206  69.1624680  61.8209038
  75.1199341  69.7197723  61.6604652  69.7228622  47.0791168  52.1652336
  69.0164871  46.6072693  52.6063995  70.3769531  47.2248383  52.8487206
  26.3139381  63.1812210  24.1261253  26.7789879  62.8255997  23.3688316
  26.4017849  64.1302185  24.0371666  77.2902374  33.8907814  12.6107817
  76.4401016  33.4584503  12.5295916  77.4555969  34.2589073  11.7428112
  58.9294586   0.6865766  80.0022888  58.3755608  -0.0602827  79.7750702
  59.8063660   0.3145550  80.0964355  17.2619934  39.5440331  89.0340347
  17.8690357  39.8288574  88.3509521  16.6375713  38.9789009  88.5791092
   2.3538187  27.8968258  35.6606941   3.0403194  28.3238697  36.1731262
   1.7288393  27.5813694  36.3134727  78.2931366  19.2973347  24.1669674
  78.1992340  18.4532871  24.6085510  78.8735580  19.8023281  24.7364674
  78.8968124  64.0316162  30.3144417  79.3254776  63.7768250  29.4974003
  79.3370132  64.8411331  30.5735493  15.1451073  30.0646076  71.5871277
  14.2728195  30.1789761  71.9643097  15.1344395  30.5985203  70.7927322
  58.9530449  33.1786880  64.1949615  58.8901482  32.5549698  64.9183273
  59.3569679  33.9550972  64.5826035  68.6619339  69.2259064  17.8779488
  69.0644836  69.5912933  18.6657810  68.0506058  68.5661087  18.2053165
   3.6633804  33.5734558  36.9599457   3.1345274  32.8387566  37.2710152
   3.4289191  34.2991829  37.5383759  22.1691227  32.3086357   1.8588120
  21.2702122  32.0566597   1.6473905  22.3746357  33.0069084   1.2371895
  80.6022949  25.3139019  67.8587265  81.0603180  24.7303009  68.4635849
  79.7227707  24.9429207  67.7877655   1.9383849  42.0560799  56.2047386
   1.2296983  42.4104271  56.7417984   2.7229290  42.5085335  56.5145912
  86.6915970  17.0343075  52.0173874  86.8920441  16.5083714  51.2431488
  85.9412384  16.5950089  52.4176483  69.8512268   8.8843317  55.5286331
  69.9541397   8.2639341  56.2502594  68.9707718   8.7168369  55.1925049
  81.1533279  27.7214050  30.4878654  81.3612213  28.6531010  30.5582333
  81.9481888  27.3249149  30.1311722  55.6436501  71.5678558   5.3385153
  55.1849174  71.4724197   4.5038362  55.0746498  71.1355057   5.9753356
  22.6086960  59.7457237  59.6964531  21.9139023  59.5477295  60.3243752
  22.4919930  60.6741753  59.4949722  25.3149338  13.9188385   4.2905898
  25.6752071  13.3409996   4.9632993  25.3930893  13.4186106   3.4782500
  70.5520325  59.0732765  14.6038513  71.3409729  59.5481834  14.3425617
  70.5265274  59.1573181  15.5570135  14.5800390  65.2937317  68.7226715
  14.9912205  64.5235519  68.3302612  14.3616304  65.8541794  67.9780731
  54.6000366  54.7329330  58.4379463  53.9555969  54.0335732  58.5466728
  55.4407310  54.3151131  58.6247330  19.4183178  65.3065414  16.2299309
  18.7953587  65.4450760  15.5165157  19.9314632  66.1140137  16.2600060
  78.4315567  54.8924446  13.7849293  78.5406418  55.7088547  14.2725849
  78.4053650  54.2128143  14.4584627  57.8312988   8.3561916   1.0957636
  57.9215775   7.4157591   0.9419159  58.4399300   8.5413990   1.8109543
   7.3993807  11.4889154  71.4717102   6.5419154  11.7767715  71.1584625
   7.8469524  12.2973633  71.7213593  74.2851791  27.6819706  78.2835007
  74.9727783  27.2970676  78.8269043  74.0213776  26.9749622  77.6946182
  55.4862061  30.0870419  15.1565809  55.1862526  29.8134823  16.0234280
  55.4831009  31.0435486  15.1928844  40.7948608  40.5321236  56.0801239
  41.4717331  40.7662849  55.4451103  41.0890312  39.6985435  56.4473381
  38.9417038  59.5757294  51.1785660  39.7922249  59.4355698  50.7623940
  38.3626709  58.9382248  50.7607880  24.5545864  52.6174660   6.8466525
  23.8409348  53.0164642   7.3443799  24.5658588  53.0966187   6.0180902
  57.8185844  42.5695381  75.8767014  58.1504669  42.0207176  76.5872574
  56.8899536  42.6857986  76.0775909  17.7542419  67.9298172  83.6051407
  17.8953419  68.4857101  84.3715057  18.0607986  67.0647583  83.8770294
  43.2240753   2.8874543  42.0607109  43.6270485   3.6616869  41.6677666
  42.4535294   2.7174037  41.5188904  79.1898117   2.4365189   4.6142411
  79.1390305   2.8414319   5.4800925  80.0329590   1.9833972   4.6108079
  67.3874207   8.6712704  18.8115768  66.5616837   9.1077528  19.0210323
  67.1284180   7.7999077  18.5117817   1.2655582  60.8851128  53.2696724
   1.9557528  60.3641624  52.8592186   0.4903452  60.3246269  53.2360497
  34.0669289  67.4547119  45.4757957  33.2453957  67.9453659  45.4518433
  34.7086983  68.0785828  45.8151398  28.9655399  23.6159859  66.7111359
  28.9985046  23.8114777  67.6475830  29.8501835  23.3196831  66.4970322
  56.9823456  33.9949455  27.1399174  56.4752274  34.1010399  26.3350525
  57.1516838  33.0544052  27.1940880  36.4201088  35.6065750  11.8269920
  37.0066719  35.5483780  12.5811758  36.9143181  36.1063461  11.1772070
  70.1651077  58.4469490  39.9709358  70.5009689  57.6466331  39.5673065
  69.3019791  58.5703888  39.5759544  11.1641035  30.0471897  23.0029011
  12.0464401  30.1970139  22.6633911  10.6676874  29.7304325  22.2482700
  83.6231613   5.8162069  83.8800659  84.3819962   5.2379055  83.9573746
  83.9964066   6.6965442  83.8361969  12.5336037  67.8094025  46.0220490
  13.4410324  68.1139679  46.0286369  12.0267124  68.5728683  45.7456207
  27.0500565  34.9396362  65.8392868  27.2436218  35.1369743  66.7557068
  27.5838776  34.1699715  65.6420975  54.1265106   1.2147557  15.3338451
  54.2563591   1.2890117  14.3884048  54.8383179   0.6471832  15.6295195
  30.9371567  69.9697571  67.2361526  31.7828636  70.1332550  66.8186874
  31.1591568  69.5905762  68.0865479  79.9266663  56.5823784  63.8136597
  79.1902390  55.9809227  63.7033958  80.6762466  56.0135727  63.9892159
  56.9375954  20.0728054  88.7371445  57.2545128  19.9258423  87.8459702
  56.3930931  19.3087425  88.9267654  47.2836609  24.8004780  65.6008911
  47.0041122  25.3796730  64.8919296  46.4675293  24.5020409  66.0022583
  39.0159149  33.7688789  81.5309906  39.3674278  32.8835831  81.6254501
  38.3748245  33.6978378  80.8237534   4.0712399  47.0242424  17.1010704
   3.5159202  46.8478050  16.3416481   3.7207849  47.8345451  17.4709663
   5.8237643  47.8449936   2.7887936   6.0061202  47.8131371   1.8496646
   5.8575897  48.7761688   3.0078933  61.6114998  37.0760574  55.6862640
  61.7746391  36.1378517  55.7831421  60.7259903  37.1293182  55.3267288
  69.8058929  30.6011047  79.0621643  69.0995636  30.8488083  78.4655304
  70.3251114  29.9664955  78.5682831   5.4069915  14.3812628  23.6680355
   5.5517793  13.7001104  23.0113010   4.4732575  14.5817318  23.6033478
  60.7455788  59.0516396  16.1307487  61.5656509  59.4620743  16.4050789
  60.4596634  58.5528221  16.8960361  84.4391174  48.8591728  20.3358078
  84.9446793  48.9818993  21.1392879  84.0957260  49.7294769  20.1336060
  46.5124016  56.3150520  78.8896027  46.4344711  57.2069702  79.2281952
  46.3162346  56.3952255  77.9561539   0.8384773  27.4902973  38.3026543
   1.7870147  27.5482731  38.4173164   0.5506328  26.8881874  38.9888344
  66.6125565  13.2348614   1.1699344  66.1643372  13.1167135   2.0074162
  66.1131668  13.9199734   0.7255661  80.2740784  53.6069412  25.9599209
  80.8042831  53.0694885  25.3714848  79.8242035  52.9753189  26.5210743
  15.1116495  10.9648380  77.3814697  14.2485895  11.3580751  77.2521439
  14.9622574  10.2618895  78.0137482  62.1007233  16.2867699  60.3087616
  62.5364685  15.6285849  59.7673264  61.6628914  15.7816420  60.9938736
  51.4116745  66.6188431  13.8302612  52.3243446  66.7291183  14.0969057
  51.1780357  65.7413635  14.1330528  29.6807709  22.0794353  62.9181519
  29.6682796  22.9112473  62.4446907  29.0609665  22.2036400  63.6369324
  15.3523235  36.8203354  66.4835587  16.2502327  36.9326935  66.1715240
  14.8682833  36.5160789  65.7158508  73.3598633  50.0445366  48.0199013
  73.5112000  50.0192108  48.9647255  73.0995178  49.1512947  47.7950134
  81.8711777  24.2042847  70.0075073  82.7184372  23.7724094  69.8985443
  81.5829163  23.9485569  70.8837128  44.8586807  21.3383770  11.0826178
  44.0296402  20.9407043  11.3486567  44.6082230  22.0193691  10.4583168
  72.1408539   2.8217108   2.9218521  72.5373688   3.6031518   2.5366807
  72.6638412   2.6488092   3.7046788  59.9587135  66.9156494  43.7472725
  59.5942993  66.2084885  44.2795868  59.2896042  67.0855255  43.0841980
  50.8673592  23.2188892  62.6391068  50.2494545  23.7903671  62.1832123
  50.3624306  22.8498325  63.3637276  74.1205978  58.9934349  81.5690460
  74.2860565  58.3078842  80.9218445  74.9880447  59.2218208  81.9031296
  35.1265984  68.2348099  75.1825409  34.7793350  67.3591385  75.3523560
  35.9194565  68.0824814  74.6683426  70.8336563  60.0812492   8.0673733
  71.0264511  59.5566978   8.8444862  71.4137573  60.8391609   8.1400270
  59.7676239  22.7127819  61.2532883  60.4068604  23.3880634  61.0261230
  58.9229355  23.0903587  61.0079918  75.8549881  16.8581238  88.5290909
  75.9665298  16.3377533  87.7334824  76.1830750  16.2959671  89.2309265
  63.0712585  68.7328568  59.9371910  62.9411736  68.6076660  60.8772125
  63.1941986  69.6767197  59.8360176  63.9423599  37.7936897  14.3358183
  63.3351173  37.0543594  14.3655481  64.7920227  37.3981018  14.1413612
  85.0811462  29.9328060   0.8254529  84.9753036  29.5611076  -0.0502580
  84.7475052  30.8266411   0.7481898  66.4604874  63.5180588  22.3203831
  67.2414322  64.0557709  22.1891308  65.7306747  64.0996552  22.1074314
  33.6883011  69.9553833  11.6991978  32.7384033  69.9966049  11.8097706
  33.8208847  69.9900970  10.7518597  20.6417656  55.7747612  67.9380722
  21.0167389  56.4801788  68.4653397  20.9513397  55.9495010  67.0493317
  29.0740337   2.4519734  47.5330429  29.9837551   2.1699226  47.6283607
  29.0063477   2.7387223  46.6223183  10.4024172  11.7485380  27.9817848
   9.5155344  11.4550734  27.7730980  10.2898378  12.6447935  28.2984600
  59.7594376  61.6802750  17.4379272  59.1814461  62.2209969  16.8996181
  59.1999969  61.3649101  18.1477184  19.5315990  27.0905914  10.6791897
  18.8568039  27.4221210  10.0867615  19.4423447  26.1385822  10.6350794
  85.6231384   7.7463026  25.8793926  85.0137405   7.0084252  25.8592434
  85.2148666   8.3780184  26.4714088  59.8921204  58.8122749  72.9916229
  60.4443817  59.0124512  73.7473755  59.9764023  59.5782433  72.4237976
  43.6378212  11.5848837  78.5390472  43.0460243  10.8616056  78.3319855
  44.3963776  11.1650562  78.9447250  15.8764029  71.2099152  49.7392921
  15.5641022  71.6739655  48.9625282  15.2069864  71.3762589  50.4029541
  31.6814232  18.3568134  17.0808201  31.0423603  18.2256393  17.7812672
  32.5097084  18.0532951  17.4523716  63.8386002  10.2874956  22.2310848
  64.7518158  10.0181408  22.3296661  63.5121040   9.7638798  21.4993343
  70.7273865  36.7114677  21.8772087  71.6715469  36.8657799  21.8458748
  70.6041336  35.8850975  21.4101391  49.5919991  54.1093483  28.7703819
  49.8821831  54.8200760  29.3421249  49.4623032  53.3659821  29.3592949
  38.7249489   6.7579751  39.3272476  38.9867592   6.7238040  40.2473106
  39.2802582   7.4376631  38.9452972  68.4850769  32.5495987  41.2502060
  67.5674973  32.4820671  40.9861641  68.9233627  31.8429279  40.7761154
  19.4090919   2.3569331  77.0701065  19.5012016   1.4245088  76.8743210
  20.2481289   2.6040497  77.4589310  24.2589951  29.9083099  71.0769119
  23.9125996  30.1823750  70.2277222  24.7523727  29.1101036  70.8880234
  80.1606750  49.1166458   8.9148407  80.7507248  49.5449867   9.5349989
  79.2977676  49.1766052   9.3247595  84.9610291  53.4761543  21.1658096
  84.5373230  52.8582726  21.7615681  85.6623611  52.9703865  20.7552338
   3.8179965  56.2227020  52.1931915   4.0773082  56.3273697  53.1086349
   3.2645867  55.4417076  52.1888123  66.2490387  67.4746323  71.5616150
  66.6299973  68.2721863  71.9290543  66.5422440  67.4669037  70.6504593
  54.3228836  54.4205322  34.4004288  53.8230629  54.5994873  33.6039467
  55.2374382  54.5244637  34.1377068  37.7433929  36.9530373   9.5881128
  38.6468697  37.2526169   9.6891508  37.2669601  37.7264137   9.2862263
  71.9137955  35.8782082  54.9386063  72.8451996  36.0917778  54.8828850
  71.8766937  35.1180038  55.5190735  16.5753517  57.4703941  27.0002632
  15.6743212  57.7206917  26.7959976  16.4961472  56.6167374  27.4259701
  56.8462524  16.7764530  10.8165197  56.7540855  17.7221355  10.9323845
  56.6376228  16.4084873  11.6751852  48.0412521  42.0614891   6.9504933
  47.3426170  41.8388481   7.5657735  47.7874260  41.6312447   6.1339803
  18.4802914  41.9628868  66.2492065  17.7813702  42.2690277  65.6712646
  19.1563263  42.6375580  66.1857224   7.2075686  19.2094879  60.3054199
   6.6142268  19.3671417  59.5710335   7.3503838  18.2630234  60.2990303
  83.8443985  42.4278526  79.0582352  83.7066040  41.5417328  78.7235260
  83.0351715  42.6360359  79.5251846  27.5162563  47.1744194  82.2093277
  27.9738693  47.0565872  83.0417557  26.9670105  46.3949738  82.1255188
  20.6018791  48.6085968  84.5208664  20.0275421  49.0424957  83.8899155
  21.1946278  49.2984810  84.8190918  55.2307053  48.7160263  28.6324863
  56.0076027  48.5434151  28.1006355  54.5607491  48.9764786  28.0003834
   0.6405357  54.8196030  74.0498276   0.1560074  55.2992363  74.7217026
   1.2767313  54.2983551  74.5395050  45.1215286  63.4134827  79.6628571
  44.9130440  64.3052673  79.3844833  46.0313492  63.2853203  79.3944550
   0.2152269  29.0416851  71.5462265  -0.2979013  29.8497181  71.5497742
   0.9764639  29.2437534  71.0022430  85.7595978  22.4642258  50.0553017
  85.4457703  22.4870358  50.9593048  84.9643478  22.3923588  49.5274315
  67.3161850  16.0077362  58.1126633  66.5749207  16.5446014  57.8324051
  67.8901367  15.9736748  57.3473816  75.1207047  68.4300919  31.2410984
  74.5602722  68.9478531  31.8190918  75.3633804  67.6660614  31.7641640
  77.6158295  38.4672394  37.5758667  77.3716812  37.5474129  37.4731827
  77.6134720  38.6114731  38.5221329  74.8990860   7.1057572  47.1337967
  75.2376022   7.7327700  47.7729340  74.0832062   6.7870965  47.5198402
  83.6406784  49.9431763  43.5924301  83.7181320  50.1435623  42.6596489
  84.5285950  50.0476036  43.9343758  56.5057831  68.9123535  41.9617043
  56.8821716  69.2501678  41.1490288  55.6863632  68.4976349  41.6919022
  84.8119659  67.5356827  18.0015106  84.9409714  66.5875854  18.0279980
  83.9458923  67.6487122  17.6098785  34.4409370  23.2623882  85.9714890
  35.0746956  23.7901001  86.4573898  34.8374138  22.3922710  85.9275284
  30.9935608  22.3343067  77.5597153  30.8509903  21.4940033  77.9953690
  30.8077812  22.9880924  78.2337189  81.1851654  29.2344227  49.3724480
  80.8434525  29.1731377  48.4804230  81.0948029  30.1596546  49.6005096
  58.9743080  64.2670441  72.3194580  58.5545464  63.6447029  72.9133682
  58.6978111  63.9887047  71.4463577  42.9317589  23.6719093  88.8260117
  43.5216331  23.9352875  89.5323486  43.2279282  22.7952843  88.5809784
  56.1526604  39.7261734  55.3057137  55.8086090  40.0900078  54.4899406
  57.0832558  39.5852737  55.1314316  63.9332123   0.2159982   8.1433926
  64.6592178   0.6577281   7.7029166  63.1704254   0.4061158   7.5972795
  78.3812714  51.3279610  17.0651798  77.8240738  50.8755836  17.6985188
  78.5367279  50.6805267  16.3775063  25.7824955  66.3156204  78.7883453
  26.4532318  65.9723892  79.3787231  25.9304943  65.8535461  77.9632339
  62.0152359  54.7135277  51.3686867  61.7410698  54.8799477  50.4668159
  62.9574623  54.8821831  51.3675804  61.3569107  45.1768188  73.5825500
  61.1798973  44.7106438  74.3996048  61.0635986  46.0725479  73.7494736
  60.6884041  35.6945877  81.8293228  61.4745255  35.7944107  82.3662415
  60.5745125  34.7479286  81.7450867   3.8984883  24.6843109  51.9940948
   4.3204904  24.5428085  52.8415184   3.0983450  25.1665478  52.2025375
   5.8151379  49.5982323  32.7877960   6.5634956  49.0733261  32.5037804
   5.1957421  48.9602242  33.1420937  34.6135368  52.7575912  18.6577740
  34.9911766  53.6332436  18.7405834  34.7088966  52.5423927  17.7299652
  20.1563625  65.7110672  28.1449757  19.3671951  66.1810913  28.4142704
  20.8690624  66.1586304  28.6010189  64.4619446  10.1146927  78.1558456
  65.1296234  10.1014748  77.4700928  64.0468216  10.9728527  78.0694504
  61.6376839  69.6009445  85.1034470  60.9074020  69.5776596  85.7218170
  62.4132042  69.7147141  85.6528625  79.5932770  33.9319191  27.0024185
  79.5617905  33.1874084  26.4016323  80.1618347  33.6405983  27.7152328
  65.3734207  33.2716942  33.1524734  65.1517639  33.5975914  32.2801819
  64.7798462  33.7386208  33.7405815  63.1477585  31.6830502  29.8114738
  63.6425972  31.6064186  28.9956989  63.0113029  32.6240807  29.9213390
  75.5085602  54.9818878  54.0074272  74.7338943  54.7457199  53.4971809
  75.3848953  54.5415649  54.8482933  51.7800255  61.3363876  77.1314316
  52.2659760  60.7342072  77.6948776  52.3160324  61.4109077  76.3418961
  86.0733185  27.0753994  44.7509804  87.0074844  27.1901398  44.9253616
  85.9339981  26.1299210  44.8047523  52.1491699  52.8545723  37.7706680
  51.1950226  52.9289970  37.7535858  52.4457626  53.4113121  37.0507355
  15.3637266  59.5123940  52.4732780  14.5226660  59.0872650  52.3056068
  15.8569746  59.3961182  51.6612358   8.7696142  21.1205139  45.3229561
   8.2424927  20.4557285  45.7661705   8.1347418  21.7757626  45.0334435
  67.8270874  35.9386177  54.7148209  68.2874298  36.1134262  53.8939934
  66.9270630  36.2192039  54.5491219  49.1228600  35.7023430  24.4997749
  49.0297470  36.5884666  24.8495522  48.2350121  35.4506569  24.2455864
  71.0937347  12.7909155  39.4269409  71.1078033  13.7305126  39.2447586
  70.5797653  12.4159441  38.7117729  15.6375723  10.6589785  24.5039425
  15.1627884  10.4650269  25.3121471  15.0381575  11.2096891  24.0003052
  30.7134933  37.0186729  68.3946686  31.4278584  36.9761772  69.0303650
  31.1511288  37.0397186  67.5436325  62.7222672  32.1668243  43.4396019
  62.0858574  32.1517258  44.1544342  63.2208176  31.3566132  43.5456238
  42.8381882  57.0284462  76.9341049  43.3819923  56.2712097  76.7170792
  43.4025764  57.5817680  77.4740448   6.2146268  42.3841934  67.5634308
   5.8762951  42.8700409  68.3155746   5.6604648  42.6579132  66.8325348
  63.7873077  56.2898102  18.8459606  63.5795135  57.1195641  19.2755661
  63.7545471  56.4896774  17.9104328   4.7011075  64.8669510  67.1352386
   4.4588785  64.2230530  66.4696960   3.9329357  65.4328918  67.2117538
  25.0935478  59.0466080  16.4974480  24.7140961  58.8823051  15.6341677
  24.5748196  59.7678566  16.8537502  44.0619888  21.8024998  66.8750839
  44.4713287  22.4067936  67.4943542  43.1218948  21.9198647  67.0117416
  19.5088959  47.2911377  63.5547905  19.3779182  46.4164963  63.1886215
  20.3136845  47.2179642  64.0678101  78.0625076   2.0387893  54.2547646
  78.2209396   1.4201602  54.9678078  77.7976303   1.4903853  53.5163002
  23.4620304  41.4127121   3.7827442  22.8930569  40.6725464   3.5714192
  23.6683350  41.2989807   4.7105021  52.4996872   1.5557575  26.4636097
  53.0781288   2.2990749  26.2929707  52.4486084   1.0948485  25.6262398
  10.2393246  54.0382957  88.2333755  11.0386019  53.6676979  88.6075974
  10.5465651  54.7401581  87.6595917  26.7789536  45.8548431  58.8291130
  27.0011730  44.9520874  58.6013412  26.4317513  45.7987213  59.7193565
  11.4855957  27.7496395  64.8709488  12.0557032  27.2388554  64.2962265
  10.6058874  27.6117516  64.5197601  61.2665100  34.0284996  11.0150995
  62.1949005  34.2395973  11.1138811  61.0046921  33.6927452  11.8723936
  84.6219254  34.2326126  55.8551445  83.8104935  33.9538193  56.2795181
  85.1896820  34.5016899  56.5772781   3.5935590   5.9002709  86.4980087
   4.5293641   5.8289495  86.3098221   3.5441864   6.4974885  87.2444153
  15.6531420  66.3818665  26.5101089  15.8722467  65.4836807  26.7580814
  15.7639847  66.4017258  25.5595551  73.1746216  12.2697353  88.3697586
  72.7272339  11.6829672  88.9794922  73.0803299  13.1384287  88.7605438
  86.1487579   8.2093477  18.5075703  86.7960587   7.5668817  18.7982159
  85.4888687   8.2150087  19.2009277  58.1052284   3.9061501  72.7859802
  57.4723091   4.4087725  73.2988281  58.7136765   4.5625191  72.4465714
  78.7381439  58.0226784  53.7320786  79.2141495  58.1627007  54.5506401
  79.3813553  58.2043762  53.0468826  10.4430075  36.8708420  12.7273922
   9.5072327  36.7805977  12.9074268  10.6972485  37.6756744  13.1788740
  52.1934662  26.0543537  67.4813385  52.2017746  26.1429234  66.5282822
  51.2646751  26.0300159  67.7115326  69.0629272  71.6358566  74.9488297
  68.4381866  72.1208878  74.4096832  69.0025940  70.7343063  74.6329117
  69.5019608  53.0757828  46.7394791  68.5893402  52.8138847  46.6179962
  69.9904861  52.5378304  46.1164360  82.9783630  46.6247215  39.1175499
  82.3913422  46.6266937  38.3614807  83.5697174  47.3614807  38.9635658
  71.7940750  18.6682777  75.0178757  71.4061356  19.2228928  75.6947327
  71.3622818  18.9409256  74.2082748  72.2137833  27.4152775   7.7041497
  72.4518509  26.7097607   7.1026506  71.3837814  27.7498055   7.3644133
   2.2171147   3.6837783  83.2417603   3.1172056   3.8740737  83.5060654
   2.0280809   4.3248482  82.5565414  71.4561615  53.9282494  85.0098038
  71.6340485  52.9892731  85.0637283  72.0628510  54.2490234  84.3425217
  82.9653625  68.5368423  59.0396080  83.3776779  68.8122940  58.2208557
  82.9294205  69.3332214  59.5694427  19.5098801  46.5184746  33.9092827
  19.1310158  46.2071724  34.7313461  18.9213047  47.2172508  33.6237564
  41.7789192   5.2786860  80.2970047  42.3249512   4.7410054  79.7234421
  40.8813782   5.0340395  80.0716019  59.7448425  61.2503281  82.4611130
  60.4868088  60.9224548  81.9529648  59.4552803  62.0296097  81.9866562
  16.6526184  28.0705090  72.1863480  16.7229061  27.4448967  71.4653091
  16.0878429  28.7647800  71.8468704  43.0037956  52.8734207  54.5921288
  42.3473740  53.5105782  54.8738594  43.3576889  53.2370720  53.7804947
  49.7288780  42.8426514  63.8113441  49.6382980  42.4782333  62.9308739
  49.7787437  42.0769157  64.3835297  73.3953552  64.4413605  47.3500900
  73.0325241  63.7770882  47.9360313  72.6865387  65.0748138  47.2380524
  13.5550976  18.7331505   9.2173500  12.9093523  18.5284519   8.5410786
  13.0656347  19.2291298   9.8735991  43.6190605  58.8974991   3.3686352
  43.1530037  59.7328300   3.4038632  42.9520645  58.2618484   3.1092250
   7.2597113  38.6316795  10.1629963   7.3034406  38.7449760  11.1124611
   8.1458721  38.3711929   9.9118023   9.6133728  41.5234833  86.3850250
   8.8165426  41.5057030  86.9151001   9.4131918  40.9662704  85.6329117
  33.1519890  15.7814226  73.0297241  33.4707146  16.0447292  73.8930359
  33.3358650  14.8432417  72.9824219   5.3308740  61.4353867  46.2303162
   4.8337550  60.6338387  46.0671425   6.2439604  61.1830482  46.0930939
  23.2758636  27.9521694  85.6166229  22.7845306  28.3066216  84.8755569
  23.8118153  28.6845493  85.9209442   7.8479638  19.6216068  25.8310814
   7.0947189  19.9404030  25.3338661   7.7034144  19.9468155  26.7196636
  60.9711227   3.5516624  68.7327347  61.0411110   2.9298968  69.4571228
  60.9734116   3.0051196  67.9469147  17.8449135  26.8643627  87.1621323
  17.8639202  26.1274605  86.5515213  18.7087154  27.2679691  87.0774002
   9.6879807  47.6225548  69.8283386  10.6125402  47.8665962  69.7851562
   9.3881168  47.9679451  70.6691818  55.2468567  57.9332275   2.2917531
  54.4024811  57.6073723   1.9801829  55.1940269  58.8822060   2.1782603
  55.3265762  14.1491318  16.1446514  54.4828300  13.7753925  15.8903913
  55.8182487  14.2097635  15.3256197  86.2335968  34.1730652  85.1612625
  86.1842422  34.7323494  84.3860245  85.3209686  33.9795952  85.3755188
  66.2998581  32.0148697  13.8460588  66.2519836  31.1869297  14.3240271
  66.5190659  31.7614708  12.9494162  76.2243805  61.3474731  16.1096191
  75.5697632  61.8161469  15.5918770  76.1896896  60.4485512  15.7825556
  70.3138733   4.2441072  65.9120407  69.6142731   4.7369380  65.4831848
  70.9522781   4.9092188  66.1695175  44.8973160  47.3579254  40.9282379
  45.2311287  48.2547607  40.9503746  45.6607628  46.8235283  40.7096100
  21.4356995  55.9265556  53.4746246  20.8560505  56.6496544  53.2351151
  21.2626095  55.2529221  52.8169823  28.5275631  49.1388893  74.6276093
  28.2604961  49.6490097  73.8629608  29.4758358  49.0470734  74.5349731
  57.7741051  30.1129799  87.5281143  57.7608604  30.5412655  88.3840561
  57.2909584  29.2973976  87.6608810   7.7771945   9.5254354  12.8917770
   8.4886198   9.2531757  13.4714155   8.2137461   9.9948740  12.1809454
  43.7210045  36.3977394   8.1872368  44.4880638  36.0722923   7.7161379
  43.2482567  36.9227867   7.5414290  36.7324562  41.0615692  75.2672424
  37.5882072  41.0911674  75.6950760  36.2490196  41.7949409  75.6476135
  82.2196884  23.1263924  79.9652328  81.6513748  22.4315395  80.2975464
  82.8448639  22.6741180  79.3988113  69.5017395  17.7083797  72.0209656
  70.3366470  18.0528946  71.7039948  68.8504410  18.3393745  71.7145538
  52.5602798  39.0466309  84.6182861  51.7532501  38.9464340  84.1134109
  52.2741890  39.4046669  85.4586334  30.3070164  26.9631386   6.3047566
  30.8025837  26.1547108   6.1740255  29.4393177  26.6698627   6.5828195
  49.5413704   1.9513563  78.9986267  50.4969826   1.9651833  79.0519714
  49.3169518   1.0215508  78.9621735  13.9916515  32.5307083  16.8851719
  14.1497316  31.7201443  16.4011993  13.1486425  32.8445282  16.5579338
  34.1172638  63.6309090  36.3046265  34.2602730  63.4652748  35.3727760
  33.2938080  63.1852608  36.5034943  64.3397903  42.7853775  34.4411201
  64.0898209  42.4084053  33.5975342  65.1333160  42.3112526  34.6896172
  60.4951668  53.2601395  58.6705856  60.3316002  54.1477928  58.3519211
  60.0138626  52.6959152  58.0654144   4.8640428  33.2494278  21.6790886
   4.8871288  33.1930885  20.7238274   5.7317057  33.5732994  21.9209538
  78.9921951  25.3435040  10.0073280  78.5444031  25.6057014   9.2029848
  78.2870941  25.0833092  10.6000834  29.9386826  32.2416496  58.1666946
  29.9759579  33.1939621  58.0775757  30.6249809  32.0333672  58.8006096
  66.3038101  25.6077251  72.7077026  67.2157898  25.8813171  72.8061142
  65.9041519  26.2941246  72.1735077  28.3004818  46.0123711  56.0523453
  28.4704094  46.9015770  55.7414360  27.8894062  46.1324234  56.9084053
  17.3394337  20.0216904  21.8272171  17.7068176  19.8929062  20.9527607
  17.8232956  20.7670746  22.1829014  20.2622051  46.6638374  44.9715958
  20.1553059  46.4225693  45.8917007  19.4201622  46.4515648  44.5689354
  85.0511703   7.8501081  49.9371033  85.5112915   7.2927904  50.5647316
  84.1602554   7.5008225  49.9148064  59.9396400  35.5867996  68.4246521
  59.5793648  34.9145927  69.0030670  60.1142006  36.3305473  69.0013657
  65.1705170  30.5578270  56.7906151  65.1694336  31.2668190  56.1475296
  65.7356033  29.8872623  56.4068794  71.1702805   1.8666004  20.8351707
  70.2970047   1.8748112  20.4433250  71.7404709   2.2290256  20.1571083
   1.1555297  41.0235596  23.0050926   0.7744417  40.2312775  23.3836327
   1.4507790  41.5318527  23.7605362   4.2761130  66.2087402  81.2560959
   4.4250550  66.8179932  81.9791870   4.1865525  65.3540344  81.6776352
  40.3525124  61.1913910  73.7632751  40.2635651  60.3477135  74.2065887
  39.8662758  61.8042259  74.3148575  78.0999603  55.6561584  11.2560081
  78.2014313  55.5322075  12.1997089  77.5005264  54.9603996  10.9861393
  70.2396545  52.0591049  18.8629398  70.3876495  51.6126747  19.6966228
  69.6319046  51.4897957  18.3909702  82.8570175  63.0642242  11.7471199
  83.4609146  62.9703140  12.4838171  83.3914566  63.4355087  11.0451527
  18.1810646   1.8000625  37.1587143  17.6525173   1.6710551  37.9462585
  17.5451736   2.0132413  36.4757614  21.7221928  60.2651672  86.8050919
  21.4368305  59.7631416  86.0417023  22.5376873  60.6818428  86.5265579
  80.8051834  24.8322659  53.2019844  81.4164352  25.4372749  53.6221848
  80.0880966  25.3888016  52.8982124  82.4585114  17.1148148  21.6214809
  82.0407104  17.2250023  22.4756069  82.8917770  16.2629585  21.6748943
  64.8402176  40.3787613  43.0786057  64.3797989  39.5416260  43.0198517
  64.6965256  40.6684265  43.9795380  61.0819702   8.8032951  17.3540649
  60.1890488   8.4628668  17.2990208  61.4022598   8.7824564  16.4522820
  61.3304100  54.3114319  11.4654360  61.0611725  54.6912079  12.3018055
  61.8258057  53.5286064  11.7062597  52.8092117  30.9302425  69.9111099
  53.0230560  31.6116028  69.2737274  53.0443916  30.1115284  69.4744949
  54.2131538  22.3383083  27.9041672  53.3550797  22.6075974  28.2319279
  54.0201912  21.8342896  27.1136227  69.4510193  30.0407314  12.0598269
  69.3053818  30.0850468  13.0048428  70.3994141  30.1227303  11.9595470
  54.0710182  51.3788414  57.7865257  53.5016708  50.9146690  57.1728325
  54.9533730  51.0784378  57.5687218  85.1222687  52.3198166  68.3023911
  85.9893112  51.9818115  68.0782852  85.2890854  53.1965370  68.6484680
  21.1617966  59.5555573  81.4554749  21.4085579  60.3555565  80.9914246
  21.8401737  58.9228363  81.2194672  86.0236740  25.0887470  47.8715210
  85.9049988  24.2666187  47.3958626  85.1340485  25.4052525  48.0284271
  53.0536308   1.6517330  19.7505169  53.0308952   0.9829480  20.4349461
  52.6413345   1.2344644  18.9941235  13.3254032  45.3319817  57.3909607
  12.7919312  45.3750305  58.1845512  12.7398863  45.6247025  56.6925926
  59.6015358  43.8159256  86.3684616  59.6294746  44.6980515  86.7390060
  60.1859131  43.8555412  85.6113815  23.8669987  14.6520929  88.0765610
  23.3881092  15.4360600  87.8076935  24.7869091  14.8702593  87.9269028
  15.5014105  54.3345871   6.6377292  15.7689848  53.4426079   6.4163470
  15.1169882  54.2595253   7.5111232   4.4633727  39.2130127  41.1913033
   5.1378107  38.7619247  41.6991234   3.7505808  38.5778770  41.1223183
  83.0024338  68.1321487  66.7562180  83.1470032  68.1218567  65.8100586
  83.8778992  68.2278290  67.1312485  58.5713806  17.9504070  76.5848007
  58.9149551  17.3656540  77.2602692  59.0635796  17.7210979  75.7965164
  47.2661324  59.3605919  79.3952179  47.6425629  59.8653679  80.1161423
  47.7741928  59.6235809  78.6277924  49.3188286   0.6263648  33.2130165
  49.3934021  -0.2098754  33.6727676  48.7145081   0.4501796  32.4919128
  61.9022179  68.0063934  82.9163208  61.7320518  68.6380234  83.6151199
  61.7937469  67.1520233  83.3340759  17.9988251  54.9908638  66.5247116
  18.4508915  54.5883904  67.2662506  18.1264381  55.9314423  66.6482544
   3.3350251  40.6521416  18.3650703   2.8299363  40.1436577  18.9995480
   2.7256253  41.3223419  18.0557175  35.5512085  35.5632820  66.4047394
  36.2211685  35.9500465  65.8410034  35.3820534  34.7031593  66.0202866
  10.0857954  21.4712811  82.9960480  10.6390724  22.2224808  82.7819977
  10.6634560  20.8771420  83.4751434  38.2127190  13.3644161  84.8742294
  38.7302055  12.5915470  84.6481476  37.9889946  13.7579613  84.0308456
   9.2681198  31.2216053  87.0245056   8.4413309  30.7577877  86.8921204
   9.6039820  30.8806000  87.8534470  71.3300934  15.2371283  38.7376137
  70.7406464  15.9908915  38.7126160  72.2075653  15.6180010  38.7027283
  75.3530273  51.7545967  28.8636284  75.9490509  52.4916992  28.9965343
  74.7136688  51.8328934  29.5716686  62.9274559  44.6133537  11.5725412
  63.5762825  44.0317993  11.1762438  62.6831627  44.1783485  12.3894386
  86.2342300  38.5058403   3.5431166  86.3417664  38.9231224   4.3978357
  85.7573395  39.1503525   3.0202308  32.5346375  63.6973152  57.8689003
  32.2432480  63.6905785  58.7806473  32.6796303  62.7751999  57.6569748
   9.3621550  16.4442654  85.7035065   8.9967079  16.8958817  84.9427643
  10.1664639  16.9233799  85.9029236  44.8350525  70.4346695  74.3549957
  45.2591362  69.7813416  73.7986298  43.9489555  70.5116577  74.0012436
  55.7866516  33.7087631   0.1573569  56.6418266  34.1373215   0.1221525
  55.3015480  34.1964912   0.8229603   6.7421803  27.9293194  62.6041489
   6.8172231  27.1701508  62.0259972   6.3110161  27.5910263  63.3889351
   6.1342316   2.8362958  22.2751694   5.6264915   2.1501241  21.8420410
   6.9157634   2.3880451  22.5984516  52.4003792  38.7109642  40.9426079
  52.8672676  39.3373184  41.4957123  51.6099586  38.4965820  41.4380951
   0.2317753  14.1446724   2.6513493   0.8539033  13.8192844   3.3019731
   0.1619715  15.0816269   2.8343124   6.8357620  25.4452000  70.8781433
   6.6124897  26.2221413  71.3907318   6.1319880  25.3732777  70.2333527
  61.9209709  12.5850592  57.4939690  62.6561089  12.1755190  57.9501305
  62.3238564  13.0543728  56.7634468  73.1464767  11.9955311  83.8339615
  73.1966248  11.6949453  82.9265671  72.2703629  11.7401228  84.1228104
  68.3418427  61.3936157  63.8454094  68.9754639  61.5612373  64.5430222
  68.8552399  60.9845657  63.1487503  76.5898438  39.6576653  86.1797638
  76.5813904  38.9839287  86.8596497  76.7838364  40.4690704  86.6490479
  19.9863968  12.6528149  86.8801346  19.7469254  13.4408846  87.3678131
  20.9235115  12.5457582  87.0431900  21.4080467  67.0522232  16.2833862
  22.2984047  66.7995834  16.5276470  21.5202675  67.6131516  15.5159206
  83.6650009  11.9944754  85.6853333  82.9006882  12.5645933  85.7691498
  84.2766342  12.4920979  85.1426468  56.1891022   7.9037848   4.3468285
  56.0266762   7.5307736   5.2132654  57.1419258   7.8926754   4.2560639
  43.8406143  30.4903736  59.8166389  43.9534302  31.4373627  59.8985863
  44.0982933  30.2955532  58.9155998  64.9683075  57.8094063  22.8056393
  65.4328003  58.3471031  23.4470062  64.9484177  56.9353600  23.1953564
  20.6226234  36.3756409  77.5592041  21.3547535  35.8048744  77.3258743
  20.2941837  36.0186729  78.3843918  58.3684158  34.1536522  38.0081215
  59.2199020  34.2108345  38.4416351  57.7725449  33.8444443  38.6904449
  76.9079514  16.8650208   2.9336920  76.9867477  16.1553535   2.2962019
  77.3568726  16.5377216   3.7131648  15.4350929  58.7510338  48.7475700
  15.1596203  57.8387566  48.6576157  15.4034767  59.0997314  47.8567047
  67.4360580  39.9175148  50.7199860  67.4453964  39.0696831  51.1641998
  68.3584213  40.1093597  50.5506477  30.0313511  49.8088608  57.4228592
  29.8502350  49.1168709  58.0589256  29.4890423  49.5864983  56.6660957
  33.0269737  49.0936012  20.4701290  33.2879524  49.3432770  19.5836849
  33.7435837  48.5423355  20.7844658  35.0728416  26.1183567   1.8740149
  35.1461830  26.9644737   1.4324967  35.1308670  26.3287029   2.8060124
  48.5810318  33.4390450   8.1824722  49.2718010  33.6147423   8.8213797
  48.3845215  32.5086555   8.2919512  78.1166382  41.0724525  27.9181995
  77.2874756  41.3613091  28.2993584  78.1556015  40.1357498  28.1113319
  38.1472893  60.1136932  65.8909454  38.2112961  61.0596313  65.7592697
  37.2782707  59.8843002  65.5616837  24.2998905  70.7026672  25.6080017
  24.3464928  71.5673447  25.2000999  23.3924026  70.6253586  25.9024925
  85.1771164  44.8521767  54.8206177  85.1832504  44.1813583  54.1378326
  85.7403488  45.5467033  54.4790916  74.5800171  20.3381348  74.0450134
  74.7291565  21.0266647  74.6930237  73.7560806  19.9313259  74.3131027
  86.7084901  71.5431232  89.0671070  90.0000000  90.0000000  90.0000000
