QMMM reactant CHA#2 frame 34991
 55680
  35.3028145  43.6734619  45.4867249  36.2297516  44.0743027  45.4719925
  34.5479126  44.2719536  45.7900963  35.2376289  42.8302841  46.0389023
  34.9693871  43.4304619  44.1069756  34.3876801  44.2435341  43.6726608
  36.2361679  43.1654053  43.2687759  37.0178375  43.8541145  43.5893517
  36.5686798  42.1329994  43.3768158  35.9556160  43.3544464  41.7993240
  35.0082130  42.8639755  41.5757790  35.8158493  44.4279022  41.6718292
  37.1364441  42.9130020  40.5286407  38.5164528  43.9126892  41.1415634
  38.1816292  44.9478226  41.0744591  38.7451324  43.5892563  42.1570396
  39.3346329  44.0151672  40.4286880  34.1269379  42.2186928  44.2243042
  34.4443512  41.3363647  45.0465813  33.0152435  42.1736412  43.5468292
  32.8448944  42.8321495  42.8002052  32.0235939  41.0963936  43.4996605
  31.7365036  40.9894829  44.5457268  30.7341156  41.4944229  42.7179031
  31.0078297  41.8137131  41.7122993  30.1297646  40.5910034  42.6361084
  30.0386772  42.5729675  43.4164009  30.6366749  43.4812813  43.4903183
  29.8059464  42.1116714  44.3761635  28.4271774  43.1178055  42.7642403
  27.9897175  44.4309273  43.9138222  28.8632011  45.0799294  43.9765282
  27.9215336  44.0695076  44.9398956  27.1266594  44.9799080  43.5371895
  32.5897064  39.8473320  42.9309425  33.4942589  39.8733406  42.1045952
  32.0541496  38.7275963  43.3670845  31.2556438  38.7329369  43.9855194
  32.4803925  37.4375191  42.9558144  33.3324738  37.6494675  42.3099556
  32.8706169  36.5505943  44.1570587  32.0651665  36.6163483  44.8885117
  33.0075035  35.1484413  43.6288338  33.8338280  35.0075836  42.9320984
  32.9387703  34.5081406  44.5082626  32.1211510  34.8431473  43.0727005
  34.1901627  36.7954330  44.8751068  34.4349861  35.9636765  45.5356750
  35.0402565  36.8594551  44.1958847  34.2489815  37.9627838  45.8126106
  35.1044617  37.8530121  46.4790955  34.3500824  38.9421120  45.3448524
  33.4510994  37.7899437  46.5348358  31.3753624  36.9347000  42.0017624
  30.2031593  37.0971527  42.3229485  31.7657566  36.4688148  40.7993813
  32.7155647  36.5726776  40.4720039  30.9533920  35.7347260  39.8476295
  29.9971790  35.5621643  40.3415794  30.7267551  36.5941429  38.5523529
  31.7361622  36.8703957  38.2475853  30.3452797  35.8726463  37.8298416
  29.6952572  37.7806549  38.6995201  29.2267151  37.9618454  37.7321854
  28.8609180  37.4477310  39.3168907  30.1838722  39.0922203  39.2131081
  30.5658360  38.9504318  40.2240982  30.9586811  39.4656487  38.5435410
  29.0243549  40.0222130  39.2121964  28.1455097  39.6175232  38.9224396
  29.1011410  41.3253708  39.0323181  30.2270947  41.9978638  38.8623886
  30.1639194  43.0036201  38.7947693  31.1316719  41.5569992  38.9488564
  28.0299778  42.0171356  39.0912628  27.1616688  41.6842537  39.4853821
  27.9962425  43.0138588  38.9315796  31.4722919  34.3187523  39.5409279
  32.6567421  34.0651436  39.6763191  30.5883522  33.4012985  39.1662560
  29.6185131  33.6515427  39.0362930  31.0464249  32.0323219  38.7479515
  32.0513039  31.9065285  39.1510620  30.4163322  31.2709942  39.2078056
  31.1002235  31.6384525  37.2566299  30.4935894  32.3322639  36.4870949
  31.7919483  30.5972652  36.8086929  32.1921730  29.8909168  37.4095192
  32.1662178  30.1946583  35.4102669  31.4203358  30.7087803  34.8041000
  33.5146904  30.8481598  34.9055901  34.3488541  30.2507973  35.2735939
  33.5921173  30.6384525  33.3927803  34.4850540  31.0783043  32.9485893
  33.5892754  29.5567799  33.2583389  32.6989746  31.0643921  32.9356537
  33.8410072  32.3457413  35.3194008  32.8955612  32.8881035  35.3104858
  34.0854530  32.2762756  36.3793640  34.9898453  33.1825790  34.6714401
  35.9368935  32.6508064  34.7631760  34.8297386  33.2952499  33.5991631
  35.0445900  34.1431808  35.1836395  32.0540466  28.6708260  35.2221527
  32.4569931  27.9458790  36.1280632  31.4528084  28.1650887  34.1205177
  31.3105850  28.8291321  33.3729095  31.1898479  26.7635708  33.8086510
  31.6250744  26.1738491  34.6154404  29.6711407  26.5681095  33.6786232
  29.2154617  27.2729168  32.9831314  29.4779568  25.6225777  33.1719170
  28.7526760  26.5046864  34.8604431  28.8763466  27.4358082  35.4134521
  27.7402287  26.3710384  34.4794121  28.9723663  25.3063698  35.8414116
  29.9306335  25.4853268  36.3290558  28.1570129  25.1337452  36.5439148
  29.1271553  24.0922451  35.1251259  30.0696850  23.7422886  35.0288467
  28.2187195  23.3955288  34.4904060  26.9707565  23.4420395  34.8290863
  26.7097492  24.1391926  35.5116920  26.3425198  22.6909199  34.5816193
  28.5834999  22.5771427  33.5561905  27.8208427  22.1535549  33.0472450
  29.4662857  22.7445049  33.0949059  31.8390331  26.3594875  32.4906960
  32.0000229  27.0992870  31.5670624  32.1814156  25.0778084  32.4493675
  32.3310356  24.5379047  33.2897339  32.5936699  24.4337330  31.2038555
  31.9604015  24.7270050  30.3665562  33.6403122  24.6208935  30.9638348
  32.5713844  22.8656178  31.1529064  32.6146965  22.2843380  32.2060928
  32.6212730  22.3091450  29.9387932  32.7454453  22.8994961  29.1287537
  32.6387672  20.8603783  29.7690315  33.3178864  20.4331608  30.5068550
  31.1944141  20.3048763  29.8301964  30.7939701  20.6166115  30.7948570
  30.5803452  20.4860592  28.9480438  31.2601452  19.2168713  29.8353710
  33.1600914  20.3703747  28.4035435  33.3137360  21.0736523  27.4153118
  33.6411171  19.1018295  28.4002972  33.6643295  18.6497459  29.3031712
  34.3521080  18.4216175  27.3479576  33.9528999  18.7181969  26.3780212
  35.8165398  18.7554131  27.4110527  35.8490562  19.8395920  27.5187607
  36.5766907  17.9893055  28.4794331  36.6365852  16.9331741  28.2165718
  37.5116272  18.5482216  28.5194988  36.0080757  18.0795765  29.4049759
  36.3702507  18.3164978  26.2110615  37.0864258  18.9462090  26.1008015
  34.1089516  16.8431053  27.3488541  33.4662857  16.3531151  28.1906109
  34.6562042  16.1463375  26.3402290  35.2472572  16.7060070  25.7422943
  34.5319252  14.6829290  26.2039642  34.3229980  14.2907724  27.1992912
  33.3416061  14.2433252  25.2359810  33.2573929  13.1639271  25.1098461
  32.0157509  14.7477007  25.7513618  31.7793770  14.3170309  26.7243729
  32.1160889  15.8320084  25.7994232  31.1789532  14.5534697  25.0804253
  33.4253616  14.7765217  23.9848957  34.1458168  14.3373356  23.5270081
  35.7791977  13.9132004  25.7163944  36.8076286  14.4612246  25.3050117
  35.7258911  12.6058197  25.9569702  34.8645821  12.2656155  26.3600960
  36.7819862  11.6349678  25.6520462  37.3442307  12.1132622  24.8500404
  37.7975502  11.3745279  26.7824650  38.6824646  10.9668674  26.2937489
  38.4255409  12.6313457  27.3157845  37.7305145  13.1674471  27.9620247
  39.3227997  12.3761272  27.8796062  38.7091064  13.2453127  26.4609547
  37.3201942  10.5238962  27.9201908  37.0795326   9.4928112  27.6612568
  38.1192970  10.4602594  28.6587601  36.5399475  11.0719004  28.4484005
  36.2273903  10.2585325  25.1665192  35.0881882   9.9275150  25.4353313
  37.0007095   9.4563646  24.5003948  37.9360847   9.8086081  24.3551559
  36.6797295   8.2499495  23.8155880  35.6008873   8.1943502  23.6702995
  37.3236427   8.1371002  22.4630795  38.3696747   8.2740221  22.7372475
  37.2137680   7.1279430  22.0660534  36.7894859   9.1878281  21.4396210
  37.3232460  10.1321945  21.5462780  37.0712509   8.7939911  20.4630947
  35.2491951   9.3074312  21.4631424  34.5766869   8.3276787  21.2803383
  34.6730804  10.3698378  21.8123837  37.1449890   7.0182548  24.6603489
  36.6161232   5.8968859  24.5909138  38.1897621   7.2097125  25.5141392
  38.6003189   8.1324043  25.5277348  38.7621155   6.2476659  26.3270187
  37.9129181   5.6610394  26.6774902  39.8097343   5.4005022  25.5054073
  40.0867729   4.5088553  26.0678291  39.4382858   5.1800885  24.5046349
  41.0296326   6.2667675  25.1992950  40.6125870   7.1277194  24.6768608
  41.4799194   6.6664162  26.1079311  42.0753975   5.5046577  24.4092178
  42.6320763   4.8393688  25.0692234  41.5890541   5.0278435  23.5582066
  43.0220909   6.4111996  23.7456055  42.7189789   6.9851027  22.9717445
  44.3225441   6.4518232  23.7956963  45.0849724   5.5062594  24.3270969
  46.0919609   5.5790381  24.2990856  44.7544823   4.5892835  24.5917301
  44.8231316   7.5149045  23.2627907  45.8326759   7.4858298  23.2543373
  44.2693825   8.3505135  23.1394100  39.2244530   6.9141278  27.6633835
  39.5743942   8.0567760  27.7475967  39.3631058   6.0066414  28.6660938
  39.0795860   5.0625668  28.4460011  39.5344238   6.3293195  30.0670357
  39.0518799   7.2935929  30.2265034  38.9077263   5.3179851  30.9800797
  37.8915558   5.1966934  30.6048641  39.4261665   4.3635535  30.8885155
  38.8126984   5.7452149  32.5148125  38.7477493   6.9577422  32.8563690
  38.7828598   4.8242497  33.3664703  41.0708466   6.3307276  30.3985767
  41.6275520   5.2881618  30.7484264  41.7436218   7.4973831  30.3626633
  41.2315407   8.3609924  30.2528915  43.2565308   7.5492640  30.5310459
  43.4972572   7.2335663  31.5461750  43.9026604   6.7980423  29.3803902
  43.7536659   5.7188034  29.3465538  43.4886742   7.2934403  27.9824390
  44.1026688   8.1392546  27.6730728  43.7191505   6.5853033  27.1864986
  42.4308891   7.5548081  27.9528027  45.2959976   6.9837904  29.3593159
  45.6253128   6.9730229  30.2610016  43.7221069   9.0047750  30.5521660
  43.1183281   9.8552828  29.8426685  44.8037567   9.3206224  31.2899475
  45.1450691   8.5644655  31.8659954  45.5051765  10.5974970  31.3480797
  44.8650360  11.3360596  31.8306160  46.6290741  10.3750467  32.3079948
  46.3086166   9.8222742  33.1910858  47.4138527   9.8122473  31.8025455
  47.2906113  11.6623068  32.8063545  47.5319366  12.1806507  31.8783550
  46.5792465  12.2770405  33.3578606  48.5065079  11.4061766  33.7208939
  49.5514717  12.0463924  33.5999107  48.4060516  10.5647516  34.6665230
  45.9910316  11.0980215  29.9744415  45.9098625  12.2886953  29.7260227
  46.3156281  10.1847582  29.0772934  46.2777176   9.2216825  29.3792019
  46.7376671  10.4862337  27.6332836  47.5975189  11.1554680  27.6631355
  47.2157555   9.1327372  27.0436783  48.1464615   8.9032431  27.5625439
  46.4530258   8.3876686  27.2699833  47.2550545   9.1052446  25.5389957
  46.3232193   9.4032335  25.0583858  48.0737381   9.7006435  25.1348209
  47.6797485   7.6487646  25.1035404  47.5248985   7.3453350  23.9014778
  48.0932655   6.8064985  25.9555302  45.6620941  11.2160826  26.8931751
  45.9199371  11.8248043  25.8792648  44.3531837  11.1767235  27.2961502
  44.0974426  10.5822725  28.0716019  43.2698593  11.8948174  26.7478619
  43.5963097  12.5347900  25.9281254  42.2180290  10.8837433  26.1777191
  41.8987541  10.3257904  27.0579758  41.3099365  11.4273415  25.9169960
  42.7091713   9.9274454  25.0471668  43.5420074   9.3273754  25.4137745
  41.8478012   9.2614079  25.0975513  42.7305222  10.4843845  23.6218204
  43.5316925   9.9595556  22.8432102  42.0358505  11.4876919  23.3518658
  42.5975456  12.8566971  27.7702923  42.5630302  14.0575247  27.5298061
  41.9515381  12.2889576  28.7627392  42.0789452  11.3023148  28.9371071
  41.2954636  12.9801664  29.8475704  40.3190880  13.2919235  29.4766312
  40.9973831  12.0086985  31.0693703  41.9483604  11.5169325  31.2740917
  40.4584427  12.7438812  32.2860794  41.1566505  13.4801826  32.6841393
  39.4939537  13.2087240  32.0816574  40.4285049  12.1116028  33.1734505
  40.0201111  10.8875275  30.7042007  39.1103859  11.3912945  30.3775177
  40.4641571  10.3627167  29.8583298  39.7478104   9.8835154  31.8451385
  38.9038506  10.3468313  32.3561935  39.2555351   8.9824877  31.4791889
  40.6790695   9.6693192  32.3695183  41.9302902  14.2759542  30.3519230
  41.2991257  15.2869749  30.4973850  43.2849541  14.2547417  30.4579945
  43.8461838  13.5156708  30.0593796  43.9701118  15.3436632  31.1018963
  43.2722969  15.6980515  31.8605576  45.2346497  14.8272343  31.8131847
  44.8320618  14.1794815  32.5919304  45.7493973  14.1571875  31.1245823
  46.2009773  15.8754673  32.3560715  45.6176491  16.6872730  32.7905846
  47.0969620  15.2902880  33.4601326  47.5871582  16.1611481  33.8953552
  46.4036407  14.7668705  34.1184998  47.7360001  14.4935627  33.0794029
  47.1156616  16.5389481  31.3306656  46.6125526  17.2383537  30.6629772
  47.7693443  17.1908302  31.9101925  47.5579758  15.7275515  30.7526569
  44.2757835  16.4679604  30.1115646  43.8857231  17.5773716  30.3782845
  44.6351509  16.1005821  28.8517971  44.8352547  15.1153173  28.7553005
  44.8010712  17.0408001  27.7648125  45.4927177  17.8354836  28.0444622
  45.4104919  16.3611565  26.4921761  44.7476654  15.5550327  26.1776485
  45.4482880  17.0681725  25.6634350  46.7639236  15.7164001  26.6844444
  46.5884590  14.8549471  27.3288155  47.0382042  15.3449898  25.6970615
  47.7986031  16.5745525  27.2959156  47.8787537  17.8165722  27.1385098
  48.6697388  16.0048962  28.0783272  48.5472641  15.0506439  28.3857403
  49.1604385  16.6977406  28.6253910  43.4866028  17.7387314  27.3073311
  43.5874977  18.9598789  27.1303883  42.3840637  17.0217571  27.0245972
  42.4783249  16.0305099  27.1938419  41.0853081  17.6978111  26.7077904
  41.2015114  18.2805786  25.7940178  39.9978065  16.6727543  26.4432049
  39.8513870  16.1667519  27.3974724  39.0915146  17.1994514  26.1443233
  40.4407234  15.6835299  25.3232765  41.4898148  15.4039135  25.4198265
  39.8635101  14.7794151  25.5169582  40.2095528  16.1951427  23.9225521
  39.1436577  16.4079132  23.8407211  40.6941109  17.1540604  23.7387581
  40.6052513  15.1650219  22.8742352  41.6743164  15.0151615  23.0250320
  40.1188240  14.2130756  23.0870361  40.3023605  15.4558439  21.4450035
  40.4233284  14.6522532  20.8452396  39.3648415  15.8075933  21.3129711
  40.8582306  16.1928844  21.0352745  40.7114143  18.6684284  27.8213196
  40.2155876  19.7304859  27.5067616  40.9830093  18.3379326  29.0391445
  41.4583130  17.4843616  29.2952805  40.4893188  19.1483402  30.1625118
  39.4815750  19.5549297  30.0774326  40.5310593  18.2640724  31.3709049
  41.5110359  17.7877445  31.4002209  40.2085457  18.9077473  32.7056541
  39.1746216  19.2521896  32.6843033  40.1401520  18.1857681  33.5193939
  40.9286041  19.6680965  33.0081253  39.5733337  17.2469234  31.3032951
  40.0333710  16.5352039  30.8522720  41.5397530  20.2862206  30.4119282
  41.1544113  21.3746777  30.7770653  42.8194389  20.1215248  30.1642742
  43.1585770  19.1892662  29.9745903  43.7252846  21.2282448  29.9501266
  43.8393631  21.7846832  30.8804302  45.1678696  20.7264175  29.6587067
  45.3836403  19.8549671  30.2768688  45.3664818  20.3982334  28.6384392
  46.1705818  21.8496609  30.0464993  45.9098053  22.8827114  29.8164997
  46.2592659  21.9462166  31.1285858  47.5101776  21.4613380  29.4222507
  47.8488045  20.5521526  29.9190540  47.3276253  21.3185768  28.3571720
  48.5439186  22.5482235  29.7373562  48.1038055  23.5331783  29.5815792
  48.8016205  22.4716930  30.7936859  49.8288803  22.2939701  28.9682236
  50.1006737  21.3212509  28.9615784  49.7490234  22.6108665  28.0125542
  50.5666351  22.8008461  29.4360867  43.2705307  22.2739391  28.9344349
  43.0842857  23.3667564  29.3604279  43.0771942  21.8134842  27.6763783
  43.1086998  20.8056984  27.6174221  42.6104164  22.6504612  26.6002426
  43.3414955  23.4483166  26.4696617  42.4212646  21.7119751  25.3890572
  41.7801781  20.8421516  25.5322990  41.9033203  22.3387108  24.6630840
  43.7390976  21.2981472  24.7014065  44.3450432  20.7023792  25.3840408
  43.4334068  20.5816307  23.9390030  44.6613312  22.3719769  24.1305256
  45.2519608  23.1173344  24.8861122  44.7219467  22.4758949  22.8367767
  45.2023888  23.2569389  22.4134007  43.9696693  22.0852928  22.2875824
  41.2806931  23.3405838  26.9405861  41.1712494  24.5341625  26.5562954
  40.4233170  22.6696815  27.6807575  40.7625351  21.7450237  27.9044495
  39.1086617  23.1904945  28.1426144  38.5804749  23.5893822  27.2765789
  38.2729530  22.0553112  28.7525501  37.9537354  21.3790340  27.9595490
  38.8975754  21.5014706  29.4534130  36.9545975  22.4884872  29.5455685
  37.3133698  23.2289906  30.2604351  35.9188919  23.1534634  28.6452980
  36.4229507  23.8114929  27.9374695  35.3465614  22.4422722  28.0496941
  35.1967010  23.7593307  29.1925335  36.2812271  21.3592815  30.2995796
  36.9111023  20.8057175  30.9959354  35.4731255  21.8199368  30.8677959
  35.9285889  20.5555992  29.6531734  39.3377991  24.3419552  29.1449203
  38.7782059  25.3888111  28.9540501  40.2734871  24.1653728  30.0975170
  40.7677269  23.2871456  30.1649227  40.5426598  25.1907845  31.1291943
  39.6571045  25.6649532  31.5523453  41.4061050  24.6904449  32.3061523
  42.2242928  24.1626358  31.8161659  41.9907570  25.4238739  32.8614616
  40.6980057  23.7785378  33.2433014  40.0961189  23.0739460  32.6693802
  41.7588081  23.0021496  33.9784355  42.6510201  23.5776615  34.2251091
  41.3465652  22.3436069  34.7429466  42.2079391  22.2600613  33.3183708
  39.7979698  24.4380035  34.2143440  39.3948441  23.6892700  34.8962440
  40.2335281  25.1927624  34.8691139  39.0108185  24.9526119  33.6632767
  41.2664566  26.3845177  30.4758720  40.8839874  27.5567970  30.6646023
  42.2306175  26.2036171  29.5660954  42.6070290  25.2775555  29.4217834
  42.9671440  27.2063026  28.8074150  43.5362778  27.9430065  29.3743916
  44.0645256  26.5025234  28.0009003  43.6341515  25.6952858  27.4082394
  44.3547668  27.2313309  27.2441292  45.2882309  26.0311699  28.7509117
  45.5329170  26.7781982  29.5060139  45.2685547  25.0616875  29.2487240
  46.5332298  26.2301674  27.8601284  46.4406395  26.4869003  26.6346111
  47.6535454  26.1616287  28.3952026  41.9949913  28.1025982  27.9575634
  42.2918777  29.2497272  27.7190132  40.9473267  27.5311298  27.4164352
  40.9045639  26.5362530  27.5852203  39.9155922  28.2837467  26.7394390
  40.3698616  29.0116177  26.0671711  38.9874382  27.2879410  26.0006123
  39.5930710  26.6558666  25.3511562  38.4587097  26.5698071  26.6273766
  37.8744049  27.8971405  25.1185951  37.4551125  27.1215591  24.4776802
  37.0653343  28.1855927  25.7896404  38.3239441  29.0072880  24.2126904
  38.7558289  29.8381348  24.7706051  39.0000076  28.5748081  23.4751282
  37.1123657  29.5197601  23.4306240  36.5078049  28.6863384  23.0728321
  36.5188103  30.0164928  24.1981239  37.4517136  30.3790855  22.3368797
  36.7247620  31.0752068  22.2528458  38.1870956  31.0458012  22.5234337
  37.5958176  29.8854179  21.4676113  39.1202965  29.1791706  27.6548901
  38.7923622  30.3188343  27.2640781  38.8180656  28.6996403  28.8624210
  39.0548172  27.7351990  29.0465431  38.0129852  29.3522892  29.9373360
  37.1351395  29.8086014  29.4798717  37.5604897  28.3059330  31.0416279
  38.3231888  27.5391979  31.1776600  37.0887871  28.9853420  32.3358612
  36.6717911  28.2063923  32.9741821  37.8416901  29.5735130  32.8605385
  36.2192116  29.5979767  32.0979080  36.3567543  27.4029160  30.4837437
  35.4985008  28.0329914  30.2502728  36.6485367  26.8568401  29.5866585
  36.0265503  26.2232704  31.3976917  35.1791496  26.5379391  32.0067863
  35.7304268  25.3657951  30.7934170  36.8577461  25.9177132  32.0331802
  38.7084198  30.5440636  30.5057297  38.2031937  31.6733837  30.5043678
  40.0458298  30.4045486  30.7013359  40.4309120  29.4910374  30.5081882
  40.9287453  31.5119839  30.9363327  40.7100029  32.0051308  31.8834629
  42.2468414  30.8622551  31.3430920  42.5772171  30.1903915  30.5509090
  43.2856674  31.9636097  31.5441360  42.8255196  32.7222481  32.1772461
  44.2267723  31.5255203  31.8765450  43.4895363  32.4783096  30.6051884
  42.0603485  30.0079403  32.6249390  41.8537292  30.7342873  33.4109535
  41.2579880  29.2816467  32.4952583  43.2404289  29.1163597  33.0190887
  43.4066010  28.3998890  32.2146225  44.1107330  29.7680759  33.0961494
  43.0870171  28.6249619  33.9798660  40.9280396  32.5707817  29.8265915
  40.6694565  33.7397461  30.0642662  41.1804733  32.1786041  28.5807953
  41.2303238  31.1823158  28.4226055  41.3168755  33.0359077  27.3847980
  42.0353050  33.7670479  27.7554646  41.9207954  32.2551346  26.2580051
  42.6487656  31.5145226  26.5891438  41.1769180  31.7874508  25.6130028
  42.7043381  33.1911163  25.3494854  43.1831551  32.5645409  24.5969963
  42.0768814  33.9592247  24.8973694  43.8754768  33.7495804  26.1504364
  44.0343208  34.9994164  25.9711266  44.5464096  33.0827293  26.9770985
  39.9461060  33.7434502  26.9698792  39.9324455  34.7529373  26.2389488
  38.7482910  33.3378563  27.4818592  38.7262802  32.4789200  28.0127506
  37.4648132  34.0409470  27.3139687  37.5119362  34.6897659  26.4393730
  36.2997169  32.9760628  27.2670593  36.4688950  32.2764015  28.0855675
  35.3764610  33.5254440  27.4511204  36.2532730  32.1933784  25.9375916
  37.2222748  31.7190418  25.7822227  35.4387436  31.4912910  26.1156769
  36.0278549  33.0766754  24.7286949  35.9752541  34.3212204  24.7177925
  35.8073921  32.5183525  23.6399384  37.1827660  35.1027336  28.4189396
  36.4949989  36.0819473  28.1213570  37.7206879  34.8875923  29.6538734
  38.1858482  33.9964104  29.7514343  37.3279648  35.5397644  30.8732834
  36.5838814  36.2780914  30.5744247  36.5639000  34.5512047  31.8491917
  37.3252983  33.8311958  32.1491241  36.2044716  35.0661354  32.7401237
  35.3407974  33.9162292  31.2329292  34.2826958  34.5260048  31.1324062
  35.4788742  32.7150803  30.7483406  34.6723328  32.2474403  30.3598785
  36.2994804  32.1291046  30.8061676  38.4510841  36.4432335  31.5368042
  38.2228012  37.2241974  32.4614601  39.6238785  36.2221146  30.9824619
  39.5493584  35.5350533  30.2459221  40.8424492  36.9868050  31.1949654
  41.5803833  36.3506203  30.7062721  40.8639946  38.3438034  30.4485703
  40.4717560  39.1511002  31.0670567  41.9074364  38.6309662  30.3187103
  40.1278000  38.3579597  29.1800270  40.3335571  37.5481796  28.0516396
  40.9289780  36.7335777  28.0069294  39.5104713  37.9022141  27.0569210
  39.4467964  37.5372200  26.0424652  38.8784752  39.0136833  27.4943409
  38.2015419  39.6000214  27.0273609  39.2387772  39.2670898  28.8280144
  38.8504639  40.0556908  29.4554844  41.3560028  36.9690704  32.6609612
  41.9214821  37.9450722  33.1387825  41.0828133  35.7982750  33.3574905
  40.5730858  35.0692177  32.8792152  41.2916603  35.6573792  34.8041191
  41.1354294  36.6548347  35.2149353  40.3163910  34.5593147  35.2733078
  40.6263618  33.6838303  34.7027397  40.5906639  34.1354713  36.7209663
  39.9074440  33.3529968  37.0511932  41.5771408  33.6823883  36.6225662
  40.6605110  35.0020676  37.3784065  38.9939957  34.8500137  35.0159645
  38.8973579  35.8040009  35.0625763  42.7755165  35.3683586  35.0653076
  43.4631233  34.6617661  34.3557930  43.2333832  35.8356857  36.2188835
  42.7286949  36.5315742  36.7490997  44.4182205  35.3945274  36.8131866
  44.9666252  34.8082809  36.0758514  45.4104652  36.6409454  36.9283066
  46.4495087  36.3133583  36.9625626  45.3532257  37.2559509  36.0302048
  45.2213860  37.5608177  38.1719284  44.2218399  37.9950981  38.1516113
  45.2284508  36.9506836  39.0751381  46.2955589  38.6298332  38.2690468
  47.2808647  38.1829414  38.4015121  46.2044792  39.3128777  37.4244995
  46.0296745  39.5780373  39.4403038  45.8327827  38.8604355  40.2367821
  46.9077606  40.1488838  39.7422981  44.8596725  40.4736900  39.2368774
  43.9405098  40.0596657  39.1750298  44.8141937  41.1139374  40.0167007
  44.8113136  41.0266838  38.3931007  44.1867714  34.5934143  38.1239395
  43.2564812  34.8537025  38.8744087  44.9211235  33.5014572  38.3412323
  46.1543922  33.1835251  37.7562523  46.8070679  34.0557671  37.7201042
  45.8943825  32.9720039  36.7190666  46.7481422  32.0015335  38.5246468
  47.6108780  32.2966309  39.1218987  47.0966187  31.2669621  37.7986488
  45.5217476  31.4450760  39.3127403  45.8785820  31.1016693  40.2837410
  45.1231613  30.6674595  38.6611710  44.4757729  32.5829544  39.3891220
  43.5285912  32.1633835  39.0501404  44.2996788  33.0572357  40.8192749
  43.3903351  32.6529312  41.5168724  45.0678253  34.0612411  41.1937370
  45.8393631  34.3599739  40.6144409  45.0794678  34.5709381  42.5768242
  45.4385414  33.7828522  43.2387047  46.0391922  35.7116127  42.6968727
  46.9617577  35.3582077  42.2363548  45.6981812  36.5943375  42.1559410
  46.4687195  35.9734612  44.1355171  45.6102676  35.8464813  44.7950935
  47.2258835  35.2070732  44.3012085  47.0092621  37.3486938  44.2523079
  46.2081604  38.2882118  44.4853134  48.2564240  37.5501633  44.0486908
  43.7147369  35.1915817  42.9821320  43.2517090  35.1286201  44.1073723
  43.0801926  35.6745262  41.8850861  43.5098228  35.4878502  40.9902840
  41.7168465  36.2019844  41.9253197  41.4978409  36.8096466  42.8033180
  41.3771362  37.1193848  40.7208595  41.6557503  36.6416893  39.7815628
  40.3069077  37.2723656  40.5819206  42.1665916  38.3811569  40.8269005
  42.4663582  38.7665634  42.0056381  42.5079498  38.9901237  39.7620239
  40.6097679  35.1517525  41.9842415  39.4548416  35.4910622  42.2410736
  40.9197998  33.8430214  41.8242111  41.8386192  33.5772324  41.4998207
  39.8911057  32.7354279  41.9737206  38.9502945  33.1617699  41.6255684
  40.2238770  31.4640751  41.2183266  41.2246323  31.1115990  41.4680328
  39.2525826  30.2891273  41.3524399  39.7196655  29.4386234  40.8558731
  39.0797424  30.0937347  42.4107628  38.3012657  30.4637642  40.8498459
  40.1734428  31.7950439  39.6943054  40.3122101  30.8888416  39.1046982
  39.3241272  32.3969536  39.3710976  40.9980583  32.4969559  39.5700722
  39.6009369  32.3606339  43.3860321  40.5228958  32.1962128  44.2396049
  38.3211136  32.1963730  43.7364616  37.6177177  32.1669884  43.0122604
  37.8797989  31.8051929  45.0788383  38.4688606  32.3714180  45.8002930
  36.4055099  32.2055283  45.1503105  35.8673096  31.6327438  44.3950920
  35.8921127  31.7514839  46.5070000  36.6323738  32.0756073  47.2384758
  34.9461441  32.2331085  46.7545547  35.8220329  30.6650524  46.5605278
  36.2316284  33.7227478  44.9871712  36.7951584  34.2986717  45.7212334
  36.5737228  34.1547165  44.0467072  35.1864471  33.9648705  45.1797104
  38.1401863  30.2729263  45.3048668  38.6819801  29.9822731  46.3579712
  37.5511208  29.4049644  44.5292206  37.0927734  29.7906609  43.7160454
  37.5565262  27.9109249  44.6296310  38.5774498  27.5347500  44.5639648
  36.7884789  27.3883858  45.8522606  36.8630524  26.3069038  45.7385254
  37.2998543  27.6170769  46.7872963  35.2988243  27.7323303  45.9393692
  35.1302795  28.8058681  45.8544579  34.7034531  27.3524971  45.1090889
  34.5458946  27.3562355  47.2121964  34.9916954  27.6290398  48.2829742
  33.4825134  26.6094913  47.1211891  33.0249634  26.4358006  48.0046921
  32.8957825  26.5298233  46.3029594  36.8592300  27.4886494  43.3354416
  36.1765289  28.2073669  42.6262360  37.0443459  26.1874943  43.0274353
  37.6777229  25.6489048  43.6008949  36.5825157  25.4202175  41.8682137
  35.6622391  25.8488617  41.4714050  37.8132820  25.4448261  40.8816833
  38.7542953  25.4577675  41.4316177  37.8626175  24.4374104  40.4684334
  37.8590355  26.7041759  39.9884834  37.0105972  26.8233852  39.3146553
  37.8430748  27.6042233  40.6031075  39.4128647  26.8867588  39.0419540
  39.2598076  25.4331074  37.8864708  38.2740364  25.3721046  37.4253540
  40.1162033  25.4526520  37.2124481  39.3610840  24.5804119  38.5578575
  36.2401047  24.0108528  42.1462593  36.5858688  23.4309063  43.1649017
  35.5053177  23.4196930  41.1551170  35.1789322  23.9678288  40.3720970
  35.1151085  21.9993668  41.2576294  35.8309631  21.4488373  41.8680153
  33.6712646  21.7744846  41.7662125  32.9583893  22.1983986  41.0589600
  33.5153160  20.6967030  41.7196884  33.2502060  22.2929230  43.1686440
  33.6958084  23.2786350  43.3024979  31.7851620  22.5254745  43.4899216
  31.6112251  22.8233738  44.5238953  31.5228882  23.3868046  42.8755760
  31.2219868  21.6192150  43.2671318  33.7114258  21.3882961  44.2983742
  33.4083900  21.9608479  45.1749840  33.2706985  20.3924694  44.3451691
  34.7889214  21.3364029  44.1420975  35.0935249  21.3065758  39.8613319
  34.7366524  21.9282742  38.8123360  35.3126373  20.0268631  39.8233299
  35.6615868  19.6275425  40.6829109  35.3265877  19.2257309  38.5820389
  34.6268806  19.6940575  37.8898125  36.7375793  19.1140385  37.9531860
  37.2955322  18.6713066  38.7782784  36.6999779  18.3793755  37.1488495
  37.3701973  20.4011974  37.3341255  36.6012115  20.9806328  36.8232307
  38.1864929  21.2366390  38.3210411  38.6913033  20.6813793  39.1115761
  38.9317169  21.8412399  37.8041306  37.5839806  21.9468822  38.8872871
  38.3608742  19.9823647  36.2111282  37.9773827  19.1542244  35.6151237
  38.6218262  20.7231369  35.4553108  39.2687950  19.6093578  36.6850967
  34.8236732  17.7842274  38.7926254  35.0394058  17.1610260  39.7939491
  34.1151886  17.2671928  37.8332596  33.8748436  17.9162121  37.0976562
  33.3726158  15.9673080  37.7982178  33.8179626  15.2220163  38.4572411
  31.8437328  16.0237560  38.0902061  31.5126038  14.9852800  38.0951614
  31.7269669  16.3783512  39.1142807  31.1243877  16.8740978  37.1547623
  30.4870644  16.3107109  36.7097702  33.5126953  15.3675995  36.3928223
  33.6109238  16.0598736  35.4189758  33.6187897  14.0457697  36.3029442
  33.6765022  13.5159645  37.1608963  33.4542313  13.2640762  35.0816917
  33.0964394  13.9067554  34.2772980  34.8119926  12.5937691  34.7875557
  35.0187149  11.7637224  35.4631195  34.8960915  12.1752110  33.7846413
  35.6416740  13.3004656  34.7699394  32.3720894  12.1943636  35.3262787
  32.1064568  11.8213148  36.4643021  31.8397694  11.6714582  34.2033081
  32.0541534  12.1144629  33.3213310  30.7704887  10.6712952  34.1230316
  29.9499149  11.1910934  34.6175690  30.3176365  10.3133860  32.6574745
  29.8338871   9.3520651  32.4844208  29.3384933  11.3242655  32.0722313
  29.1037674  11.1985321  31.0152569  28.3836288  11.1583033  32.5710220
  29.7611923  12.3209028  32.1992912  31.4397430  10.3497906  31.7809772
  31.7375488   9.4540024  31.6064053  31.1279049   9.3211164  34.7886810
  32.2681122   8.9986134  35.0291595  30.1174622   8.4548645  35.0325661
  28.7134609   8.7085094  34.7527046  28.3844318   8.1188250  33.8970680
  28.3905983   9.7344599  34.5758057  28.0637207   8.0752439  35.9938469
  27.0088177   7.8283577  35.8741417  28.2153721   8.7994986  36.7941933
  28.8403053   6.7600870  36.1817703  28.5230465   6.0111837  35.4561043
  28.7155228   6.3758368  37.1941338  30.2811203   7.3039603  35.9057312
  30.6125908   7.7363229  36.8498116  31.1449337   6.1749139  35.2989693
  31.2458191   5.0605855  35.8487396  31.7184162   6.4036660  34.1376343
  31.6594810   7.3152027  33.7066727  32.5065231   5.5112600  33.3514595
  32.4701118   4.5036874  33.7656708  31.9593143   5.3811665  31.9786053
  32.6930008   4.8873124  31.3414936  31.0373154   4.8001370  31.9991913
  31.5890121   6.7151084  31.3007488  30.8829651   6.6554251  30.2737198
  31.8520908   7.8436866  31.7363014  33.8974190   5.8721590  33.3393745
  34.7057190   5.0842838  32.9924431  34.2784500   7.1179953  33.7722092
  33.6144447   7.8152118  34.0773125  35.6780510   7.6148539  33.8162918
  36.3625336   6.9178567  33.3327827  35.7770576   9.0102777  33.1111526
  35.1512260   9.7192526  33.6531792  36.7678871   9.4624548  33.0676537
  35.3574905   8.9386940  31.6481190  34.3740845   8.4827089  31.5337067
  35.3017960  10.3149300  31.1712246  35.1050529  10.3799028  30.1010990
  34.4287949  10.8125906  31.5934830  36.2588081  10.8164368  31.3151493
  36.3059998   8.2057085  30.7454777  37.2950058   8.6631317  30.7725201
  36.3051758   7.1269312  30.9014835  35.8338432   8.3561192  29.7746296
  36.2196846   7.5994782  35.2220573  35.7106094   8.0372715  36.1704140
  37.4236526   6.9828320  35.3651657  37.7313995   6.5564752  34.5028381
  38.0294304   6.6131701  36.6199493  37.7579193   7.2949777  37.4258766
  37.5185966   5.2033324  37.0222816  37.8520241   4.4327445  36.3272133
  37.9137917   4.9843841  38.0142403  36.0314445   4.9462600  37.0670815
  35.1435165   5.6925592  37.8061943  35.3763237   6.4701304  38.4072647
  33.9546280   5.1096544  37.6295738  33.0146713   5.4684100  38.0222206
  34.0391388   4.1018777  36.6899490  33.2366066   3.5495000  36.4236336
  35.3711815   3.9209330  36.3802032  35.7116013   3.1292944  35.7291870
  39.5100975   6.6195703  36.5516090  40.0899162   6.3557134  37.6188927
  40.2260895   6.7568874  35.4441757  39.7337608   6.7483525  34.5623360
  41.6926041   6.7728729  35.4884529  42.0055885   5.7807074  35.8136444
  42.1580162   6.9110737  34.0364494  43.2261047   6.7156610  33.9410820
  41.5257301   6.2420249  33.4527626  42.0129738   7.8815813  33.5619240
  42.4974899   7.8513083  36.2497292  43.7005424   7.6833353  36.4313164
  41.9101295   8.9630070  36.5978661  40.9367638   8.9808512  36.3288956
  42.6311607  10.1077547  37.1357841  43.3605003   9.8576164  37.9062347
  43.4693489  10.7606583  36.0215683  44.4459419  10.3097897  35.8452682
  42.6188545  10.8798075  34.6722870  42.6584244   9.9731426  34.0685501
  41.5591621  11.0957174  34.8084221  42.9199028  11.7180405  34.0439262
  43.8091469  12.2487278  36.3232117  44.4584122  12.6607695  35.5506973
  42.8897362  12.8308830  36.3854828  44.3329315  12.3108053  37.2770958
  41.5859947  11.0602036  37.6788483  40.4832230  11.2482262  37.0746803
  41.8537712  11.7617035  38.7878685  42.6905899  11.5076618  39.2931328
  41.0373383  12.8857098  39.2845612  40.0073509  12.5415783  39.3784142
  41.5188828  13.1618614  40.6769905  42.6086121  13.1474543  40.6574783
  41.0838547  14.1403790  40.8803482  40.9452972  12.2106380  41.7173805
  39.6080627  12.3453398  42.1653862  39.0476036  13.1913424  41.7958450
  39.1102600  11.5452833  43.2504921  38.1126823  11.7046385  43.6323891
  39.8941917  10.5367517  43.7422981  39.4837265   9.8038397  44.4210892
  41.2423134  10.4406300  43.3712921  41.7874489   9.5944338  43.7626724
  41.7755623  11.2065639  42.3503571  42.7540207  11.0602484  41.9172173
  41.2309952  14.1019735  38.2890930  42.3574371  14.6410351  38.1492729
  40.1721497  14.5909309  37.6015892  38.8112183  14.0503969  37.5550957
  38.2828598  14.6143246  38.3238106  38.8618126  12.9744759  37.7222443
  38.3594093  14.3411951  36.1596107  37.2950020  14.4520350  35.9526024
  38.8131294  13.5756836  35.5301437  38.9325638  15.7096319  35.9467239
  38.3118134  16.4472294  36.4553680  39.0683327  15.9210110  34.8860703
  40.3226204  15.6002617  36.5187454  41.0012054  15.3202896  35.7129898
  41.0044708  16.9367924  37.0729027  41.6910095  17.6548939  36.3252144
  40.8855476  17.2512417  38.3816452  40.1941833  16.6992989  38.8689575
  41.5796127  18.3087502  39.1152687  41.0506859  19.2323437  38.8800812
  41.5052834  17.9897156  40.6479301  40.5924301  18.3479824  41.1237907
  41.5021973  16.9122696  40.8128891  42.3421745  18.4327755  41.1877594
  43.0830498  18.4099312  38.8293800  43.6501617  19.4836407  38.9941940
  43.7350616  17.2803822  38.5738564  43.1517677  16.4609451  38.4822426
  45.1539307  17.2819233  38.1316833  45.7964325  17.7051373  38.9038124
  45.5894394  15.8397970  37.8172035  45.7020798  15.2858438  38.7491646
  44.8297043  15.3758812  37.1881676  46.9715309  15.8227844  37.1512451
  46.8683395  16.4232292  36.2474098  47.7071800  16.3240643  37.7802429
  47.4635468  14.4034061  36.9517632  47.5400314  14.0710135  37.9870262
  46.7668495  13.8139830  36.3556976  48.8834572  14.2638054  36.4284401
  48.9813423  14.6423006  35.4109650  49.6537285  14.8202791  36.9624100
  49.1990776  12.8369055  36.5291481  48.4853668  12.2636652  36.1023979
  50.0786247  12.6206455  36.0822411  49.2330475  12.6088600  37.5124817
  45.3436508  18.2809296  37.0054016  46.3565178  18.8766079  36.8351402
  44.3515625  18.5383949  36.1624680  43.4569511  18.0811176  36.2657700
  44.6043129  19.4401627  35.0645828  45.5878830  19.2693787  34.6269379
  43.5016327  19.2739792  34.0311584  43.5130806  18.2399426  33.6865730
  42.5646591  19.6114407  34.4742165  43.6962852  19.8898983  33.1531715
  44.6450806  20.9026546  35.5778694  45.2587624  21.7232780  34.9359703
  44.0167236  21.2353802  36.7600441  43.6297417  20.5741158  37.4181252
  44.0821419  22.6004696  37.3032494  43.5959816  23.2273903  36.5557671
  43.1496849  22.6622295  38.4959221  43.5430489  22.0245037  39.2875443
  43.0545311  24.1392345  38.8487473  42.8310814  24.7411671  37.9679184
  42.2883072  24.2726059  39.6124306  43.9616661  24.5332661  39.3069496
  41.6897507  22.2957783  38.1071167  41.0600433  22.5617809  38.9561195
  41.3623962  22.8689213  37.2396812  41.4905663  21.2452469  37.8954086
  45.5185776  23.0358257  37.6464691  46.0049477  24.0241413  37.0809746
  46.3063469  22.1638680  38.3047714  45.9197273  21.2680397  38.5657768
  47.7811432  22.4199028  38.4681129  47.8095818  23.4965057  38.6360931
  48.3725586  21.5867100  39.6580276  49.4270401  21.8626938  39.6568871
  47.9034157  21.8435097  40.6077919  48.3015099  20.0552883  39.3963013
  47.2509079  19.7677288  39.4369164  48.7409172  19.7615147  38.4430351
  48.9382439  19.3978901  40.5947227  50.0201187  19.5212650  40.5454788
  48.5963058  19.8853378  41.5077248  48.6626740  18.0145855  40.6369362
  49.3694649  17.3717194  40.3094177  47.4978180  17.4045200  40.8933678
  46.3863945  17.9553127  41.2690315  45.5478973  17.4006481  41.3658409
  46.3791389  18.9293060  41.5362129  47.3611221  16.1430779  40.8316040
  46.5301437  15.7183647  41.2178688  48.2221909  15.6395006  40.6732674
  48.6025009  22.3319626  37.1406059  49.8074951  22.4885159  37.0864754
  48.0291634  21.9573479  35.9673653  47.0279388  22.0203285  35.8503723
  48.7525826  21.8529587  34.6960449  49.7615547  21.4593372  34.8190880
  48.1502266  20.8476772  33.7254944  47.0980263  21.0543213  33.5298653
  48.6193771  21.0324745  32.7591324  48.3661423  19.3468113  34.1381302
  48.2333794  19.3381424  35.2199821  47.6540871  18.8310280  33.4938850
  49.8067932  18.8035736  33.8402824  50.1335640  18.8251476  32.6574211
  50.4866104  18.2040768  34.7024193  48.9328117  23.2625294  34.0453644
  49.5848351  23.3716030  32.9722633  48.3819695  24.2740498  34.7511330
  47.8784599  23.8749275  35.5304146  48.5749779  25.6908379  34.4727936
  49.2522774  25.8399429  33.6318817  47.1519585  26.1401920  34.0412445
  46.5424576  26.1740284  34.9442749  47.3742752  27.1423721  33.6747627
  46.4163170  25.3250103  32.9480133  46.3362961  24.2889023  33.2769356
  44.9046440  25.7738209  32.7637482  44.7436104  26.8247585  32.5235367
  44.4295425  25.1475353  32.0086670  44.4139099  25.5659409  33.7145767
  47.0518188  25.5004711  31.5848694  46.9463882  26.5031719  31.1706581
  48.0722351  25.1186752  31.6178474  46.5960388  24.7713127  30.9150238
  49.2082100  26.5152187  35.6678162  48.8340034  26.1798592  36.7942123
  50.1335678  27.4239616  35.3421173  50.2561378  27.6626854  34.3684158
  50.8397331  28.1885414  36.3562584  51.3095665  27.4735432  37.0316353
  51.8291359  29.0863514  35.6288795  51.2701721  29.6178303  34.8586884
  52.3861771  29.6772461  36.3559647  52.7656441  28.3045254  34.9456367
  52.8339195  28.6407089  34.0490227  49.9041328  28.9401531  37.2622948
  48.9430504  29.5500565  36.7966003  50.2082977  28.7982559  38.5729370
  50.9705505  28.2029171  38.8638763  49.5211182  29.3911419  39.7196045
  50.2298164  29.3597221  40.5471687  49.3495979  30.4538498  39.5483398
  48.2365036  28.7729607  40.1890945  47.8154602  28.8957539  41.3951263
  47.4877434  28.1392651  39.2610703  47.7821693  28.1477146  38.2949715
  46.1755295  27.4460945  39.4814796  45.5347137  28.2830391  39.7589340
  45.6821785  27.0029182  38.1211510  46.3683128  26.2242069  37.7880898
  44.7372055  26.4787045  38.2637291  45.3947983  27.9650517  37.0512962
  46.2302704  28.5251808  36.1069489  47.1358223  28.0090656  35.8240967
  45.7326546  29.6871662  35.6067390  46.0450325  30.2994614  34.8667297
  44.4113350  29.8690414  36.0706863  43.4536934  30.8731880  35.9142685
  43.6233559  31.6932888  35.2323227  42.1145515  30.7147923  36.4588547
  41.3089180  31.3509254  36.1231651  41.8478394  29.5522270  37.2357178
  40.8599091  29.2340260  37.5342865  42.9138565  28.6733360  37.6026230
  42.7378960  27.8183956  38.2386398  44.2114487  28.8169613  37.0126381
  46.2123642  26.2397556  40.5307617  45.2464943  25.9061356  41.1700325
  47.4221382  25.7897854  40.7638626  48.1868210  26.2837353  40.3263969
  47.6491508  24.7329483  41.7743378  47.0063515  23.8904610  41.5191345
  49.1250420  24.1780663  41.6847267  49.1273003  23.3228111  42.3604736
  49.2228661  23.8581543  40.6473312  50.4380913  24.9144478  42.0944710
  50.3947144  25.0547543  43.1745300  51.2504692  24.1893196  42.0462112
  50.7944221  26.1021824  41.1999283  50.1418343  26.3756809  40.2087708
  51.8353043  26.8262634  41.3997993  52.0591774  27.4931450  40.6750526
  52.3511772  26.5773983  42.2316933  47.3707199  25.0912209  43.2099609
  47.1123734  24.2935162  44.0814552  47.3596420  26.4151802  43.4890747
  47.7533188  27.1143513  42.8756599  47.0309677  27.0354099  44.8322296
  47.3271103  26.3453121  45.6222763  47.7187538  28.3600883  45.0265770
  47.2889214  29.0146446  44.2683563  47.5488663  28.7623291  46.0252953
  49.2608185  28.2549801  44.8957634  50.0381927  27.5224724  45.8681641
  49.5537949  27.0098610  46.6860809  51.3463478  27.3929482  45.6433372
  51.8904533  26.8008499  46.3642883  52.0261803  28.0303211  44.5733528
  53.3591881  27.8663311  44.5139732  53.7914391  27.6489201  45.3431244
  51.3672028  28.9150982  43.6652031  51.9234848  29.4248047  42.8924484
  49.9168205  29.0080185  43.8593102  49.4228401  29.6789722  43.1721420
  45.5107346  27.3583927  45.0293884  45.0201378  27.5143890  46.1480331
  44.7325745  27.3940411  43.9103966  45.1356888  27.2354527  42.9980087
  43.2928276  27.4390926  43.9199982  43.0916939  28.3014336  44.5556221
  42.7783852  27.6112347  42.4995193  42.9610138  26.6661968  41.9880028
  41.3077660  27.8651638  42.5222740  41.0270042  28.7029228  43.1605797
  40.9500618  27.8410206  41.4929237  40.7680550  27.0070801  42.9229126
  43.4294510  28.8393517  41.7922974  43.2739410  29.7522068  42.3672905
  44.4809952  28.5723515  41.6870804  43.0504112  29.0014572  40.7832642
  42.6809578  26.2672882  44.6371765  43.0490341  25.1395969  44.4228134
  41.6316452  26.4693336  45.4908180  41.3287315  27.6437435  46.3065987
  40.6455078  28.2286797  45.6908455  42.1922188  28.2527218  46.5742531
  40.7484970  27.0659199  47.5710449  40.1147346  27.7760487  48.1022339
  41.6109505  26.8483200  48.2010651  40.0501747  25.7496090  47.1869698
  39.0478249  26.0321789  46.8651733  40.0669327  25.0416832  48.0156250
  40.9110947  25.3035240  46.0396729  41.6373596  24.6976738  46.5815048
  40.1423874  24.4740791  45.0182571  39.4696083  25.0452671  44.1589432
  40.2173004  23.1920357  45.1260910  40.7910347  22.7727280  45.8438034
  39.6367683  22.1426582  44.2245941  38.6272430  22.4258842  43.9267006
  40.5826492  22.0999489  42.9453659  40.8844910  23.1154537  42.6889725
  41.8919258  21.3434467  43.1750488  42.3976784  21.8136139  44.0184059
  41.7044258  20.2772083  43.3018646  42.5734825  21.4969730  42.3383827
  39.9168015  21.4086952  41.7864494  39.2878265  22.1691685  41.3236580
  40.6411285  21.2279758  40.9922256  39.3916893  20.4669685  41.9461708
  39.5007362  20.7586670  44.8943977  40.2596779  20.3640766  45.7351608
  38.3755608  20.1653633  44.6483955  37.7449379  20.6961823  44.0647430
  37.9746323  18.8205338  45.0648308  38.8864098  18.2263870  45.0035591
  37.3631172  18.7913532  46.4803848  37.7104111  19.6409245  47.0683632
  35.9368820  18.9154072  46.4108124  35.7106705  19.0977173  47.4613838
  35.5772591  19.7481174  45.8063622  35.3993912  18.0480728  46.0274925
  37.7304344  17.7192116  47.1777954  37.3195496  16.9496670  46.7770805
  37.0408211  18.2519112  43.9807014  36.3734894  19.0265484  43.2824745
  37.1188698  16.9819317  43.7321281  37.6348724  16.3720131  44.3500633
  36.4360580  16.3692551  42.5835190  36.2421722  17.0483322  41.7532425
  37.2841187  15.2501669  42.0393448  37.4653473  14.6261721  42.9144936
  36.9043121  14.6396503  41.2201271  38.8074532  15.8748779  41.3082085
  39.5414047  16.0116310  42.4161377  35.0825043  15.8320131  42.9483986
  34.9731407  14.7494755  43.4982185  34.0072517  16.6139870  42.7249718
  34.1478539  17.5458565  42.3617210  32.5943565  16.1570606  43.0293655
  32.5080566  15.7957067  44.0540962  31.6441288  17.3877468  42.9055557
  30.6494598  17.0843182  43.2321434  31.9092140  18.2066975  43.5742531
  31.7005177  17.8481541  41.4298286  32.7357101  18.0316429  41.1420555
  31.2447758  17.0460606  40.8492622  30.7160530  19.3534126  41.2551727
  31.4864998  20.0613861  39.7837372  32.5723991  20.0570164  39.8780594
  31.1116810  19.4380627  38.9719009  31.1995354  21.0947113  39.5888252
  32.1242790  14.9865360  42.1503830  32.4614296  14.9737234  40.9772758
  31.3738728  14.0576954  42.6931190  31.2738857  14.0487194  43.6981201
  30.7629185  12.9300900  41.9891853  31.6418266  12.5939960  41.4390411
  30.3855667  11.7586832  42.9556236  31.2694206  11.3972511  43.4812355
  29.7239494  12.1531210  43.7268486  29.7504272  10.5750952  42.2108192
  29.4308796   9.8700714  42.9782372  28.8000870  10.7730303  41.7150574
  30.5997791   9.8346252  41.2672119  31.6002483   9.2052050  41.5451698
  30.1948185   9.7508373  40.0341339  29.3818703  10.2101479  39.6491013
  30.6882477   9.2243690  39.3274117  29.6088696  13.3651791  41.0285339
  28.5142231  13.6740952  41.4940681  29.8001137  13.1977119  39.7413406
  30.7204704  12.8927708  39.4584007  28.6744633  13.2569981  38.7876740
  28.1933041  14.2280626  38.9044113  29.1993370  13.0058489  37.3632889
  30.0820160  13.6382704  37.2682953  29.3799572  11.9473314  37.1761627
  28.1296349  13.5208788  36.3289986  28.5002499  13.1412287  35.3768387
  27.1541100  13.0507030  36.4530449  27.9635677  15.0782280  36.2950630
  28.9725437  15.7591686  36.4388084  26.8452473  15.6208696  36.1625443
  27.5247040  12.2261610  39.0640030  27.8471889  11.0301952  39.1064682
  26.2097454  12.5829639  39.1319923  25.9922276  13.5692577  39.1349945
  25.0790768  11.6245241  39.1936874  25.3631477  10.8597908  39.9165878
  23.7978172  12.1475019  39.8662834  23.0067291  11.4149246  40.0263176
  24.0401096  12.5418711  40.8531303  23.2767563  13.3609076  39.1432686
  24.0618553  14.1104832  39.0439873  22.8871975  13.0252132  38.1822014
  21.8533459  14.1693773  39.9492493  20.5630741  12.9392891  39.5602150
  21.0023975  11.9631891  39.3544884  19.8610630  12.7951536  40.3815002
  19.9835033  13.2666178  38.6970520  24.9260387  10.8657970  37.8419876
  25.3209419  11.3432178  36.7685432  24.4691372   9.6131868  37.9552917
  24.0582981   9.2492704  38.8031578  24.2119637   8.7785139  36.7458725
  24.8277302   9.1501999  35.9268608  24.5033493   7.3255291  37.0939789
  25.5082035   7.2183695  37.5024948  23.8845615   7.0714054  37.9545822
  24.3698292   6.3754344  35.9294930  24.3821030   5.1341624  36.1638756
  24.3865490   6.8150210  34.7453384  22.7692070   9.0766630  36.3575287
  21.7985840   8.5558844  36.9601860  22.5110474   9.9781961  35.3791618
  23.2980156  10.5633631  35.1375847  21.2089443  10.1598930  34.7071152
  20.3460083   9.8665571  35.3049393  21.0070038  11.7056112  34.4780846
  21.9327278  12.0985460  34.0576744  19.8231106  11.9552498  33.5204659
  20.2507324  11.5700855  32.5947800  18.9085884  11.4763498  33.8703232
  19.7454739  13.0393324  33.4377670  20.8306217  12.4198751  35.8118820
  21.7065525  12.3625507  36.4580727  20.6668568  13.4902163  35.6867828
  20.0248184  11.9830427  36.4017715  21.1978111   9.3555641  33.4022598
  22.0364971   9.4588680  32.5490227  20.0897617   8.6781693  33.2112885
  19.2783508   8.8718853  33.7806625  19.8610134   7.7395859  32.0921822
  20.7475281   7.1094174  32.1634712  18.6768761   6.8176632  32.4901695
  18.9325314   6.3407292  33.4363594  17.3007851   7.5122566  32.5762253
  16.6010742   6.7951512  33.0054855  17.3590393   8.3986855  33.2078514
  17.0355911   7.9153562  31.5988369  18.5314388   5.8293500  31.4916859
  18.8537312   5.0269542  31.9086857  19.7317352   8.3830872  30.7623882
  19.2469921   9.5552139  30.7066593  20.1415997   7.7860775  29.6294136
  20.6975441   6.9433560  29.6585064  20.0686893   8.4598274  28.2844982
  19.9743443   7.7531404  27.4600029  19.1891689   9.0862188  28.4334221
  21.0987186   9.5693741  28.0434895  21.3391647   9.9908867  26.8790340
  21.7882729  10.0688457  29.1057854  21.5382690   9.7230263  30.0212135
  22.6679497  11.2185173  29.0452557  22.2219601  12.0376139  28.4810982
  22.8724308  11.7238188  29.9891605  24.0243053  10.8810196  28.3716583
  24.5372753   9.7406282  28.3387928  24.7390327  11.9522762  27.8993416
  24.3248577  12.8734131  27.9074783  26.0789471  11.9153299  27.2607269
  25.8934422  11.4753304  26.2808857  26.4727592  13.3593178  26.9954605
  25.7705936  13.6520500  26.2148361  26.3229523  13.9672308  27.8877048
  28.0040379  13.5992956  26.5103874  28.6798916  13.0360365  27.1538620
  28.0274544  13.2585812  25.0152988  28.9123421  13.7627602  24.6268597
  28.1572208  12.1856565  24.8735485  27.1467476  13.6779423  24.5288925
  28.2407761  15.1256733  26.5943832  27.6335735  15.6393709  25.8490524
  28.1943073  15.3846378  27.6521530  29.2749672  15.3543749  26.3370018
  27.0663624  11.1279221  28.1287651  27.1152687  11.3559122  29.3434734
  27.7043743  10.1433706  27.4685574  27.4673233   9.8883162  26.5204735
  28.7393799   9.3628864  28.1086369  28.4928226   9.1693420  29.1525974
  28.5924759   8.0395842  27.4475536  28.5776882   8.2584076  26.3798466
  29.4810162   7.4408879  27.6479588  27.3601360   7.2118649  27.5606003
  27.2873592   6.7542558  28.5472088  26.5298138   7.8957901  27.3847828
  27.3057690   6.0617003  26.5466137  27.5991096   6.3905029  25.5496483
  28.0683422   5.3398981  26.8391628  25.9784679   5.4035926  26.4727249
  25.6363792   5.0747094  27.4540043  25.2375526   6.0655212  26.0244007
  26.1020298   4.1814284  25.6345024  25.2217712   3.6884007  25.6811352
  26.3779411   4.3057084  24.6709003  26.7463741   3.4761922  25.9624691
  30.1415348   9.8650255  27.8894329  30.4490986  10.5679340  26.8820190
  31.0563736   9.6308422  28.8477669  30.7674866   8.9562445  29.5417137
  32.4757271   9.9829588  28.8907452  32.8169899   9.7889919  29.9076099
  33.2831345   9.1671381  27.8865414  32.8743820   9.4051008  26.9045048
  34.3182068   9.5078459  27.9119186  33.2556000   7.7029009  28.1303654
  33.7542152   7.4787197  29.0733547  32.2604027   7.2724333  28.2416534
  33.9386482   7.0362511  26.9860039  33.4957733   7.4036102  26.0602570
  34.9782219   7.3624153  27.0177612  33.7445107   5.5058346  27.1022854
  34.2202110   5.2052326  28.0357971  32.6832657   5.2581649  27.1251488
  34.3123360   4.8392315  25.8874817  34.3563919   3.8318443  25.9451904
  33.6886940   4.9975052  25.1089363  35.2471352   5.1521220  25.6676025
  32.7294159  11.5216475  28.7552891  33.3122978  12.0256186  27.7528896
  32.1623802  12.2575798  29.6768074  31.8711510  11.7187386  30.4798870
  32.1888199  13.7009659  29.6370716  32.7454529  14.1562786  28.8179531
  30.7652302  14.2335243  29.4427223  30.4428673  13.8406019  28.4784641
  30.0807018  13.8588762  30.2037487  30.6312084  16.0535641  29.4834156
  31.5846710  16.2565594  28.5698547  32.8146553  14.2242079  30.9337540
  32.6396484  13.5717058  31.9537258  33.5030479  15.3904791  30.9048862
  33.6385002  15.8359737  30.0086231  34.1086502  15.9118347  32.1358681
  33.7568169  15.4325428  33.0494308  35.6680222  15.7800760  32.1070099
  36.0130539  16.4760227  31.3423481  36.2246094  16.2377224  33.4605827
  36.1832390  17.3184624  33.5961876  35.8998032  15.6833639  34.3410835
  37.3030128  16.1190491  33.3553886  36.1633797  14.3707914  31.7602806
  36.7791557  13.9510927  32.5557518  35.3070869  13.6963644  31.7644272
  37.0061493  14.3433237  30.5480061  37.7431335  15.1430893  30.6210079
  37.5868492  13.4247713  30.4634457  36.4088898  14.5264034  29.6547737
  33.8133278  17.4269791  32.2288666  33.8520775  18.1446362  31.2420120
  33.4964905  17.8651180  33.4399872  33.4579468  17.2587070  34.2467613
  32.9039268  19.1988850  33.6160088  32.8385277  19.7964153  32.7067337
  31.3960075  19.1839485  34.0753632  31.3175888  18.8354416  35.1051674
  31.1252823  20.2362785  34.1614380  30.3922367  18.3013840  33.2581406
  30.5768471  18.5379143  32.2102509  30.6793537  17.2502251  33.2311401
  28.8658028  18.3993988  33.5585823  28.3599777  19.2932796  33.1935959
  28.4317837  17.5582733  33.0179939  28.5655537  18.0725060  34.9487877
  28.6445351  17.1236115  35.2856293  28.1545067  18.8818493  35.9303131
  27.5983696  19.9916592  35.6691742  27.2976494  20.5272198  36.4709511
  27.2860203  20.1337280  34.7192497  28.3381844  18.6470699  37.1710472
  27.9881992  19.2541313  37.8984299  28.9147491  17.8395329  37.3596306
  33.7374687  20.0741253  34.5602875  34.6414604  19.5618439  35.1986656
  33.4583740  21.3684826  34.6259193  32.7250786  21.6083851  33.9741325
  34.1306839  22.5386581  35.3356094  34.7167130  22.0549507  36.1170845
  35.0432587  23.3712749  34.3800583  34.4578323  23.9362049  33.6546440
  35.7928696  24.5145302  35.2119179  35.1311684  25.3474884  35.4494896
  36.1653595  24.2010612  36.1871567  36.5346413  25.0588722  34.6274834
  36.1366158  22.4516335  33.8065262  36.9199638  23.0399837  33.3287086
  36.6033058  21.8265362  34.5678139  35.5201073  21.8915424  33.1034546
  33.0743675  23.5144958  35.9679184  32.0844040  23.8267822  35.3604431
  33.3811150  23.9961166  37.1407890  34.1952629  23.5769825  37.5669212
  32.6674309  25.0517921  37.8424301  32.1473999  25.7957935  37.2389946
  31.6181202  24.3497505  38.7303276  30.7878304  24.0298653  38.1007271
  31.9073849  23.4711227  39.3069000  30.9958420  25.2771568  39.7399254
  30.2170753  24.6692429  40.2004318  31.7513847  25.6212444  40.4462280
  30.1822586  26.6591606  39.0340919  29.0110531  26.9700661  40.3360977
  28.2789249  26.1682663  40.2401466  29.5437775  26.9316959  41.2862701
  28.6505337  27.9927368  40.2253227  33.6710243  25.8119698  38.7192650
  34.6550179  25.2797585  39.2108879  33.5283165  27.1095695  38.7991638
  32.6851120  27.4617290  38.3689308  34.4722214  28.1603813  39.2261772
  35.1406860  27.8447170  40.0271835  35.1775093  28.6627312  37.9210434
  35.5592461  27.8279400  37.3332443  34.5042381  29.3220100  37.3731804
  36.2160187  29.6870918  38.3279343  35.7593079  30.5437813  38.8235092
  36.9626732  29.2526798  38.9926834  36.9855156  30.5007801  36.8484535
  37.9899063  29.0725403  36.2432938  38.7238007  28.9248409  37.0355644
  37.3789558  28.1722126  36.1781235  38.4236908  29.2258301  35.2551460
  33.7112579  29.2924023  39.8076172  32.7179642  29.6846447  39.2554550
  34.3366737  29.9000759  40.8286705  35.1441116  29.4720554  41.2587204
  34.0886307  31.2370300  41.3048973  33.3835793  31.7540092  40.6539497
  33.4839935  31.2396851  42.6976318  33.6106491  32.2728920  43.0209618
  32.0141563  30.9089737  42.5736809  31.5449371  30.8750095  43.5569344
  31.4691963  31.7158623  42.0837326  31.7952423  29.9971561  42.0180168
  33.9830132  30.3278980  43.6184616  34.3268738  29.6069012  43.0859909
  35.3700256  32.1253052  41.3477821  36.4134178  31.6420841  41.8027611
  35.2648582  33.4327850  40.9115601  34.4109306  33.8137360  40.5297470
  36.4016190  34.3437729  40.7832565  37.1131210  34.1034126  41.5732536
  36.9798851  34.1837006  39.3647346  37.2080688  33.1235504  39.2546387
  35.9589729  34.4865189  38.2427444  36.2545547  34.2861977  37.2128906
  35.0309334  33.9278717  38.3642082  35.5461655  35.4897156  38.3489761
  38.1716919  35.0410423  39.0142822  37.9231682  36.0529518  39.3342667
  39.0718231  34.6980171  39.5243797  38.2985382  35.0490341  37.9317169
  35.8866806  35.8001022  40.9872169  34.7274170  36.0060501  40.7781944
  36.7509117  36.7056503  41.4328766  37.7234497  36.4691010  41.5681915
  36.2732697  38.0968704  41.7010956  35.2285919  37.9782524  41.9886436
  37.0291748  38.7340431  42.9141731  36.3340569  39.4079971  43.4148712
  37.3369446  38.0318832  43.6889954  38.2915764  39.4629974  42.5013580
  38.9745064  38.9914970  41.7946777  37.9031410  40.3617210  42.0222816
  39.1103210  39.8719482  43.7285042  38.5915794  40.4337883  44.7343063
  40.3532715  39.5041046  43.7925377  40.8931732  39.5560913  44.6445389
  40.8707466  39.1184120  43.0156441  36.3434372  38.9020386  40.3147087
  37.3682022  38.7890778  39.6081886  35.2332764  39.5233612  39.8101006
  34.4623680  39.4670830  40.4602051  35.1630630  40.2244606  38.5607262
  36.0345001  40.8764153  38.5002785  35.1609840  39.2836876  37.3000298
  35.9961815  38.5960426  37.4330139  33.8574371  38.4217529  37.2080879
  34.0871162  37.6416397  36.4822998  33.8441658  37.9314804  38.1815147
  32.9598541  38.9834175  36.9492950  35.2822151  40.0303841  36.1400757
  35.0405235  39.3943748  35.4628181  34.0324440  41.2305603  38.5554085
  32.9495506  41.0118065  39.0387993  34.3166618  42.4160500  38.0370865
  35.2371902  42.4553947  37.6233444  33.3773804  43.4919128  37.7650108
  32.7653580  43.6826935  38.6465607  34.1697960  44.8095818  37.4456520
  33.3140984  45.4757538  37.3356895  34.7384720  45.0326500  38.3483963
  35.1706696  45.0361748  36.3365593  35.4539909  44.2249718  35.4317627
  35.7787895  46.1498260  36.3072319  32.4170609  43.1685143  36.6386566
  31.5196781  43.9596176  36.3893356  32.6434402  42.1124153  35.9263802
  33.4273300  41.5080414  36.1272621  31.7883472  41.6891670  34.8019867
  31.4056301  42.5463104  34.2479706  32.6646309  40.9672661  33.8021812
  33.1626205  40.1381836  34.3049164  31.7251873  40.4961166  32.6329613
  30.9189606  39.8495216  32.9794006  31.3080444  41.2841530  32.0059891
  32.2597961  39.8437500  31.9425182  33.6135979  41.9148674  33.1226883
  33.3050880  42.9062462  32.7908821  34.2940674  42.2183113  33.9182892
  34.2942619  41.4674492  32.3983841  30.5521660  40.8754501  35.2559853
  30.8189716  39.9046516  35.9966888  29.2793980  41.2431412  34.9565353
  28.8596153  42.2404366  33.9745102  29.3975716  42.0664711  33.0426064
  29.0558510  43.2856789  34.2133827  27.3503876  42.1262321  33.8023682
  27.1673012  41.3982735  33.0120163  26.8561573  43.0683327  33.5651207
  26.8465462  41.5314903  35.0904388  25.8520527  41.0856934  35.0717430
  26.8250370  42.3328857  35.8289528  28.0192127  40.6433525  35.4753761
  28.0818596  40.4137917  36.5390854  27.8604832  39.2296524  34.8265877
  28.2596970  39.0475502  33.6726456  27.0758743  38.3658485  35.4207916
  26.6328335  38.6725693  36.2750359  26.7924442  36.9568253  35.0780754
  27.7370205  36.4208031  34.9855881  25.9781513  36.4373512  36.2945404
  25.8153534  35.3848381  36.0625648  26.5576267  36.5468254  37.2112350
  24.5585766  37.0463600  36.4532852  24.6162224  38.0773048  36.8024673
  24.0473328  37.1347198  35.4946823  23.5620518  36.2171326  37.2593193
  22.5806675  35.7601089  36.7555428  23.7935562  36.1419907  38.5501366
  24.6648178  36.5290642  38.8835793  23.0515175  35.8554420  39.1725235
  26.2168236  36.6556664  33.6349831  26.4303589  35.5684624  33.1770172
  25.5921898  37.6550407  33.0508156  25.3942471  38.4786568  33.6008797
  25.0621910  37.6481514  31.6857224  24.9616737  36.6166725  31.3479919
  23.7726860  38.4759712  31.6356735  23.3170261  38.4869118  30.6455460
  23.1536903  37.8249588  32.2530289  23.8666534  39.8673401  32.2319756
  24.3584270  40.0217247  33.3467178  23.3397903  40.8180275  31.6503868
  26.1355572  38.1680870  30.6832333  25.8646240  38.1437073  29.4669991
  27.3034878  38.5823059  31.1519108  27.4282475  38.5314064  32.1528816
  28.4803600  38.9029236  30.3019447  28.1251469  38.8453178  29.2730579
  28.8334579  40.3935814  30.4523258  29.1564541  40.5770264  31.4770813
  29.6550789  40.6044540  29.7677994  27.6494141  41.2896156  30.0566177
  27.3766766  41.0855713  29.0212040  26.7843571  40.9877167  30.6470699
  27.8791103  42.7433434  30.2784634  29.0331860  43.2156563  30.2444859
  26.8077755  43.4673424  30.5769558  25.8436031  43.1666069  30.5714054
  26.9483891  44.4675064  30.5773392  29.6249561  37.8908958  30.3234291
  30.5822334  37.9132538  29.5077419  29.6162968  37.0810051  31.3513088
  28.9706917  37.3317299  32.0864563  30.5861988  35.9493828  31.4849110
  31.5692825  36.4107857  31.3913059  30.2482948  35.3291550  32.8498688
  29.1993294  35.0336418  32.8711700  30.9488029  33.9745560  33.1489677
  30.5981903  33.1387672  32.5434685  32.0292435  34.0618172  33.0343666
  30.7860222  33.6482964  34.1761780  30.3975983  36.2243843  34.0147591
  29.7595387  37.1054230  33.9458427  30.1702003  35.8468513  35.0116882
  31.8376484  36.7876625  34.1893082  31.9653568  37.5294380  33.4009171
  31.9367199  37.2703133  35.1615906  32.5744553  35.9861832  34.1359863
  30.4214191  34.9310951  30.3450565  29.3292065  34.6183929  29.9125614
  31.5050373  34.2959061  29.8285255  32.3812408  34.4784126  30.2965641
  31.5697956  33.4120941  28.6921425  30.5888920  33.3646049  28.2192001
  32.5194855  34.0792351  27.6841259  33.3700294  34.4780083  28.2369938
  32.8043289  33.2704430  27.0112076  31.7561493  35.2452087  26.9762001
  30.9143295  34.6857300  26.5682468  31.3866100  36.0150566  27.6536007
  32.5033150  35.9649925  25.8498249  31.8224907  36.6323814  25.3214588
  33.2802048  36.5354080  26.3589115  33.1791229  35.0625534  24.8795853
  34.1220016  34.7137909  24.9767551  32.6670303  34.6970749  23.7014008
  31.5152493  35.1398621  23.2539482  31.2807655  34.9682388  22.2866516
  30.8687191  35.5906105  23.8855534  33.3912201  33.9966087  22.9608383
  34.2698975  33.7314796  23.3824253  33.1020050  33.4641266  22.1528053
  31.8767605  31.9763641  29.0209980  32.9716759  31.5999660  29.4481468
  30.8732643  31.0928612  28.9366913  29.9982166  31.4555874  28.5862217
  31.0115261  29.6742458  29.2478180  31.7184887  29.6140938  30.0752811
  29.7225170  29.0710983  29.8347301  29.0520115  28.8451614  29.0055904
  30.0935516  28.1200924  30.2168598  29.1494808  29.9091282  30.9537945
  29.5781193  29.9587994  32.3112335  28.9791927  31.0123138  32.8294716
  29.1333561  31.4091110  33.8220367  28.1183205  31.5697250  31.9338417
  27.5695915  32.3658600  32.2256737  28.2254772  30.8931255  30.7447910
  27.7088585  31.1196651  29.8238163  31.5514259  28.8090630  28.0670490
  31.4209270  29.2554302  26.9134693  32.1659737  27.6337433  28.3081341
  32.1196632  27.2938118  29.2580814  32.8771286  26.8088169  27.3583946
  32.7291145  27.2076797  26.3548508  34.3872871  27.0191689  27.5918255
  34.6387177  26.6393738  28.5820980  35.2695580  26.1828518  26.6373005
  36.3278580  26.3990211  26.7834835  35.0801964  25.1423111  26.9009571
  35.0664558  26.4139729  25.5916309  34.7586746  28.5133152  27.5142975
  34.2519112  29.0122509  26.6882553  34.4642258  29.0134392  28.4369450
  35.8410378  28.5133610  27.3854923  32.4857254  25.2969055  27.3272438
  32.7303619  24.5566235  28.3055744  32.1100540  24.8960743  26.1697006
  32.0273590  25.6226940  25.4730759  31.6323471  23.6489525  25.8518848
  31.8582325  22.9664040  26.6711559  30.0402489  23.5929127  25.7863884
  29.6541061  24.3399830  25.0929337  29.7859344  22.5714226  25.5035591
  29.4774456  23.8406277  27.1357079  29.1097889  22.7976799  28.1098499
  29.3153419  21.7691841  27.8522778  28.6680889  23.2280979  29.3292370
  28.3889160  22.4650116  30.0406876  28.4486580  24.5849476  29.6229115
  27.8947716  24.9201717  30.8466339  27.3016300  24.2158890  31.1182423
  28.8134575  25.6328087  28.6828842  28.5021515  26.6660633  28.7262192
  29.3490906  25.2416286  27.4228477  29.4518318  25.9747448  26.6364746
  32.2916527  23.2137623  24.5036659  32.3903236  24.0784245  23.6088963
  32.7858353  21.9591331  24.5032883  32.4428787  21.4276981  25.2907257
  33.8383369  21.4058361  23.6116543  33.7782021  21.7731686  22.5871773
  35.2045212  21.6680870  24.3031483  35.1711273  21.2381706  25.3042259
  35.9639816  21.0740643  23.7947655  35.5735321  23.1829929  24.2953148
  34.8094749  23.7865314  24.7852688  36.8870697  23.4833202  24.9056396
  36.9794350  22.9888287  25.8726234  37.7007523  23.0466042  24.3265915
  37.1006546  24.5363102  25.0891914  35.5675888  23.6575375  22.8507767
  36.2675972  23.0282688  22.3011265  34.6012459  23.6799221  22.3470116
  35.8837166  24.7000160  22.8882599  33.6883278  19.9327412  23.3211498
  32.8877029  19.2164803  23.9458828  34.4011536  19.5110149  22.3327007
  35.0498695  20.1041946  21.8353004  34.2460556  18.1087475  21.8065491
  34.8559456  18.2686081  20.9174023  35.0868416  17.1395016  22.6925316
  34.6959915  17.0246429  23.7035427  34.9222527  16.1347237  22.3033886
  36.5952568  17.4677143  22.7395363  36.6293755  18.5482635  22.8786507
  36.9388466  16.9990501  23.6617088  37.4154320  16.7901611  21.6139297
  38.4010963  17.3742657  21.1252041  37.2852707  15.5887060  21.3549557
  32.8064880  17.6957874  21.4660702  32.0688210  18.4915409  20.8606968
  32.2952499  16.5498314  21.9203415  32.8359451  15.9135132  22.4885406
  30.9350033  16.1133518  21.7267189  30.5445976  16.3588181  20.7390785
  30.9203072  14.5663109  21.6775074  31.2173309  14.0662785  22.5993786
  29.8881798  14.2424259  21.5436745  31.6469746  13.9866800  20.4968491
  31.1373787  14.3400936  19.6004620  32.5742722  14.5594158  20.5107727
  31.8411942  12.4665337  20.5633049  32.3863907  12.2607098  21.4844456
  30.8987503  11.9215269  20.5096951  32.7430420  11.9733772  19.4252453
  32.3685913  11.8399467  18.4103165  33.6713829  12.5442247  19.4046192
  33.1358528  10.6064548  19.6876678  32.3320923   9.9969893  19.6364365
  33.7162666  10.2556114  18.9392509  33.6195602  10.4155798  20.5535164
  29.9020348  16.5684605  22.7664642  28.7589035  16.4206581  22.5743141
  30.4392319  17.2840214  23.7766762  31.4430122  17.3826847  23.8295002
  29.7215424  18.0707855  24.7336903  28.8693218  17.6030636  25.2266979
  30.4888630  18.3972225  26.0140591  30.8226471  17.4960022  26.5283470
  31.3040485  19.0862389  25.7930851  29.8306332  18.8412476  26.7608356
  29.2729282  19.4565754  24.1650600  28.8162861  20.3339291  24.9514999
  29.4020576  19.7840309  22.8523464  29.9166355  19.1499367  22.2580109
  28.9996033  21.0872364  22.2635612  29.6080971  21.8436699  22.7591953
  29.2322254  21.1051788  20.7330666  28.6041107  21.8707333  20.2775459
  30.6772633  21.5751743  20.3598557  31.3625946  20.7988014  20.6999493
  30.7091904  21.6836510  19.2757359  30.9782887  22.5173054  20.8179741
  28.9537163  19.6897831  20.1387291  28.8273048  19.7433167  19.0574093
  29.6559734  18.9051380  20.4202728  27.9525967  19.3255177  20.3693180
  27.5476589  21.4350605  22.5187607  27.2025967  22.5759487  22.5626583
  26.6624908  20.4621696  22.6395531  26.9877090  19.5213032  22.4689617
  25.1650238  20.5703983  22.9053726  24.8754482  21.5303421  22.4778748
  24.3841572  19.5482998  22.0811062  23.3409309  19.8391972  22.2042179
  24.5709457  19.4208431  20.5296917  24.5892982  20.4291573  20.1160889
  25.5968380  19.0747318  20.4037476  23.8751030  18.7503128  20.0254173
  24.4587212  18.1954155  22.7050743  23.7373295  17.6177502  22.1271439
  25.4603691  17.7655506  22.7093887  24.0670986  18.3518257  23.7101936
  24.8206882  20.6814518  24.4051991  23.7988052  21.2307911  24.8000011
  25.7818604  20.3745232  25.2767925  26.6488628  20.0161972  24.9026012
  25.7955780  20.4531307  26.8053093  24.8398361  20.0152931  27.0933380
  26.9325123  19.5245934  27.2681618  27.0245419  18.6447468  26.6313725
  27.9356194  19.9507027  27.2506161  26.7835236  19.0001507  28.7290173
  26.1539040  19.6406231  29.3466511  25.9167614  17.7574844  28.6527214
  25.5637913  17.4513359  29.6375008  25.0630627  18.0143566  28.0255718
  26.4632568  16.9755554  28.1254349  28.0502262  18.5559826  29.5127773
  27.7084579  18.0666809  30.4248543  28.6879807  17.9394054  28.8793716
  28.5478668  19.4827881  29.7982349  25.7631454  21.8820057  27.4230061
  25.8225346  22.0808506  28.6733971  25.7067413  22.8601418  26.4846668
  25.6910248  22.6093826  25.5064163  25.6029873  24.2783070  26.9168243
  26.5491924  24.4767437  27.4202290  25.4289341  25.1805058  25.6149597
  25.3928032  26.2269802  25.9177570  26.2945499  25.1205101  24.9552555
  24.2388325  24.9115410  24.6865425  24.3399849  23.8326588  24.5687046
  23.3011875  25.3131294  25.0707912  24.4165897  25.4294682  23.2751827
  25.0468102  26.3099442  23.4004288  24.8872681  24.6015587  22.7449684
  23.1271286  25.8417950  22.7278366  22.2758980  25.5024033  23.1524754
  23.0676708  26.8820858  21.9117355  24.0554562  27.6588688  21.4659138
  25.0381184  27.4603825  21.5887127  23.8908043  28.3699226  20.7677784
  21.9149323  27.2783279  21.3888130  21.1913624  26.5806923  21.4881172
  21.9189739  27.8448410  20.5526619  24.3712635  24.5343380  27.8348732
  23.4319687  23.7456779  27.7920780  24.2477474  25.6403751  28.6264496
  25.3097401  26.6504135  28.7959404  25.6301060  27.0631866  27.8393402
  26.2206116  26.1977596  29.1877613  24.7275581  27.7041435  29.7246037
  24.2498398  28.4618816  29.1035423  25.4847393  28.1585617  30.3635750
  23.7092648  26.8610668  30.5434608  23.1422253  27.5872631  31.1258736
  24.2846050  26.2709770  31.2568169  23.1057873  25.9336548  29.5006313
  22.6858940  24.9969273  29.8671398  21.8639660  26.5429211  28.8174324
  20.9896355  27.1464214  29.4186153  21.7998734  26.3077717  27.5169659
  22.6432400  25.9835243  27.0656300  20.7042694  26.7284222  26.6532478
  21.1410236  26.7688217  25.6553936  19.5983601  25.6069489  26.5035820
  20.2232990  24.7415848  26.2829018  19.0827637  25.4708576  27.4542351
  18.6137962  25.8474731  25.3652229  19.0460739  26.3093491  24.2809944
  17.4569817  25.4059315  25.5422745  20.1653004  28.1408043  26.8646412
  18.9625931  28.3553905  27.0477829  21.0260677  29.0934429  26.9620609
  22.0106983  28.8706360  26.9311047  20.6146564  30.5177402  27.1417980
  20.0032177  30.5384254  28.0439205  21.6916409  31.5669994  27.3513660
  22.0466328  31.9728889  26.4040890  21.2080383  32.3942680  27.8708496
  22.9033070  31.0871162  28.1364059  23.4098701  30.2679787  27.6260071
  23.8524952  32.2265244  28.4111462  24.3506393  32.6595230  27.5436954
  23.3114586  33.0328255  28.9063816  24.6338711  31.9465008  29.1176434
  22.4284096  30.6263485  29.5298729  22.1009865  31.4307880  30.1884842
  23.3335018  30.2935333  30.0379505  21.7195206  29.7994728  29.4868679
  19.7068806  31.0159836  25.9918175  19.6672935  30.5492477  24.8385849
  18.8066559  31.9812050  26.3434906  18.9438381  32.3270073  27.2824802
  17.7112598  32.4416504  25.4634800  18.1547203  32.5471916  24.4733772
  16.5329819  31.5277119  25.5492268  16.8626652  30.5492783  25.1998272
  16.0556717  31.5481014  26.5289516  15.4693012  32.0457840  24.7943020
  14.6639643  31.7068977  25.1920319  17.2302723  33.8343048  25.8925323
  16.9626884  34.0823021  27.0682850  17.1019344  34.7171783  24.8898335
  17.2683830  34.3191414  23.9766178  16.5505619  35.9785271  24.9829521
  17.0464363  36.5262413  25.7843361  16.7831745  36.7266960  23.6470757
  17.8625107  36.8444824  23.5508461  16.5132198  36.0098190  22.8716354
  15.9567604  37.9666634  23.4205303  14.8845091  37.7914238  23.5081120
  16.3217278  39.1895180  24.3412609  17.3988342  39.2820473  24.4804935
  15.8290634  39.1044235  25.3098373  15.8490677  40.0444603  23.8577709
  16.2500610  38.2669411  21.9654522  16.2663269  37.4100533  21.2919769
  15.5902891  39.0273323  21.5475903  17.2512798  38.6897850  21.8825951
  15.0784473  35.9225922  25.4593525  14.6316719  36.7647285  26.2214355
  14.2816782  34.9124069  25.1435623  14.6611271  34.1224136  24.6415405
  12.9309597  34.7274094  25.6361771  12.4487391  35.6996269  25.5344143
  12.0507259  33.6883507  25.0037575  11.0440693  33.6335106  25.4181671
  11.9768658  33.8458366  23.5047398  11.0155144  34.3298225  23.3325424
  12.7651224  34.4870148  23.1102276  11.9806271  32.9388924  22.9001408
  12.7141304  32.4054985  25.2415619  12.3809776  31.7460804  24.6285553
  12.8262701  34.5477562  27.1282177  11.7651281  34.7479591  27.6823864
  13.9562998  34.3348732  27.7880726  14.8026237  34.4227943  27.2439175
  14.1362963  34.0545616  29.2189121  13.1656284  33.8798370  29.6829967
  14.9011126  32.7297668  29.3106174  15.8097763  32.7952652  28.7121677
  15.2551661  32.6077423  30.3342648  14.1743135  31.5109310  28.7946720
  13.2969532  31.2754402  29.3970737  13.9639120  31.5790272  27.7273426
  15.0814924  30.3285065  28.9951019  15.7071962  30.3220253  28.1026039
  15.7236309  30.4589653  29.8661594  14.3555126  29.0245552  29.1037025
  13.6420279  28.9922867  29.9271088  13.7534151  28.8098717  28.2208138
  15.3757696  27.9848404  29.2724037  16.0870991  28.0999546  28.5646877
  15.7822828  28.0441875  30.1950760  15.0788021  27.0731297  28.9550838
  14.7537136  35.2426872  29.9130402  15.0864706  35.1924744  31.1310520
  14.8189592  36.3681259  29.2265701  14.5734186  36.3698921  28.2468719
  15.1824169  37.6148720  29.7904282  16.0130978  37.5267525  30.4906464
  15.7169666  38.6366959  28.7559090  15.0549898  38.7466202  27.8969536
  15.8778572  39.6301346  29.1745892  17.1129513  38.2201920  28.2581615
  17.6656151  37.1383858  28.5185051  17.7409134  39.1017990  27.5185452
  17.3257389  39.9707527  27.2141438  18.6671238  38.8976669  27.1713238
  13.9841795  38.1919441  30.6145267  12.8383408  37.9215393  30.3603172
  14.2080507  38.9412270  31.7074909  15.1679688  38.9261246  32.0212250
  13.3062449  39.6661491  32.5690765  12.4807463  39.0633125  32.9475441
  14.0488567  40.1130447  33.8466034  14.9374533  40.6992264  33.6123238
  13.2795925  41.0228233  34.7318077  13.2122087  42.0122757  34.2795410
  12.2657022  40.6361275  34.8347359  13.8251152  41.2623062  35.6445808
  14.3802004  38.9793510  34.6459427  15.0526628  38.5239220  34.1341057
  12.7474575  40.8614464  31.9407845  13.4164391  41.8169250  31.5167789
  11.3882113  40.8506012  31.8926620  10.9208670  40.1909218  32.4980659
  10.6468639  41.9820862  31.4229145  11.2709618  42.4963493  30.6920700
   9.3362751  41.5659828  30.7684593   9.4404449  40.8949547  29.9158344
   8.9092083  40.9058876  31.5234337   8.2625666  42.5320282  30.2599907
   7.3528872  42.0269890  29.9351540   8.0134611  43.1744232  31.1046047
   8.7505312  43.5240211  29.1346893   7.8873367  44.2418175  28.5568390
   9.9693775  43.7015266  29.0095882  10.5340729  43.0385246  32.5049477
  10.1962185  42.6538773  33.6771927  10.6117887  44.2621880  32.1488190
  10.7679901  44.3355827  31.1536713  10.5513248  45.3995285  33.1295547
  10.4623842  44.9987755  34.1393051  11.8513079  46.1797943  32.8619194
  11.7156363  46.5635834  31.8507824  11.8912134  46.9741592  33.6072311
  13.1682959  45.3207626  32.9667549  13.1013651  44.4596291  32.3018646
  14.3247395  46.2153130  32.5737839  15.2087126  45.7206573  32.9762802
  14.4365091  46.1948090  31.4897232  14.0761862  47.1920700  32.9888306
  13.4624901  44.8913460  34.4828529  13.8171263  45.7521095  35.0497894
  12.5469322  44.4961052  34.9228973  14.2594023  44.1509323  34.5522614
   9.2736378  46.2503967  32.9513817   8.1562881  45.7711678  33.3972931
   9.3521433  47.4118080  32.3908043  41.2642441  42.2018166  51.1177177
  41.4767494  42.0005379  50.1510582  40.7870827  43.0915833  51.0907021
  42.1372223  42.2561073  51.6227570  40.3883858  41.1941452  51.7729149
  41.0167046  40.3571205  52.0773888  39.7467117  41.6709785  53.0667458
  40.4857063  41.9446793  53.8197899  39.2987175  42.6351547  52.8264084
  38.6456985  40.6513977  53.5130081  37.8180695  40.8196907  52.8239441
  38.9786301  39.6362343  53.2969055  38.0035248  40.8892097  55.1876488
  39.0694618  39.8276062  56.1097946  38.6310539  39.6787071  57.0965767
  39.1617088  38.8581467  55.6201630  39.9850197  40.3429146  56.4001579
  39.3660049  40.6602478  50.8013840  38.5601654  41.4401779  50.2669640
  39.3029747  39.3798714  50.5609779  39.8906441  38.7464867  51.0840149
  38.2003021  38.6619110  49.8106575  37.2529259  39.1995316  49.8499527
  38.5936356  38.5902672  48.2792206  37.6984062  38.4331360  47.6775742
  39.0101738  39.5630188  48.0177917  39.6308937  37.3925743  48.0355339
  40.5708160  37.4218102  48.5867081  39.1775246  36.4699440  48.3978920
  40.1007919  37.2485886  46.2932014  38.8759842  36.0287514  45.7199059
  37.9081268  36.5268135  45.6625099  39.2085915  35.9036293  44.6894608
  38.9085236  35.0274124  46.1492767  37.8365707  37.2546883  50.3876648
  38.7020912  36.6341362  51.0241814  36.7540169  36.6528816  49.9590569
  35.9974632  37.1786575  49.5451927  36.3885765  35.2604599  50.3009491
  36.4505348  35.1146355  51.3793755  34.8850746  34.9319611  50.1010017
  34.8193054  33.8883438  50.4086342  33.9921341  35.8184319  51.0694084
  34.2734604  36.8612823  50.9230804  32.9230652  35.6352539  50.9615059
  34.2922401  35.4068069  52.0330467  34.4883461  35.0495872  48.6335602
  34.5414009  36.1011047  48.3514328  35.1253166  34.5166512  47.9276276
  33.0651131  34.4952087  48.3966179  32.8852005  34.7690392  47.3570328
  33.0101051  33.4095726  48.4770622  32.3324127  34.8666039  49.1130791
  37.3569832  34.2896767  49.6377068  37.6130562  34.4616508  48.4428864
  37.7838287  33.2361259  50.2741737  37.6432877  33.3147278  51.2712517
  38.5939636  32.0472183  49.7298927  38.4269676  31.9431095  48.6578026
  40.0818062  32.4405899  50.0068588  40.3121796  32.4322014  51.0722008
  40.6422844  31.6208134  49.5574837  40.6257439  33.6699486  49.3362503
  40.2859001  33.7281494  48.3022194  40.2045212  34.5925522  49.7356071
  42.1612701  33.5989037  49.3174324  42.4812431  33.5163498  50.3561325
  42.5599556  32.6911926  48.8644295  42.6347885  34.9211044  48.6896210
  43.0361137  35.5933075  49.3277359  42.7689743  35.1267471  47.3755608
  42.2340202  34.2650070  46.5040512  41.8169899  33.3893738  46.7859268
  42.3720932  34.3562775  45.5077057  43.4153137  36.1131134  46.7990990
  43.5180206  36.2569542  45.8046837  43.5900383  36.9539108  47.3307343
  38.3024826  30.6880779  50.3597679  37.6858978  30.7155457  51.4345818
  38.4974136  29.6086235  49.6350899  38.9652519  29.7224159  48.7472343
  38.3374062  28.2151623  50.1896248  37.4308624  28.2280369  50.7946930
  38.0247498  27.6328602  49.3228683  39.5875664  27.6448040  50.9841347
  40.7488213  27.8526173  50.5614357  39.2890625  26.7559261  51.9302711
  38.3540001  26.7537746  52.3120422  40.2850761  25.8054829  52.6124115
  41.2840424  25.8522644  52.1788483  40.4300613  26.1911602  54.1509972
  39.5143852  25.9868412  54.7058792  41.4888496  25.3868313  54.8191910
  41.5033035  24.2997150  54.7412453  42.4663048  25.7508030  54.5026360
  41.4315109  25.6574001  55.8735199  40.6802444  27.6948090  54.3257523
  41.4064331  27.8636055  55.1208954  41.2993927  28.1429462  53.5486221
  39.5178566  28.6584759  54.6183777  39.8792267  29.6827641  54.7097778
  38.7237549  28.6585579  53.8717194  39.0763512  28.3614922  55.5696754
  39.8231201  24.3208179  52.5350266  38.8322067  23.8550739  53.0353851
  40.7680435  23.5956478  51.8418198  41.5389519  24.1012650  51.4293251
  40.7862320  22.1335430  51.5519714  39.7773819  21.7325897  51.4541969
  41.4809952  21.8359776  50.2356224  42.3284264  22.4980907  50.0579567
  41.9428711  20.8506355  50.2979164  40.5349541  22.0125751  48.9946747
  40.1993866  23.0379295  48.8392868  41.1316681  21.8047428  48.1065063
  39.2599945  21.1435890  48.8771095  38.4452858  21.6104279  49.4306526
  38.8850937  21.0793533  47.8556290  39.4076080  19.7621727  49.4363556
  38.9791679  19.6732445  50.3466492  40.2442245  18.8159313  49.0383453
  40.9529915  18.8296700  47.9686699  41.6652260  18.1367741  47.7877693
  40.7550011  19.5772762  47.3190651  40.4527893  17.8219357  49.8025284
  41.1494942  17.1507607  49.5123062  39.8599052  17.6297722  50.5973015
  41.4677811  21.3647041  52.6229324  42.3893051  21.7666359  53.3164062
  40.9702148  20.1428394  52.8980522  40.0869408  19.8743038  52.4883919
  41.5536842  19.1419525  53.7377243  42.6123619  19.1543465  53.4785919
  41.4620590  19.4641953  54.7749634  41.0366135  17.7117767  53.5237350
  40.1444054  17.4784985  52.7253418  41.6120224  16.7659512  54.1961098
  42.2668839  17.0117416  54.9247017  41.1625748  15.4401350  54.3250198
  40.0822601  15.4507809  54.4696007  41.5931053  14.6114035  53.1294327
  41.1458092  13.6244993  53.2479401  41.2118568  15.0352230  52.2003860
  42.6806717  14.5409985  53.1113472  41.6214981  14.7157402  55.6460419
  42.5601578  15.1192656  56.3698578  40.8817024  13.5778713  55.9161110
  40.0879745  13.2752857  55.3697243  41.1816597  12.5482721  56.9502296
  42.2583961  12.3956804  56.8763008  40.8722572  13.0342083  58.3997192
  41.3241501  14.0151176  58.5470772  39.4133110  13.0220375  58.7080421
  38.9189339  13.5846224  57.9160881  38.9693108  12.0299015  58.7894630
  39.3237953  13.5072823  59.6799583  41.5681343  12.2693014  59.3287659
  41.4315605  12.6498508  60.1994743  40.5717773  11.2036610  56.5765877
  39.4647522  11.1269131  55.9906540  41.2761459  10.1698513  57.0106010
  42.1869774  10.1951828  57.4463120  40.7994537   8.8381882  56.8035393
  39.9577789   8.9248161  56.1163864  41.7848625   7.9785266  56.0413628
  41.3730125   6.9698782  56.0080452  42.3655472   8.4835768  54.6673622
  42.9164658   9.4204350  54.7503433  43.0120392   7.7349944  54.2093506
  41.5252266   8.6281776  53.9883537  42.9284935   7.9331713  56.8902130
  42.6970329   7.2740221  57.5486565  40.2673798   8.0797396  58.1128235
  40.7982635   8.3690453  59.2047577  39.1599960   7.3642859  58.0232582
  38.6991005   7.1536417  57.1495857  38.9005241   6.4723382  59.1300049
  39.4212532   6.8599496  60.0056190  37.4050598   6.5120215  59.5284805
  37.3833733   5.7818513  60.3374863  37.0202141   7.9082441  60.0165215
  37.8817177   8.5038977  60.3183746  36.6487427   8.4217157  59.1296997
  36.2360115   7.8447285  60.7709045  36.4397926   5.9033399  58.5254250
  36.3944168   6.4307528  57.5725975  36.7319717   4.8725886  58.3247185
  35.4383354   5.9349213  58.9545937  39.3613396   4.9928484  58.8921509
  39.6764145   4.6365600  57.7414703  39.2348366   4.0935068  59.8756218
  38.9087257   4.4362283  60.7679749  39.4047318   2.5950787  59.6583214
  39.8984718   2.3897948  58.7084846  40.5348816   2.1899028  60.6128311
  40.3759117   2.6402874  61.5926170  40.5219383   1.1014160  60.6687698
  41.9425240   2.5535707  60.2692947  41.9367867   3.6226888  60.0570335
  42.6270981   2.4312110  61.1086311  42.5996666   1.8826863  59.0050240
  42.0687180   0.9051256  58.4441071  43.5993042   2.4014025  58.4678497
  38.1503143   1.6501613  59.7761803  38.0827827   0.6704558  59.0699005
  37.1648254   2.0916684  60.5959511  37.3881302   2.9570346  61.0664597
  35.8533173   1.3724513  60.8456841  35.8554688   0.3902667  60.3730240
  35.5764503   1.2255566  62.3170700  35.8631248   2.1285760  62.8560257
  34.5011749   1.1675731  62.4859657  36.1878929  -0.0692472  62.8927650
  36.0254402  -0.9009441  62.2072029  37.2584724   0.1353001  62.9037628
  35.7226219  -0.3988893  64.2957611  34.6353226  -0.4538026  64.3492889
  36.0317841  -1.3803674  64.6552353  36.1510963   0.5987666  65.2899246
  36.7742882   1.3556246  65.0472412  35.4791069   0.8618270  66.3790665
  34.6714287  -0.0342128  66.7971268  34.7994537  -1.0105880  66.5726242
  34.3105316   0.2213789  67.7051620  35.6558189   1.9933230  66.9791641
  36.3897171   2.6466184  66.7452698  35.1695633   2.0479455  67.8627167
  34.7453423   2.2892418  60.3088531  34.7722855   3.4586055  60.5211525
  33.8021202   1.7573310  59.4920464  33.7473564   0.7513890  59.5640297
  32.6226845   2.5876286  59.1017494  32.8729591   3.5717399  58.7055321
  32.0186081   1.8100586  57.8852577  32.7331657   1.8183994  57.0621910
  31.8261585   0.8047159  58.2598991  30.7574940   2.3919768  57.3677063
  30.5606861   3.6376402  57.4084129  29.9735069   1.5297402  56.8521843
  31.5695877   2.6224451  60.2352219  30.7673435   1.6979359  60.3397903
  31.6201744   3.5822096  61.1860428  32.3755913   4.2507105  61.1355286
  30.6760597   3.7296877  62.3480301  29.7358265   3.4370811  61.8806496
  31.1068783   2.6887686  63.3732452  31.2004852   1.6717927  62.9923248
  32.4262810   2.9628563  64.1194839  32.4346466   2.5615628  65.1328888
  33.2522316   2.3847737  63.7050819  32.5835152   4.0236964  64.3144226
  30.0307846   2.6158366  64.3200302  29.2864189   2.3579738  63.7713699
  30.7043324   5.1741366  62.9001770  31.6081028   5.9025269  62.6001015
  29.7535381   5.6699924  63.7214012  29.1177216   4.9830360  64.1007843
  29.7445278   7.0470924  64.2846909  29.7588692   7.7497206  63.4514923
  28.3590698   7.2669120  65.0406876  28.3564396   6.6687188  65.9518738
  28.3248978   8.2951574  65.4007645  27.0361938   7.1617818  64.3652573
  26.3628845   7.6294637  65.0836105  27.0658436   7.6491246  63.3907204
  26.5697021   5.7258463  64.1773376  27.1814785   4.7568240  64.4714890
  25.4095993   5.6244578  63.6573334  30.7627697   7.4458752  65.2499542
  31.3287067   8.5121031  65.1357040  31.2612953   6.5864191  66.1396713
  30.7204914   5.7364597  66.2117920  32.4045181   6.8268433  67.0086975
  32.1663513   7.8107672  67.4127655  32.3170662   5.8264871  68.1690521
  33.0826340   6.3118391  68.7743988  31.3926086   5.8210921  68.7465057
  32.6713333   4.3749580  67.7170410  31.6886787   4.0792284  67.3495712
  33.4596672   4.3858438  66.9643707  32.9630051   3.5190706  68.8600845
  32.0379486   3.3291676  69.6720428  34.0916443   3.0554237  69.0952454
  33.7429428   6.8795896  66.3265457  34.7548637   6.8895855  67.0022964
  33.8039627   6.7744069  64.9557343  32.8860893   6.6489754  64.5533905
  34.9858208   6.9264112  64.1103134  35.7564125   7.2460971  64.8118057
  35.2929420   5.6123719  63.4169655  34.4430237   5.2758155  62.8232689
  36.0691566   5.8415422  62.6868439  35.8512535   4.5055265  64.3617935
  34.9651604   4.1917386  64.9135818  36.2895660   3.7879450  63.6682053
  36.8512001   4.9557695  65.3671036  37.6070404   5.8149819  64.9871979
  36.9719467   4.3362699  66.4447327  34.7382584   8.0199909  63.0963745
  35.5038910   8.9494629  63.0690193  33.7368851   7.8978629  62.1611366
  33.1510773   7.0752730  62.1446037  33.4705086   8.9729805  61.2037201
  34.2802887   9.1100187  60.4870758  32.2346153   8.5649748  60.3539658
  31.3997936   8.3425694  61.0185814  31.8128338   9.6634588  59.4160309
  32.7354279   9.9883690  58.9350433  31.1830807   9.1813402  58.6683197
  31.2873631  10.3904696  60.0352592  32.5269089   7.2714710  59.4763832
  33.0634384   7.6326561  58.5990143  33.1702690   6.5912752  60.0345306
  31.3483906   6.3866477  58.9954414  31.7147064   5.4305902  58.6214600
  30.7200089   6.2580452  59.8767471  30.8197517   6.9120688  58.2000999
  33.4030037  10.4224434  61.7496567  34.1041451  11.3474541  61.3698959
  32.4354134  10.5670967  62.6732063  31.8791256   9.7626686  62.9252930
  32.1059074  11.9026709  63.2342567  32.1308327  12.4440260  62.2885170
  30.8421478  11.8966837  64.0544510  31.1030655  11.2680588  64.9058380
  30.5564175  12.8835888  64.4184265  29.5796719  11.2017622  63.5295677
  29.8228970  10.1637430  63.3027267  28.2894917  11.4776669  64.3666382
  28.2087040  12.5211716  64.6710510  27.3885365  11.0777931  63.9013634
  28.3423882  10.8928661  65.2849579  29.2674828  11.8858547  62.2668457
  28.4862404  11.3945236  61.6868896  29.1440372  12.9588528  62.4136047
  30.1417713  11.9047632  61.6161842  33.2962875  12.3982840  64.0561829
  33.5629578  13.5887766  64.0917053  34.0649414  11.5441914  64.7259521
  33.8937950  10.5494032  64.6911926  35.1549683  12.0093594  65.5335236
  34.8375168  12.9226131  66.0368042  35.4872017  10.9718800  66.6201019
  36.1213226  10.2752380  66.0717545  36.1720314  11.4786406  67.3000259
  34.4459953  10.1546774  67.4296112  33.7960205   9.6735249  66.6987762
  34.9028358   9.3461895  68.0003586  33.5821686  11.0917873  68.3280716
  33.2888412  12.2097483  68.0305862  33.1532173  10.7555141  69.4915771
  33.1810875   9.8163586  69.8621292  32.7424507  11.4968109  70.0409851
  36.3458672  12.4843178  64.7817307  36.7427025  13.6378031  64.9714813
  36.8263245  11.7252941  63.7860374  36.4201355  10.8200064  63.5974503
  37.9547615  12.1282015  62.9760323  38.7333107  12.5246038  63.6278191
  38.4479904  10.9761229  61.9499321  37.6108856  10.4132671  61.5369492
  39.0532799  11.5038805  61.2129135  39.4875679  10.1528645  62.6485596
  39.8282928   9.4127111  61.9245529  40.2732506  10.8089151  63.0232506
  38.9883919   9.2114477  63.7262917  38.5992317   9.7156773  64.6108322
  38.2159843   8.5644512  63.3105011  40.1673431   8.3605242  64.2431870
  40.6700554   7.7743044  63.4739494  40.8699379   9.0913839  64.6435699
  39.8173218   7.4154773  65.3106003  40.6417542   6.9665437  65.6832581
  39.3474617   7.9041724  66.0592728  39.2600822   6.6619830  64.9339981
  37.5727615  13.3636608  62.0831718  38.3602676  14.2570848  61.9025002
  36.3189278  13.5047894  61.7478065  35.6253204  12.8180780  62.0075035
  35.8236847  14.7164898  61.0553589  36.4257774  14.9356585  60.1735725
  34.4053612  14.5735159  60.5505791  33.6586494  14.3410444  61.3098412
  33.9004555  15.7263193  59.7093620  34.6654472  16.0538464  59.0053635
  32.9426956  15.4686832  59.2572403  33.6069107  16.5400581  60.3725052
  34.4252167  13.5343027  59.5762367  34.3124771  12.6751041  59.9893570
  35.8248634  15.9353104  61.9970474  36.4115982  16.9676037  61.6285133
  35.3206635  15.8186264  63.2235413  35.0388069  14.8774233  63.4576187
  35.4040298  16.8673592  64.2244797  34.7998238  17.7525597  64.0258560
  34.7543869  16.2688446  65.5388184  33.7658844  15.8711662  65.3089981
  35.3541069  15.4146700  65.8531876  34.7166252  17.2713623  66.6314011
  35.7260437  17.3260918  67.0390472  34.2645912  18.2125874  66.3185730
  33.7751656  16.7056084  67.7608871  33.6923218  17.4274979  68.5733566
  32.7187271  16.6686649  67.4950256  34.1878052  15.2938194  68.2465057
  33.9355087  14.8025074  67.3067932  35.2438469  15.3071718  68.5161514
  33.3890762  14.7657337  69.3899918  32.4063988  14.9242935  69.2188110
  33.5504417  13.7711554  69.3201599  33.7366982  14.9344416  70.3231583
  36.8130150  17.3051281  64.4996185  37.1194344  18.4763737  64.5818405
  37.7757607  16.3737316  64.4809494  37.4999275  15.4024954  64.4542007
  39.2466278  16.6757469  64.8659515  39.3450699  17.3393688  65.7250290
  39.8853836  15.2736740  65.1365356  39.6595840  14.5605755  64.3436890
  40.9709587  15.3564568  65.0838776  39.4761467  14.6955814  66.4613724
  40.1976891  14.9415798  67.2404556  38.4526558  14.9858761  66.6986313
  39.6150360  13.1521711  66.3340530  40.3102074  12.5778170  65.4422302
  38.9949913  12.3750887  67.1392746  39.2306824  11.3940706  67.0928497
  38.4056969  12.7606544  67.8632660  39.9536476  17.4684105  63.6763878
  40.7478561  18.3652973  63.9000397  39.6003380  17.0369720  62.4241982
  39.0177498  16.2249336  62.2783089  39.9916191  17.7628326  61.1707001
  41.0786743  17.8074245  61.2371941  39.5325050  16.9261131  59.9494057
  39.9643288  15.9271441  59.8886719  38.4641914  16.7105503  59.9306717
  39.6357536  17.6005650  58.6210976  39.2387886  18.6097546  58.7308998
  41.0456619  17.6470184  58.2035332  41.4342918  16.6399059  58.3544922
  41.2399521  17.8251896  57.1458931  41.7364731  18.2825050  58.7576485
  38.8770332  16.8303318  57.4985771  37.8279076  17.0104675  57.7330551
  39.1009102  17.2567577  56.5207520  38.9988174  15.7475214  57.4704895
  39.3463402  19.1465092  61.1849785  40.0848961  20.1527424  61.0572624
  38.0372925  19.2847881  61.4626465  37.3719482  18.5346832  61.5841522
  37.4598770  20.6843624  61.5306740  37.6178284  21.1723309  60.5688820
  35.9440079  20.5613842  61.6480865  35.7278442  19.6885471  62.2641373
  35.4660683  21.4854527  61.9733162  35.2829361  20.2466927  60.2632942
  35.7537117  19.3428135  59.8766785  33.8317680  19.8640118  60.3551865
  33.5145264  19.6880398  59.3273315  33.7307205  18.9663277  60.9651489
  33.2759399  20.7030334  60.7737503  35.5036240  21.4307575  59.1992035
  36.5491371  21.5705605  58.9245110  35.0280914  21.1200123  58.2689285
  35.0221786  22.3177834  59.6109009  38.1017151  21.5148659  62.6448097
  38.5391388  22.6624641  62.3504562  38.3425903  20.9282970  63.8298492
  38.0017204  20.0210381  64.1140823  39.0701942  21.6711273  64.9594421
  38.6439743  22.6544590  65.1581802  39.1746559  20.9197330  66.2578583
  39.6651497  19.9758167  66.0200806  39.7664185  21.3993473  67.0375366
  37.7913971  20.8436184  66.9001770  37.1072807  20.5250778  66.1136551
  37.9040871  19.9609661  67.5297241  37.3368721  22.0253353  67.7925186
  37.7792778  23.1402931  67.5017014  36.6391068  21.9084129  68.8347778
  40.4757614  22.1094170  64.5321808  40.9518738  23.2412720  64.8020630
  41.1403084  21.2778759  63.7365303  40.6755028  20.4308167  63.4423409
  42.4315224  21.6119366  63.1838570  43.0545883  22.1039181  63.9307480
  43.2159081  20.2786179  62.7253265  43.1669235  19.5009956  63.4875641
  42.7966385  19.8526154  61.8138237  44.6661186  20.6065483  62.3403244
  45.2334862  19.7059822  62.1054268  44.7481575  21.2919140  61.4967346
  45.4993477  21.1197567  63.6348381  45.1231079  22.1247234  63.8261299
  45.3432884  20.3966866  64.4354095  46.9699402  21.1937599  63.4809227
  47.3296471  20.1666336  63.4198761  47.1609955  21.7504864  62.5635033
  47.5773582  21.8245125  64.7069092  48.4020462  21.3010635  64.9637985
  47.8601036  22.7379169  64.3815536  47.0990410  22.0112209  65.5766525
  42.3009148  22.6152344  62.0510635  43.1624680  23.4689217  61.9919395
  41.2677269  22.6241951  61.2791100  40.5310669  21.9722004  61.5078735
  41.0696640  23.5904560  60.1672516  41.9698296  23.7782745  59.5819931
  40.0812416  22.9805794  59.1760406  39.1800117  22.6147041  59.6679916
  39.5958595  24.0873661  58.1724281  38.5898514  23.8649597  57.8166351
  39.4734535  25.0883484  58.5861320  40.2260551  24.2092075  57.2914505
  40.7269669  21.8095512  58.3898354  41.4864044  22.2118492  57.7193756
  41.1891823  21.1618214  59.1347504  39.7117996  21.0485535  57.5227547
  38.9080849  20.5497704  58.0643845  39.2548599  21.7752686  56.8510437
  40.2298012  20.2805786  56.9482994  40.7575226  24.9896221  60.7606354
  41.3894310  25.9239159  60.1870651  39.9828796  25.1557579  61.7594414
  39.6065369  24.3046722  62.1520195  39.6282349  26.4243069  62.4396744
  39.2678871  27.1084652  61.6714478  38.4828720  26.1600285  63.4747620
  38.8317986  25.3904476  64.1633072  38.0687485  27.3772316  64.2853241
  38.0058327  28.2619057  63.6516800  37.1189537  27.1689434  64.7778702
  38.8049316  27.4851303  65.0818710  37.2391205  25.6446838  62.6926727
  36.7384338  26.5034199  62.2454720  37.5030899  25.1174755  61.7758980
  36.2661057  24.7629414  63.4973145  35.5465508  24.1833916  62.9189949
  36.9268570  24.2007618  64.1572113  35.6314125  25.3751316  64.1380081
  40.9428635  26.9076271  63.1265259  41.3011665  28.0563011  62.9671898
  41.6260681  26.0362549  63.8915062  41.5046997  25.0360050  63.8217087
  42.8179512  26.5297718  64.6088562  42.5323067  27.3051224  65.3197250
  43.2094955  25.3412628  65.5614929  42.3526230  25.0945568  66.1883926
  43.2329445  24.4148235  64.9876785  44.5113564  25.5173607  66.3878403
  44.5871696  24.6500740  67.0437088  45.4053650  25.5011444  65.7644730
  44.5870018  26.6811523  67.3322678  45.7093506  26.9045238  67.8849640
  43.5385246  27.3119450  67.6845932  43.9726219  27.0567856  63.7136955
  44.6380768  28.0458260  64.0799561  44.1295509  26.4106998  62.5303726
  43.6526947  25.5466175  62.3157234  45.1611023  26.8008251  61.5000153
  46.0833778  26.9976139  62.0466385  45.4506302  25.5896530  60.6771736
  44.5930786  25.1340446  60.1820641  46.1807823  25.8882656  59.9249725
  46.1854362  24.4207058  61.4301949  45.4760094  23.9352436  62.1003723
  46.5355606  23.6072254  60.7947693  47.4186478  24.7688694  62.3025932
  47.6090927  24.1904068  63.4172745  48.2164688  25.6298103  61.9206963
  44.7652016  28.0873222  60.6633453  45.6724930  28.6925087  60.0250473
  43.4981651  28.5185566  60.6706505  42.8498993  27.9933186  61.2398415
  42.9550972  29.6805935  59.9382286  43.7853432  30.1949387  59.4542465
  42.1269684  29.1579685  58.7467766  41.2776260  28.6344147  59.1856461
  41.7744522  29.9646969  58.1040993  42.9049988  28.2304745  57.8618813
  43.5002327  28.5736103  56.8542976  43.0329704  26.9292774  58.1201744
  43.4545898  26.3424492  57.4145050  42.5766830  26.5448132  58.9350929
  42.2642288  30.7047176  60.7897186  41.6479034  31.6134739  60.2720718
  42.3669968  30.6120834  62.1989479  42.7835655  29.7630119  62.5534210
  41.7756882  31.5320034  63.2021904  41.8762283  30.8880711  64.0758820
  42.6981201  32.7847061  63.2808609  42.7224197  33.2279320  62.2853432
  42.3664093  33.4782600  64.0535507  44.0814819  32.4645042  63.6928825
  44.5635796  31.3978500  64.4756241  43.9530029  30.6950893  64.8673172
  45.9011955  31.4607067  64.5693817  46.4915276  30.7174530  65.0846329
  46.3086548  32.5118866  63.7760201  47.2864799  32.7068901  63.6149902
  45.2034454  33.1750984  63.2821884  45.2304420  34.1095848  62.7414360
  40.2429848  31.8102818  62.9552078  39.6872864  32.9091835  63.1205521
  39.5719681  30.8188553  62.4357452  40.0145683  29.9313946  62.2443810
  38.1887474  30.9482784  61.9313393  38.2836342  31.8720188  61.3605499
  37.7980843  29.7720356  60.9772034  37.7800789  28.8212566  61.5099258
  36.4069519  30.0210686  60.2495651  36.3780670  29.4997616  59.2927475
  35.4664116  29.8838482  60.7830963  36.3446426  31.0678215  59.9520340
  38.7646065  29.5674706  59.9836693  38.8236122  30.2958031  59.3610535
  37.0237579  31.1127300  62.9078560  36.8844604  30.2756042  63.7560577
  36.2693176  32.2436676  62.8320084  36.5498199  32.9467163  62.1633224
  35.0120010  32.5572624  63.6380882  34.9586754  31.7760563  64.3963623
  35.0743904  33.9223900  64.3150635  34.3934402  33.8760071  65.1649170
  36.1005478  34.0271873  64.6673660  34.6454811  35.1263809  63.4566994
  35.2516098  35.0805168  62.5519333  33.5912895  35.0095100  63.2054520
  34.8239975  36.4012222  64.2782135  34.3992615  36.2292061  65.2672119
  35.8877029  36.5471649  64.4661789  34.2293243  37.6488914  63.5989380
  33.1853638  37.4164772  63.3886299  34.3018532  38.4384270  64.3469162
  35.0249977  37.9908333  62.4031792  36.0088692  37.7638474  62.4271698
  34.6394653  37.4940567  61.6128120  34.9066467  38.9418373  62.0842972
  33.6950111  32.3425713  62.7450790  33.7765656  32.8017426  61.5962105
  32.6425819  31.6753349  63.1925888  32.5222321  31.1653099  64.5305405
  32.7094231  31.9718246  65.2394791  33.1836090  30.3250847  64.7419586
  31.0798626  30.7411060  64.6348114  30.5079727  31.5435467  65.1007843
  30.9239178  29.8722649  65.2742615  30.5562038  30.4743710  63.2828674
  29.5791378  30.8845310  63.0275040  30.6012325  29.4121952  63.0423317
  31.5611076  31.1685314  62.3205566  32.0219154  30.5368099  61.5611610
  30.8631001  32.2420387  61.5503197  30.3487911  31.9673615  60.4422684
  30.9154606  33.5004463  62.0030632  31.1545048  33.6295700  62.9758339
  30.3320255  34.6486359  61.2989006  29.3394089  34.2443810  61.1004295
  30.1471786  35.8631287  62.2602959  29.7403412  35.5838051  63.2321815
  31.0659523  36.4095306  62.4733696  29.1731243  36.9068451  61.7484970
  29.4382801  37.1836700  60.7281227  28.2043571  36.4073410  61.7391586
  29.1868782  38.2634354  62.4493599  29.3529377  38.4041634  63.6414185
  29.0643692  39.3258362  61.7293129  30.9523926  35.0830803  60.0014267
  30.4136944  35.7120476  59.0884323  32.2435760  34.7123375  59.8705406
  32.6373062  34.1763458  60.6306686  33.0036583  34.9913445  58.6772995
  32.6393623  35.8290176  58.0825768  34.4278030  35.0770569  59.0720024
  34.6965942  34.1803703  59.6303978  34.9460869  35.0855331  58.1131401
  34.7006569  36.4350433  59.7330170  33.9904900  37.4642639  59.6788635
  35.7723236  36.5862198  60.3438568  32.8597069  33.8470879  57.6225967
  33.3687935  34.0510864  56.5125351  32.2772865  32.6975746  57.9473686
  31.9638367  32.6361160  58.9055290  32.1559525  31.5316658  57.0736618
  33.0034943  31.4546814  56.3925972  31.9887238  30.2875347  57.9348984
  31.1876698  30.3877544  58.6672707  31.6485920  29.0498390  57.1011734
  30.6079769  29.1968803  56.8120308  32.3124008  28.9707050  56.2402458
  31.7739639  28.1345253  57.6796150  33.1805801  29.9788589  58.7783966
  33.9747124  29.5358944  58.1773682  33.5180397  30.9173450  59.2182465
  32.9855156  29.2683487  59.5816574  30.9681015  31.7570114  56.2131958
  29.8535309  31.9699116  56.6855011  31.1373520  31.7182999  54.9342918
  32.0982704  31.5300140  54.6867409  30.1655254  31.8023205  53.9349556
  29.3906174  32.5251236  54.1902428  30.8538418  32.2584381  52.5867424
  31.7443733  31.6460991  52.4449806  29.9466133  32.2473106  51.3800354
  30.4554329  32.4990463  50.4495354  29.5921555  31.2488327  51.1241035
  29.1678181  32.9666328  51.6333199  31.5600204  33.6436844  52.8754425
  30.9229279  34.3648567  53.3874168  32.4226532  33.4329453  53.5075455
  32.0440292  34.1041374  52.0141487  29.3812218  30.5113983  53.7206078
  28.1499519  30.5030556  53.8322372  30.0795097  29.3689842  53.6829681
  31.0845642  29.3191509  53.5964622  29.4056339  28.0937901  53.7508469
  28.5544262  28.0691395  54.4312439  28.7922726  27.6885071  52.3853798
  28.4441109  26.6854477  52.6318626  27.9375401  28.2928810  52.0816154
  29.8586979  27.6403008  51.2185593  30.8458443  27.8396759  51.6355629
  29.8021393  26.6163521  50.8491936  29.5915985  28.6496296  50.0803833
  28.4764347  29.0846863  49.7564774  30.5661030  29.0078278  49.2880592
  31.5043755  28.7156143  49.5212097  30.4171371  29.4938011  48.4152832
  30.4718552  27.0263577  54.0713844  31.6759396  27.2622490  53.8796883
  30.0014744  25.8105431  54.3599968  29.0162296  25.6473179  54.5108337
  30.8292274  24.6326962  54.5396652  31.8582191  24.8496952  54.2529793
  30.9581451  24.1570644  56.0097733  31.1320457  25.0719109  56.5762672
  30.0152760  23.6959934  56.3039017  32.2224617  23.2554836  56.2178612
  32.2694817  22.4392147  55.4970284  33.0244484  23.9855328  56.1085625
  32.2592545  22.6188717  57.9283028  32.5313759  24.2441158  58.9062996
  33.0466995  24.0714436  59.8511467  33.1466904  24.9210587  58.3136444
  31.6670246  24.8794594  59.0995255  30.2758350  23.5264359  53.5962868
  29.0759583  23.2092228  53.5419502  31.1324272  22.8023071  52.9643173
  32.1052475  23.0642452  53.0358849  30.9479980  21.6943130  51.9684143
  29.9038448  21.3815327  51.9719772  31.2332153  22.3083057  50.6030998
  30.5365410  23.0813942  50.2789421  32.2806549  22.6084995  50.6323280
  31.0774574  21.3577271  49.4265404  31.7037106  20.4678936  49.4906693
  29.6527081  20.7900715  49.2313766  29.6773643  20.1242847  48.3686943
  29.2819996  20.3090687  50.1365356  29.0183430  21.6552601  49.0386620
  31.4942780  21.9513283  48.0614433  31.5941429  21.1624851  47.3158875
  30.7054234  22.6435738  47.7671547  32.4508247  22.4673805  48.1439705
  31.9007893  20.5700569  52.3618431  33.1173897  20.7022896  52.1667633
  31.4245815  19.5274353  52.9228287  30.4509182  19.5335827  53.1912308
  32.1006622  18.2252464  53.1221504  33.1877174  18.2883949  53.1714096
  31.6684532  17.5718517  54.4126892  30.5841103  17.6796150  54.3864403
  32.0141144  16.5381126  54.4142151  32.1949806  18.2268047  55.7396736
  33.2163544  18.6071339  55.7239532  31.4155216  19.4024410  56.3001976
  30.4435444  19.0011711  56.5871391  31.9106827  19.9683208  57.0893097
  31.3281116  20.1092663  55.4750595  32.1885414  17.0426235  56.6934929
  31.1678391  16.6750641  56.7991257  32.7842941  16.2074642  56.3251305
  32.4870529  17.3984184  57.6795959  31.8570881  17.2968369  51.9158707
  31.0412579  17.5569458  51.0519104  32.6559219  16.2130775  51.7385445
  33.2460480  15.9691858  52.5210838  32.6712379  15.2494717  50.6576042
  31.7061844  15.1878557  50.1546326  33.7150536  15.7438707  49.6408043
  33.4381142  16.7603054  49.3610420  34.7326584  15.6548357  50.0211334
  33.5676460  14.9708309  48.5284386  34.3156624  15.1318531  47.9486618
  33.3268738  13.8853045  51.1869545  34.1903381  13.9390059  52.0597610
  33.0560455  12.6855993  50.5194397  32.4368477  12.6838102  49.7215080
  33.4884377  11.3433485  51.0052185  34.4115219  11.4219379  51.5795364
  32.4520302  10.9318733  52.0238838  32.3732376  11.7998304  52.6785202
  31.5769100  10.5049686  51.5339622  32.7993011  10.0609512  52.5797577
  33.6905594  10.1660862  49.9760590  33.1041718  10.3092604  48.8945541
  34.4177094   9.0566177  50.3228493  34.9553795   9.1078329  51.1763077
  34.6692963   7.8620639  49.4826584  34.9411240   8.2627468  48.5060997
  35.8493767   6.9665647  49.9261246  35.6563072   5.9155841  49.7110367
  37.1808891   7.3002243  49.3250313  37.2377014   7.7115827  48.3172302
  37.7604752   7.9594731  49.9712296  37.7307701   6.3605313  49.2730217
  35.8571129   6.9010611  51.3578339  35.3788376   6.1365824  51.6871185
  33.4500122   6.9591460  49.3044701  32.5203972   6.8920240  50.1577950
  33.3179131   6.2032585  48.1806831  33.9147682   6.4781270  46.8789139
  34.9420052   6.1207709  46.9509048  33.9422302   7.5464830  46.6645279
  33.2299309   5.6604967  45.8718033  33.9683533   5.3118291  45.1498222
  32.4457626   6.1772447  45.3184891  32.5913200   4.5594459  46.7042503
  33.2911453   3.7276478  46.7846222  31.7219410   4.1831141  46.1651268
  32.1958580   5.2534933  48.0225182  31.2582588   5.8025727  47.9357758
  32.0092392   4.2061276  49.0290070  30.9906769   3.5366580  49.0019188
  32.9016953   3.9704502  49.9188576  33.7393417   4.5305662  49.9875946
  32.8928032   2.8946800  50.8824463  32.3190727   2.0556831  50.4887276
  34.2687836   2.3380883  50.9335976  34.2596588   1.4983555  51.6284828
  34.5038757   1.8632272  49.9810524  35.3866844   3.4019139  51.2354774
  36.5533295   3.0915036  50.8196564  35.0607719   4.5376420  51.7212296
  32.2688141   3.1779897  52.2766762  31.9370365   2.2210119  52.9685364
  32.1503067   4.4036984  52.6579857  32.2114296   5.1164408  51.9449921
  31.6255112   4.7646413  54.0565720  31.6883850   4.0096645  54.8402519
  32.2659492   6.1233582  54.5198631  32.2078667   6.9035025  53.7608490
  31.7106590   6.4379725  55.4034805  33.7467308   6.0478034  54.8125534
  34.2637711   5.7915583  53.8878326  34.3450356   7.4201903  55.2071419
  34.0998154   7.7280002  56.2236176  35.4285240   7.3160863  55.2647476
  34.1368217   8.1428976  54.4181938  34.1310425   5.0209537  55.9095955
  33.8894577   3.9689887  55.7575874  35.1984406   4.9974837  56.1291618
  33.5799828   5.3548598  56.7887650  30.0740128   4.8669143  53.9691734
  29.5362911   5.4715486  53.0595932  29.2780666   4.3127594  54.8539772
  29.7136841   3.8316882  55.6278687  27.8136120   4.2427793  54.6935081
  27.4399014   5.0870843  54.1142006  27.2888756   2.9350657  54.1869164
  27.3969574   2.1373746  54.9218330  26.2576714   3.1437786  53.9020195
  27.9604836   2.5289774  52.9237747  27.9522686   3.1765501  51.6931114
  27.4304962   4.0380359  51.6176376  28.6177292   2.4733748  50.7645950
  28.8346424   2.7819803  49.7526093  28.9755840   1.3731378  51.3862228
  29.4414635   0.5750855  50.9785843  28.5917549   1.3306286  52.7025490
  28.7179813   0.5001682  53.3813744  27.0772038   4.4754272  56.0162315
  25.8394756   4.6493688  56.1655731  27.8087463   4.3881702  57.1199799
  28.8102665   4.2757788  57.0534706  27.1997528   4.5273738  58.4900246
  26.3757191   3.8537974  58.7253189  28.2833385   4.3790979  59.4778976
  27.7527924   4.3678946  60.4299965  28.6581917   3.3824489  59.2449188
  29.1038666   5.0896969  59.3784790  26.4979687   5.9325480  58.7254982
  25.3145924   5.8730049  59.2433586  27.0198879   7.0703402  58.3695107
  27.7911682   7.0545931  57.7176056  26.5479374   8.3971405  58.9362221
  25.4583969   8.3657351  58.9321785  26.9220409   8.6138191  60.4520226
  26.6520138   7.7602639  61.0738144  28.4854736   8.7976980  60.5867271
  29.0322533   8.1009216  59.9514008  28.6617260   9.8089046  60.2199898
  28.8043728   8.7844563  61.6289520  26.0989323   9.7072735  61.1104393
  26.4806843  10.5893173  60.5962639  25.0221272   9.6498318  60.9514008
  26.3913765   9.7526293  62.1594925  27.0745621   9.5488110  58.1694298
  28.1574173   9.4732971  57.5746841  26.2522945  10.5587454  57.8895950
  25.2887669  10.4943447  58.1855087  26.6293983  11.7828522  57.1161156
  27.1158009  11.5463152  56.1697731  25.4961796  12.7167311  56.7876244
  24.9053440  12.9065094  57.6837273  25.8594055  13.7065191  56.5110626
  24.6231251  12.2038841  55.6299477  23.2717705  11.8860712  55.9124680
  22.7940025  11.9634333  56.8779488  22.3125114  11.5366936  54.9226608
  21.3408890  11.2847109  55.3212280  22.8345394  11.4903994  53.5679169
  22.1364441  11.3511696  52.7557068  24.1970367  11.7671089  53.3074303
  24.5615845  11.6953487  52.2933502  25.0627365  12.1603184  54.3176270
  26.0656013  12.4475393  54.0380402  27.7128506  12.5622787  57.9983444
  27.5012417  12.7897186  59.1722412  28.9071159  12.7845898  57.4687309
  29.3550453  12.1025620  56.2993164  28.9832611  12.7812080  55.5316467
  28.9258709  11.1171284  56.1181183  30.8379784  12.0438118  56.4454994
  31.3060055  12.2005720  55.4736595  31.1520309  11.1109467  56.9137344
  31.1493034  13.2987423  57.2658882  31.2766991  14.1339207  56.5771599
  32.0765610  13.3277931  57.8381271  29.8926754  13.4846573  58.1634521
  29.9440079  13.0688219  59.1697083  29.7250080  14.9864378  58.5120850
  30.2859230  15.5376501  59.4664154  28.7444763  15.6097069  57.8347282
  28.3582592  15.2192869  56.9870758  28.2345028  16.9150448  58.1177063
  29.0022430  17.6878662  58.0799866  27.2970772  17.1223202  56.9519806
  27.8531666  17.1970043  56.0174866  26.5109234  16.3677368  56.9261513
  26.8545170  18.1142712  57.0429382  27.6633968  17.0118885  59.5957947
  28.0157337  17.9187889  60.2857132  27.1146946  15.9280462  60.1204033
  27.1429577  15.0794888  59.5733528  26.7473927  15.6884546  61.5330505
  25.9719143  16.3947182  61.8295746  26.0821419  14.3674097  61.7434654
  25.6108418  14.0720615  60.8060532  26.8059769  13.5718193  61.9201088
  24.8574810  14.2674408  62.7388687  25.3308563  14.2965240  63.7202873
  24.1567955  15.0310669  62.4012032  24.2810020  12.7950630  62.7764664
  24.2872429  12.4279776  61.7501564  24.8714046  12.1514931  63.4286499
  22.7457829  12.8466501  63.2944565  22.5390987  11.7812147  63.3955956
  22.6119823  12.9934816  64.3662033  21.7178173  13.5372591  62.4509583
  20.7911053  13.5075645  62.8514862  21.9356098  14.5026855  62.2494164
  21.6052818  13.1557217  61.5225906  27.8128014  15.9111338  62.6378860
  27.5253258  15.7862997  63.8625488  29.0364208  16.2407265  62.3063927
  29.1649265  16.0202045  61.3291740  30.1608219  16.6501503  63.1781502
  30.1899776  16.1143875  64.1269455  31.4325581  16.3156796  62.4563370
  32.2656746  16.6316929  63.0841599  31.6021690  15.3378229  62.0056381
  31.4967022  17.0131683  61.6211739  30.1921654  18.1799927  63.4942093
  30.6780701  18.6035442  64.5317459  29.7654514  19.0104675  62.5664978
  29.3838425  18.5740871  61.7394257  29.6914978  20.4730797  62.7811241
  30.6464272  20.8623962  63.1341667  29.1930294  21.1908913  61.4941711
  28.1537781  20.8892441  61.3635330  29.3027592  22.6624165  61.6044464
  28.4793644  23.0091438  62.2288742  30.1674385  23.0029221  62.1740875
  29.2321682  23.2317562  60.6776390  29.9417000  20.8840733  60.2478905
  29.5201435  21.3547249  59.3596992  31.0068264  21.0542507  60.4048767
  29.9280605  19.8094654  60.0658760  28.7521439  20.8183403  63.9157829
  29.0871029  21.6254501  64.7905045  27.6705933  19.9933205  64.1094208
  27.3990917  19.4428768  63.3072968  26.7783031  19.9293575  65.3157501
  26.3360157  20.9252396  65.2892303  25.8454189  18.7352867  65.1891022
  25.4212875  18.6816940  64.1864395  26.3459167  17.7706871  65.2737122
  24.6515999  18.7542267  66.1983871  25.0423679  18.5839291  67.2015762
  24.1806107  19.7372169  66.1954117  23.4971333  17.6881313  65.9976273
  22.8143253  17.8133774  66.8379745  22.9605885  17.9190617  65.0773621
  24.0926991  16.4187756  66.1528625  25.0993023  16.3406944  66.1253510
  23.4639645  15.2702808  66.3449554  22.1689835  15.1518393  66.3715439
  21.6029816  15.9075193  66.0128174  21.7258110  14.3078117  66.7051926
  24.0768490  14.1702499  66.5961304  23.5695610  13.3086872  66.7392120
  25.0782089  14.2539997  66.6979294  27.5093822  19.8769302  66.6997375
  26.9615841  20.4166603  67.6387024  28.7131786  19.3790684  66.7203064
  29.1150723  18.9103184  65.9210205  29.5001965  19.2514572  67.9840317
  28.8057804  19.2692356  68.8240128  30.1642895  17.8207893  68.0224838
  30.9158611  17.8618031  67.2341003  30.7761173  17.7813778  68.9237137
  29.1102142  16.6616478  68.0079575  28.3819675  16.8249645  68.8023682
  28.6136684  16.8034077  67.0480347  29.6815243  15.2464771  68.3325653
  30.7117310  15.1748638  69.0326233  29.1511250  14.2257490  67.8159561
  30.4318142  20.3866215  68.3022003  31.0076103  20.4896698  69.3772812
  30.6173592  21.3296242  67.3117599  30.1462898  21.3405228  66.4184113
  31.4230804  22.5220070  67.5150604  32.2065239  22.3169441  68.2446365
  32.0786133  23.0408936  66.1891174  31.2926331  23.4434566  65.5501556
  32.7569809  23.8426533  66.4808426  33.0197411  22.0375919  65.4920502
  32.5049019  21.0987644  65.2879868  33.3893852  22.5268440  64.0921097
  33.9884491  21.8412724  63.4927635  32.4997940  22.7019043  63.4870644
  33.8445473  23.5137539  64.1753922  34.3507080  21.8619709  66.1881104
  34.9137802  22.7917557  66.2689743  34.1760101  21.3919888  67.1559448
  34.9092178  21.2410870  65.4876251  30.6232262  23.7121544  68.1433411
  29.5780525  24.0859547  67.5837784  31.1580849  24.4146042  69.2001953
  31.9016590  23.9669762  69.7167435  30.4719639  25.4497166  69.9515381
  29.5242214  25.0798092  70.3427582  31.2743931  25.6944714  71.2396011
  31.3966579  24.7697983  71.8036346  32.1668205  26.2483730  70.9482880
  30.5218544  26.5022030  72.1032867  29.8818665  25.9190636  72.5179749
  30.2926407  26.8110886  69.2295532  31.2399769  27.3977757  68.7661896
  29.0426311  27.2221909  69.0294266  28.2956276  26.6932068  69.4563446
  28.6839142  28.4969521  68.4130173  27.8302174  28.9531498  68.9142075
  29.5307999  29.1746540  68.5207520  28.4374008  28.4882545  66.9954224
  28.3695698  29.5560093  66.4249725  28.3588047  27.3211880  66.3306427
  28.5542850  26.5352802  66.9341736  28.1922665  27.1118584  64.8450317
  28.5236282  28.0269852  64.3542786  29.1781082  25.9809723  64.2625427
  29.0723228  25.0167618  64.7597504  28.8791485  25.7938919  63.2311707
  30.6233730  26.3608189  64.3654404  31.2786617  26.4994621  65.4760742
  30.8321152  26.3470154  66.4475403  32.5338707  27.0227203  65.3162689
  33.1636925  27.2860641  66.0606308  32.7659760  27.1706772  63.9387474
  33.8622208  27.6300030  63.1783257  34.6825600  28.1810207  63.6140175
  33.9118004  27.3981247  61.8133583  34.7718849  27.6815071  61.2248421
  32.7523727  26.8401699  61.1837578  32.7988358  26.7301960  60.1103783
  31.6251431  26.4966621  61.9402962  30.8121586  26.1414776  61.3244247
  31.6236324  26.6004086  63.3174286  26.7340794  26.8823433  64.4093018
  26.5518990  26.2935600  63.3229942  25.7338562  27.2065105  65.2574539
  25.9720669  27.6918259  66.1105804  24.2763348  26.9231434  65.0847321
  24.2630997  25.8357239  65.1585159  23.4088554  27.5025635  66.2100983
  23.5929585  28.5768948  66.2144470  22.4029617  27.4848957  65.7906189
  23.5864658  26.9081974  67.6155777  22.6914215  27.1968746  68.1666336
  23.6782322  25.8260136  67.5230637  24.7578926  27.3863201  68.5011673
  25.5917130  28.0970306  67.9798965  24.8997936  27.0004768  69.7811890
  24.0785046  26.6019173  70.2133179  25.5897255  27.5006618  70.3233185
  23.6950607  27.2791023  63.7429199  22.6710396  26.6704006  63.3148193
  24.2184906  28.2806396  63.0661812  25.0790730  28.6536369  63.4408455
  23.5758629  28.9578609  61.9305725  22.6353130  28.4951553  61.6316147
  23.3855209  30.4519997  62.2214241  24.3092575  31.0238571  62.3096771
  22.8703232  30.8176498  61.3331795  22.5212440  30.7441597  63.4555473
  21.1329174  30.4973221  63.4147606  20.6539478  30.0553894  62.5535507
  20.3304310  30.6876297  64.5744858  19.2793636  30.4395008  64.5839081
  20.9648991  31.0645561  65.7478485  20.2334080  31.1290073  66.8513641
  19.3220387  30.9328194  66.6222076  22.3574047  31.2744217  65.7841339
  22.7872410  31.3624020  66.7709961  23.1690311  31.0793076  64.6628647
  24.2460079  31.1370659  64.7193146  24.3907013  28.9067078  60.7474785
  23.9477901  29.3751011  59.6870232  25.6352901  28.3597183  60.7419586
  25.9710445  27.9956512  61.6222000  26.4809723  28.2693958  59.5255852
  26.5161629  29.1831493  58.9323616  27.8997478  27.8468666  59.9368095
  27.9616089  27.0645905  60.6933250  28.6940250  27.3368759  58.7210617
  28.5879402  28.1281776  57.9789772  29.7456493  27.3018875  59.0056038
  28.3253479  26.3750725  58.3645287  28.5259094  29.1203499  60.4847870
  27.9675674  29.6701164  61.2424889  29.5305996  28.8722801  60.8270683
  28.6739311  29.6896248  59.5671196  25.8912582  27.1483498  58.6147194
  25.6884270  26.0055504  59.1021919  25.5988140  27.5102081  57.3364220
  25.5277424  28.7850323  56.6680489  26.3506184  29.4809532  56.8313637
  24.5799255  29.2276707  56.9743385  25.4940300  28.5192928  55.2340202
  26.5319061  28.3808270  54.9311295  25.0439491  29.3513565  54.6925430
  24.7429714  27.2451191  55.0272331  24.9684067  26.7530823  54.0810966
  23.6895103  27.4935436  55.1560936  25.1408062  26.5068321  56.3559265
  24.3471928  25.9250755  56.8247986  26.2191944  25.3831348  56.1318092
  27.4018688  25.6648483  56.0582771  25.8124428  24.1440334  55.9787483
  24.8209114  23.9518261  55.9836121  26.7025299  23.0025158  55.6889725
  27.6737328  23.3974209  55.3907852  26.9006100  22.1942272  56.9969063
  25.9339867  21.7913113  57.2992287  27.8716393  21.0581627  56.7697792
  28.0023994  20.6496029  57.7718163  27.4747105  20.2890396  56.1072159
  28.8618259  21.4271545  56.5024261  27.2894020  23.0025806  58.2686806
  27.4492016  22.2569580  59.0475388  28.1209354  23.6881218  58.1053085
  26.5031948  23.7052803  58.5447083  26.0071602  22.1818180  54.5180931
  24.7831726  22.0084534  54.4378510  26.7859974  21.5702305  53.6056290
  27.7818241  21.7387981  53.6093178  26.3790512  20.5954323  52.5918770
  25.4509258  20.1658936  52.9689407  26.0928307  21.2288399  51.2817726
  26.0390587  20.4590263  50.5119629  24.7517414  21.9895763  51.2776985
  24.8177567  22.8365555  51.9606056  24.5534134  22.5461960  50.3617592
  23.8942852  21.3372688  51.4431267  26.9871578  22.1589470  50.8388901
  27.1444759  22.7181988  51.6031456  27.3621979  19.4750462  52.5177536
  28.4313335  19.5176430  53.1564865  27.0398235  18.3951874  51.8449249
  26.2277374  18.3665276  51.2450981  27.8025379  17.1863117  51.7958488
  28.8764439  17.3554859  51.8746796  27.3453999  16.2045498  52.8742332
  27.2845154  16.7313080  53.8265572  26.3693943  15.7814503  52.6365356
  28.5037460  14.7744360  52.8677063  28.0561771  14.1383762  51.7814255
  27.5511532  16.5196381  50.3955231  26.4482250  16.5304947  49.8159370
  28.5884323  15.8371544  49.9015656  29.4718475  15.7680931  50.3862419
  28.6938591  15.1883068  48.6134872  27.7314072  14.7006645  48.4585953
  29.1340370  16.1365490  47.5314941  28.9902134  15.6635399  46.5600624
  28.4740162  17.0029831  47.5734787  30.5777435  16.6029453  47.6246529
  30.7230968  16.9534626  48.6464691  31.1831741  15.7039013  47.5093994
  30.9950466  17.8207417  46.3950195  32.7738686  18.0130825  46.6098557
  33.0538597  18.1221180  47.6576271  33.2749710  17.1228123  46.2298355
  33.1161461  18.8909035  46.0617943  29.4732399  13.8393764  48.6767845
  30.1873493  13.5419035  49.6071129  29.2587795  12.9951887  47.6610336
  28.5116310  13.2760820  47.0421906  30.2673016  11.9971457  47.2368851
  30.6746616  11.5008287  48.1176987  29.5867233  10.8087626  46.5537567
  28.6887493  10.4707651  47.0709648  29.3229618  11.1358690  45.5480080
  30.4274483   9.5719442  46.3136253  30.2362080   9.1755304  45.3164368
  31.4447727   9.9570093  46.2437782  30.2038689   8.4760685  47.4239922
  29.1885414   7.7394657  47.4136772  30.8677387   8.5064335  48.5230980
  31.7973747   8.9008970  48.5396843  30.6234989   7.8332434  49.2353210
  31.4011040  12.7224560  46.5376625  31.1524181  13.5674620  45.6273308
  32.6834412  12.3055935  46.7679138  32.8359413  11.5054035  47.3650246
  33.8449974  12.5379438  45.8580132  33.8480225  13.5350113  45.4176178
  35.1068764  12.5756264  46.6646919  34.9220390  13.0085821  47.6477928
  35.4659920  11.5675859  46.8720474  36.3339539  13.1998444  46.0089493
  37.2932167  12.7235470  46.2115669  36.1693192  13.1216040  44.9342957
  36.5485497  14.6825457  46.3314781  37.5435982  15.2002563  45.8174591
  35.7091942  15.3829746  46.8972549  33.9780083  11.5066156  44.7434845
  33.7056046  10.2971582  44.9288864  34.3979187  11.9508352  43.5986557
  34.5423241  12.9496784  43.5591660  34.5411224  11.1448021  42.3359299
  33.5315094  10.8706970  42.0299034  35.0532379  12.0266581  41.2167778
  34.2957420  12.7657127  40.9558182  35.9962273  12.5010939  41.4884033
  35.4463577  11.1521025  39.9797478  36.3913918  10.6729908  40.2356071
  34.6666336  10.4024563  39.8449745  35.8111687  12.0907688  38.4046097
  36.7912025  10.7388353  37.6787491  36.9248276  10.9487047  36.6175270
  37.7550049  10.6034231  38.1695137  36.3322411   9.7521801  37.7417259
  35.3710823   9.8254509  42.5692520  36.3250694   9.8279648  43.3714752
  34.9807701   8.7025480  41.9126244  34.2273827   8.8353338  41.2531700
  35.6680069   7.4149885  41.9229774  36.1386528   7.3600302  42.9045944
  34.6289597   6.2623234  41.8191948  33.8654594   6.3905954  42.5864716
  34.2014122   6.3015985  40.8173141  35.2353973   4.9172983  42.0314674
  35.8672943   4.6249099  43.0547371  35.1552429   4.0563068  41.1070251
  36.6677933   7.1694293  40.9127808  36.4068184   7.2911601  39.7165070
  37.9112053   6.8630114  41.4462357  37.9492912   6.8696547  42.4554939
  39.1430779   6.8144069  40.7202034  38.8462639   6.7289238  39.6748810
  39.9101791   8.1659870  40.6667023  39.8601532   8.6797199  41.6267395
  41.4333229   8.1148911  40.4148178  41.9287567   7.5327601  41.1918449
  41.5041084   7.7712908  39.3828125  41.8808212   9.1066694  40.4798203
  39.3338470   9.1214581  39.5787315  39.8702774  10.0700245  39.6023712
  39.3149490   8.6910887  38.5774727  38.3570290   9.4524603  39.9313850
  39.9478569   5.6245451  41.1991234  39.9433289   5.1278362  42.3175468
  40.5275154   5.0721607  40.1538277  40.3505173   5.4573789  39.2371063
  41.4763184   3.9605961  40.1964684  40.8986359   3.1483002  40.6375542
  41.9270058   3.5035484  38.7576332  42.2572594   4.3605132  38.1705704
  43.0599365   2.5029960  38.8279457  43.2290688   1.9138989  37.9265823
  44.0194855   3.0030041  38.9596786  43.0761070   1.7758162  39.6397629
  40.8950958   2.8378253  38.1101952  41.2297668   2.5839088  37.2469902
  42.6577454   4.4074159  40.9865417  43.4354591   5.3038998  40.6092148
  42.8302498   3.6403759  42.0761223  42.2745438   2.8094614  42.2206001
  43.7595673   3.9526842  43.0515594  43.6525307   3.1254501  43.7532234
  44.7538071   4.0471878  42.6149178  43.5718689   5.1639953  43.9152832
  44.4778290   5.8176174  44.3883934  42.3430367   5.5543246  44.1445427
  41.6327934   5.0499673  43.6333809  41.8053474   6.5592656  45.1779633
  42.4378815   7.4462214  45.1417618  40.7818680   6.8492517  44.9402809
  41.8640862   5.9629755  46.6530762  41.3908577   4.8835521  46.8888397
  42.3522797   6.7859116  47.6336212  42.7228546   7.6749034  47.3295326
  42.5574455   6.3758397  49.0366669  43.2363815   5.5253243  48.9752579
  43.2019119   7.6121736  49.6997871  44.0016251   7.7909045  48.9810295
  42.6500778   8.5479107  49.6104660  43.8075943   7.4222436  51.1186142
  43.0529785   6.9635458  51.7575607  45.0203667   6.4920321  51.1403351
  45.8165932   6.8705182  50.4993439  45.4752235   6.4601760  52.1303825
  44.8006516   5.4988680  50.7486038  44.2058144   8.7679567  51.6473656
  44.9757195   8.5999241  52.4004288  44.5433159   9.5022793  50.9159546
  43.3553581   9.2649689  52.1140671  41.2754822   6.0011592  49.7277451
  40.3716812   6.8357720  49.7702560  41.2636795   4.7641268  50.3575325
  42.1590042   4.3116531  50.4748459  40.0846596   4.1733036  50.9472275
  39.3299141   4.1540051  50.1610451  40.2833557   2.7026742  51.2630348
  41.0939407   2.5832212  51.9819107  39.3043785   2.3635602  51.6017113
  40.7040138   1.9972055  49.9379311  40.1782188   2.4334233  49.0886040
  41.7768745   2.0363963  49.7494354  40.4076691   0.5183935  50.1487885
  41.1445351   0.0565611  50.8059387  39.4104843   0.4617203  50.5852623
  40.4604378  -0.2638842  48.8453484  41.5093193  -0.3849411  48.5746231
  40.1174736  -1.2767000  49.0567245  39.6847610   0.3250345  47.7185516
  38.7980385   0.6006053  48.1158943  40.1916847   1.0729314  47.2671280
  39.5159645  -0.4540584  47.0983734  39.6139908   4.9291587  52.2235909
  40.5223274   5.5742850  52.8357735  38.2919769   4.7555919  52.6331367
  37.5831490   4.2617044  52.1099358  37.6223030   5.5019054  53.7711449
  36.5527382   5.6682258  53.6428413  37.7905045   4.6215577  55.0250893
  38.8548241   4.4647555  55.2004051  37.3925858   5.1555343  55.8880081
  37.3989410   3.1522968  54.9522858  36.4095078   3.1941564  54.4969025
  38.1025696   2.6247628  54.3083038  37.2920456   2.5438702  56.3379784
  38.2931137   2.5810454  56.7676086  36.6766930   3.1796486  56.9745598
  36.8108482   1.1317534  56.2939682  36.6334496   0.8306134  57.3264122
  35.8196373   1.0905472  55.8424072  37.7197495   0.3067963  55.4694939
  37.2762756  -0.5766652  55.2623062  37.7669907   0.7184296  54.5483932
  38.6580009   0.1818797  55.8218842  38.1373863   6.9275870  53.9147797
  38.4162941   7.3630104  55.0505943  38.0886536   7.7630930  52.8723679
  37.8453751   7.3509679  51.9829445  38.4306641   9.1414471  52.9852905
  39.1032295   9.2616453  53.8345871  39.3851089   9.5637922  51.8181725
  40.0388794   8.7485065  51.5083427  38.6950912   9.7419720  50.9934082
  40.2096634  11.1249418  52.1680412  39.0987740  11.8561954  52.2948761
  37.2224045  10.1618605  53.1604652  36.3973007  10.1611300  52.3240662
  37.3360100  11.1050282  54.1284981  38.1433296  11.0969343  54.7353554
  36.4887733  12.2407036  54.2480469  35.6649704  12.1971092  53.5356216
  35.8660583  12.3188667  55.6991119  36.7585144  12.4173069  56.3171158
  35.1943321  13.6902285  55.8458672  35.9016685  14.5195446  55.8458061
  34.5017586  13.7584782  55.0069504  34.6770515  13.6953373  56.8052902
  34.9310226  11.0798340  56.0669632  33.9233170  11.1413336  55.6560516
  35.4528046  10.2538366  55.5836678  34.8049736  10.8779469  57.6603470
  33.9545479  11.4753542  57.9889641  34.6933975   9.8097630  57.8464508
  35.6556587  11.2893286  58.2036667  37.2836876  13.5445080  53.9413033
  38.5027122  13.6151581  54.2866325  36.6945343  14.4970541  53.2537193
  35.7294846  14.3835135  52.9782448  37.3052368  15.7345076  52.7901344
  38.2418518  15.8092241  53.3426476  37.3820457  15.6332130  51.2616730
  36.3940201  15.5049601  50.8195724  37.5805168  16.6397076  50.8933258
  38.4928284  14.7091436  50.5571747  39.4911690  14.9843817  50.8972626
  38.2138939  13.6743870  50.7561073  38.3644333  14.6939087  49.0628891
  37.3901024  14.2437344  48.8728104  38.4421959  15.6791058  48.6030617
  39.4096870  13.8539972  48.3913498  40.2546959  14.3924675  48.2644272
  39.6235580  12.5557833  48.2795372  38.6132698  11.7083435  48.5641479
  37.7437782  12.1084471  48.8866539  38.7879105  10.7139225  48.5371895
  40.7948990  12.0626774  47.9157867  41.5436134  12.7220716  47.7585258
  41.0103149  11.1070042  48.1615219  36.4249382  16.9935226  53.1811218
  35.1859703  16.8668938  53.3801994  37.0778427  18.1535091  53.2159538
  38.0853615  18.1412468  53.1462555  36.5339432  19.5838089  53.4975624
  35.4560471  19.4733887  53.3790627  37.0414925  20.0815964  54.8730087
  38.1257820  20.1788845  54.8186913  36.3748055  21.3616524  55.3314781
  36.5516930  22.0798550  54.5308495  35.2955551  21.2575893  55.4432259
  36.8582916  21.7031307  56.2467537  36.8027306  19.0376949  55.9477539
  35.7351952  18.9146404  56.1303101  37.1197662  18.0049858  55.8025093
  37.2887573  19.3805618  56.8611679  36.9119377  20.5143585  52.3431702
  38.0537758  20.3635082  51.8057899  35.9719276  21.4001293  52.0119553
  35.0970154  21.1471367  52.4485550  36.0621185  22.6489792  51.3000145
  37.1142311  22.9332523  51.2810516  35.5214195  22.5431480  49.8497086
  36.0055008  21.7549973  49.2730026  34.4611168  22.2991219  49.9153290
  35.6710663  23.8652802  49.0334473  34.7046585  23.9975586  48.5469742
  35.6546211  24.6270561  49.8128891  37.1598167  24.0326881  47.9477348
  36.6011429  22.7724075  46.6752167  36.4259834  21.8005772  47.1366806
  35.7460556  23.1870594  46.1413651  37.4383087  22.6622353  45.9859314
  35.2796555  23.7393436  52.0770607  34.0764618  23.9799194  51.9276314
  35.9223595  24.5828724  52.8977242  36.8559303  24.4177723  53.2459869
  35.1948738  25.5730209  53.7434845  34.1293564  25.3623962  53.8352165
  35.8184242  25.5094910  55.1259270  35.4784813  24.5389328  55.4872513
  36.9064064  25.5661526  55.0914268  35.1785355  26.6411209  55.9570885
  35.4872208  27.6026592  55.5468941  34.1220055  26.5682240  55.6991653
  35.4116287  26.4645271  57.7550812  37.1304626  26.9599438  57.7841759
  37.9143600  26.3136063  57.3893967  37.2794075  27.9688358  57.3994026
  37.4554367  27.0211163  58.8228073  35.4479446  26.9548817  53.0468826
  36.6478348  27.2435741  52.8053131  34.3859406  27.7913551  52.8848305
  33.4715347  27.5101891  53.2087212  34.6121216  29.1487560  52.2767220
  35.6003838  29.1339722  51.8171272  33.5288086  29.3819237  51.2930069
  32.5913429  29.5492439  51.8233528  33.9631042  30.5411625  50.4123192
  33.7395973  31.4376984  50.9905663  35.0385437  30.5567322  50.2354546
  33.3656120  30.6849346  49.5120735  33.3399315  28.3482628  50.4062691
  34.1274643  28.2146301  49.8737869  34.5719452  30.2608147  53.3191681
  33.5433540  30.3672943  54.0144157  35.6047859  31.1427174  53.3735657
  36.4215736  30.9813595  52.8017921  35.6180916  32.1817474  54.3905487
  34.6150856  32.3736267  54.7716866  36.5737267  31.7449265  55.5508232
  37.5957451  31.9672394  55.2439804  36.3169556  32.5087814  56.8073349
  36.3953285  33.5594635  56.5280037  35.3033562  32.2630005  57.1240501
  37.1587524  32.4289894  57.4951706  36.4927826  30.2619476  55.9957161
  37.2598915  29.9925652  56.7217255  35.4556160  30.1496296  56.3115768
  36.6996346  29.5338593  55.2113686  36.1046257  33.5611954  53.9046898
  37.0247498  33.6325798  53.1319542  35.7493668  34.6451149  54.6108818
  35.1018372  34.6539078  55.3859520  36.1626816  35.9707298  54.3530502
  36.3142624  36.1612282  53.2905807  35.0328484  36.9303627  54.8607521
  34.1342087  36.7235718  54.2795601  34.9497490  36.7493362  55.9323959
  35.4149628  38.3551064  54.7015228  34.5634842  38.9116745  55.0930786
  36.2732544  38.4858284  55.3605728  35.6316795  38.9020615  53.2735558
  36.6057281  38.6007118  52.5759583  34.7997742  39.7638817  52.7484436
  34.0945587  40.1414452  53.3650589  35.1386795  40.2262077  51.9168777
  37.5598450  36.1803322  54.9773331  37.6240120  36.1431694  56.2139587
  38.5726357  36.5057297  54.2032776  38.4194756  36.5283089  53.2052116
  40.0073547  36.5693436  54.6712646  39.8956680  36.8740692  55.7118301
  40.6543503  35.1973686  54.7312546  39.9070892  34.4919167  55.0946236
  41.2020454  34.6693611  53.4347229  41.5507355  33.6366768  53.4263000
  40.4789391  34.7076950  52.6200180  42.0920372  35.2582703  53.2128944
  41.7219086  35.2882538  55.7333946  41.4169884  35.5309105  56.6107445
  40.9719200  37.6417046  54.0319138  40.8059845  38.0506439  52.8319740
  41.9852448  38.0448532  54.7141495  41.9710236  37.6579628  55.6470032
  43.2199860  38.7247467  54.3701439  43.1768990  39.2025986  53.3914223
  43.5414429  39.7068214  55.5354233  44.3831444  40.2869873  55.1572037
  42.7574577  40.4430618  55.7126808  43.9274101  39.1235199  56.8958092
  43.9613266  39.8607521  57.8788414  44.1461411  37.9359818  57.0518532
  44.3690681  37.8430862  53.9747810  45.3608704  38.3825722  53.4040222
  44.2735252  36.5159416  54.1952133  43.3750229  36.2453995  54.5688477
  45.3754005  35.5290184  54.0191193  46.3358841  35.9134827  54.3622894
  45.1651421  34.2172203  54.8607597  44.2792206  33.7250366  54.4595070
  46.3682213  33.2691956  54.6415977  46.7408409  33.2130470  53.6188087
  47.2175026  33.5210190  55.2767372  46.1101418  32.2986526  55.0653191
  44.9358826  34.3303223  56.3834343  44.8009148  33.3270035  56.7874565
  45.6786003  34.9980736  56.8199806  43.9515076  34.7980385  56.4021873
  45.4604759  35.2697830  52.5148087  44.4724998  35.0025482  51.8276367
  46.6900558  35.3979263  51.8997574  47.9433289  35.8079758  52.5462990
  48.4193344  35.0258904  53.1377907  47.9265747  36.5816650  53.3139076
  48.8363495  36.2274323  51.3959045  49.9055176  36.2022057  51.6064835
  48.5326767  37.2317543  51.1005669  48.4471169  35.3264008  50.2381973
  48.9438896  34.3611984  50.3367195  48.5269318  35.8326378  49.2761917
  46.9627304  35.1068573  50.4953575  46.3675995  35.8480797  49.9619675
  46.5978203  33.6599998  50.1361961  46.7174187  32.7657013  50.9498940
  46.1860390  33.4031601  48.8513298  46.2453423  34.0787888  48.1029205
  45.7616539  32.0745087  48.2910271  44.8649712  31.8549519  48.8705559
  45.4926071  32.2300072  46.7646675  44.7387962  32.9969597  46.5867729
  46.3752441  32.5137253  46.1914673  44.9098663  30.9922543  46.1576843
  45.6205635  30.1660652  46.1781731  44.0389175  30.7699947  46.7742538
  44.4593163  31.2280617  44.7098732  45.2968674  31.2867031  43.8079567
  43.2616234  31.6121407  44.3939133  42.5600014  31.7538910  45.1064644
  43.1083527  31.7804127  43.4098930  46.7789803  30.9228649  48.5461845
  46.4238052  29.8205910  48.9231453  48.0444221  31.1587067  48.1712418
  48.3993073  32.0777931  47.9488907  49.1671715  30.2495403  48.3182487
  48.7923088  29.3016739  47.9320717  50.4030457  30.7706413  47.4424019
  51.1755943  30.0024776  47.4769707  50.0304947  30.8663406  46.4225273
  51.0077744  32.0612717  47.8373337  52.2527084  32.1918755  47.8294640
  50.2354507  32.9310417  48.2474937  49.6064987  30.0604591  49.7495079
  50.4888382  29.2156944  49.9812241  49.0920868  30.8884449  50.6917686
  48.5230751  31.6262875  50.3020058  49.3420792  31.0040226  52.1458511
  50.1947937  30.3438683  52.3045235  49.7423286  32.3810730  52.5670433
  48.9758453  33.1378517  52.4000168  49.8371201  32.3459702  53.6523476
  51.1320076  32.7184105  52.0396500  51.7297554  31.8105507  52.1208611
  51.0347328  33.0202599  50.9968033  51.7737541  33.9826126  52.6856728
  51.3158836  34.4987793  53.7336922  52.9511147  34.3869514  52.2285690
  53.2967567  33.9155655  51.4049034  53.2887344  35.2305107  52.6696205
  48.2563210  30.2998734  53.0404396  48.4732170  30.2870636  54.2746887
  47.0863686  29.9678974  52.6008453  46.9485703  30.1496086  51.6169281
  46.0386086  29.1309986  53.2205124  45.6689491  29.7529221  54.0357895
  44.8677177  28.8279018  52.1932411  45.4028091  28.5114632  51.2978973
  43.8639641  27.8329868  52.7889175  43.4880753  28.4005413  53.6402130
  43.0887375  27.7226467  52.0306625  44.3756332  26.9261036  53.1111870
  44.0245399  30.0795593  51.8360596  44.6782799  30.7621422  51.2930984
  43.2290535  29.7693233  51.1585197  43.3720016  30.8812618  52.9020615
  42.5625534  31.5232201  52.5545158  42.7561798  30.2462177  53.5389175
  44.0731506  31.4978619  53.4644585  46.5663834  27.7471943  53.7797241
  47.0455513  26.9451008  53.0089073  46.5132828  27.5896416  55.0852928
  46.0782471  28.3105450  55.6431007  46.7697067  26.2604141  55.6627541
  47.6631889  25.9243813  55.1365700  46.9690971  26.4534740  57.2339859
  46.0585213  26.9791546  57.5214119  46.9918823  25.4617882  57.6858063
  48.3156357  27.1244736  57.5480881  49.1544724  26.7224846  56.9798813
  48.2645721  28.1807575  57.2839661  48.7226639  27.0680523  59.0237465
  47.9883537  27.4919262  59.7087402  48.9788818  26.0460491  59.3029633
  49.9509926  27.8307209  59.2595215  50.4189301  28.2729683  58.4813499
  50.6696091  27.8705521  60.3283272  50.1648483  27.4508572  61.4120102
  50.6711845  27.6961117  62.2508087  49.4322052  26.7559814  61.3902130
  51.8754120  28.3321171  60.2809906  52.4273643  28.1828518  61.1135597
  52.2257423  28.4080048  59.3367386  45.6703110  25.2125511  55.4166336
  44.6765175  25.1235619  56.1326599  45.8604393  24.4528866  54.3239784
  46.6803894  24.6579132  53.7710342  45.1375656  23.2623043  54.0001793
  44.0721550  23.3891640  54.1923027  45.2987328  22.9698601  52.4592094
  46.3454323  22.7457581  52.2535439  44.6058540  22.1740284  52.1859474
  45.0302391  24.0407925  51.5529289  43.7905502  24.4376183  51.1732140
  43.9173393  25.5001984  50.3612061  43.2307892  26.3324413  50.3119659
  45.2363586  25.6148605  50.0902328  45.6725807  26.3708839  49.5820580
  45.9141808  24.7027225  50.8058434  46.9643631  24.4554443  50.8546066
  45.6573753  22.0691357  54.8125992  46.8878899  21.9047241  54.9394760
  44.7192612  21.3392658  55.5115662  43.7950592  21.3636379  55.1049232
  45.0520401  20.3172150  56.5288162  46.1063576  20.4144726  56.7877769
  44.3122940  20.5625019  57.8974991  43.2490768  20.4908257  57.6683006
  44.6515350  19.5185719  58.9852333  45.6239433  19.7452488  59.4224319
  43.7811584  19.5581760  59.6401901  44.6190338  18.4655609  58.7055664
  44.6419792  22.0211582  58.3739357  44.5801010  22.1454639  59.4550591
  45.7075386  22.1061783  58.1607208  44.0635147  22.7902584  57.8621101
  44.8130951  18.8299561  56.1000366  43.7105370  18.5086899  55.6991043
  45.8165207  17.9558315  56.2300377  46.6596184  18.2456932  56.7046585
  45.6817513  16.4886246  55.9212837  44.6172142  16.2553921  55.8997536
  46.2998466  16.1349010  54.5051308  47.3579636  16.3561192  54.6449432
  46.2021828  15.0770798  54.2610474  45.7108765  16.8428802  53.3049278
  45.9441833  18.1967583  53.1266212  46.5384789  18.6635628  53.8981819
  45.3660355  18.7831192  52.0084190  45.5195007  19.8430099  51.8688469
  44.5101013  18.1140289  51.1664505  43.9803047  18.7942543  50.1468697
  43.6798630  18.1862984  49.4673653  44.3173409  16.7364330  51.2990570
  43.7053185  16.2339554  50.5646515  44.8779526  16.1082344  52.4269333
  44.7313766  15.0797510  52.7221413  46.1789055  15.5245695  57.0321503
  47.4196434  15.4269218  57.1590424  45.2533836  14.9137411  57.7976990
  44.3308754  14.9523172  57.3883171  45.3505440  14.1638184  58.9642944
  46.2854385  14.2331095  59.5204163  44.1868706  14.4698257  59.9150047
  43.2383041  14.5919819  59.3921242  44.0155983  13.5854025  60.5286522
  44.4481010  15.7095556  60.7688026  44.8905373  16.5263157  60.1984863
  43.1739655  16.1724110  61.3981743  43.2676773  17.1742649  61.8172302
  42.4655571  16.3253880  60.5840149  42.7693024  15.3931942  62.0440598
  45.3968086  15.3686180  61.8666687  46.4343872  15.2467117  61.5557480
  45.3152122  16.0505848  62.7130547  45.0291901  14.4233980  62.2660637
  45.2657700  12.6516581  58.5083618  44.7304344  12.3442593  57.4552841
  45.8641205  11.8312254  59.3880997  46.3147774  12.2503748  60.1889267
  45.8831291  10.3756933  59.3198471  46.4459839   9.9081917  60.1277657
  44.3790283   9.8401775  59.3632927  43.8296776  10.2130699  58.4988480
  44.3407593   8.7510786  59.3856277  43.7798615  10.3103685  60.6962433
  43.8417206  11.3974390  60.6457214  42.7281876  10.0249310  60.7209969
  44.2821541   9.5965433  61.9079742  44.2260933   8.3186884  61.9404030
  44.7380638  10.2769251  62.8341713  46.4903831   9.9199743  57.9197159
  47.4743805  10.5051374  57.4266205  46.0856438   8.8032179  57.3434410
  45.4781876   8.1910248  57.8691025  46.6318092   8.3220119  56.0602303
  47.7024155   8.2047672  56.2280388  46.0478516   6.9987941  55.7670059
  44.9675751   7.1139264  55.8555870  46.2489548   6.6820769  54.7436066
  46.5017662   5.9600377  56.7516441  47.5823669   6.0482898  56.8639755
  46.0671806   6.1739049  57.7281151  46.0639763   4.5856485  56.3392372
  44.9880676   4.7169309  56.2239609  46.4899063   4.3710365  55.3591232
  46.3410034   3.4319513  57.3117790  45.8000031   2.5471463  56.9763107
  47.4013329   3.1798522  57.2961617  45.8457718   3.7893112  58.6924744
  46.1819153   3.1336517  59.3832855  46.1724892   4.6912351  59.0085258
  44.8501472   3.6819704  58.8240356  46.4972801   9.3232012  54.9222984
  47.2068176   9.2559614  53.9015694  45.6085358  10.3167734  55.0966034
  45.1758232  10.4851208  55.9935532  45.3808670  11.3611050  54.0770111
  45.1973572  10.8817072  53.1154480  44.0726700  12.2063446  54.4086761
  43.6036530  12.4299774  53.4504890  43.4240189  11.6282196  55.0667915
  44.3079338  13.1798248  54.8388939  46.6102295  12.2158880  53.7730103
  46.5876503  12.7820358  52.6802177  47.5871887  12.3072920  54.6602249
  47.5042076  11.7730398  55.5133324  48.9008942  12.9611769  54.3679695
  48.6245537  14.0154905  54.3806038  49.8996048  12.5871429  55.5291443
  49.3603897  12.8862848  56.4279556  50.1426506  11.1451836  55.6252518
  50.4978065  10.8989220  56.6259117  49.2004433  10.5971823  55.6315155
  50.6496696  10.7606812  54.7402763  51.2237740  13.3314896  55.4877892
  51.9600143  12.8306551  56.1164551  51.6287994  13.3494949  54.4759941
  50.9949036  14.3556194  55.7825546  49.3813133  12.6185598  52.9660454
  50.0023308  13.4187908  52.3090706  49.1224442  11.3785419  52.5438919
  48.7216263  10.6407604  53.1052513  49.8113747  10.9234457  51.3051338
  50.8901405  11.0242071  51.4244003  49.7136307   9.3932161  51.2546654
  49.9475288   9.0023909  52.2449455  48.3198128   8.9659729  50.6677399
  47.4530029   9.2593021  51.2599373  48.2474899   9.3346291  49.6445274
  48.1500702   7.8897858  50.6343231  50.7417946   8.6805735  50.3587036
  51.7752991   8.8929281  50.6323357  50.5338783   7.6130085  50.2867470
  50.5409546   9.0582304  49.3561363  49.2759590  11.6230583  50.0517197
  49.8706055  11.5142603  49.0139503  48.1753273  12.3213348  50.1753311
  47.6888161  12.4569359  51.0499878  47.6270218  13.0093431  49.0306244
  47.7049675  12.3001490  48.2065697  46.0959930  13.3210869  49.3630486
  46.1903038  13.9721470  50.2321510  45.6540031  13.8573895  48.5233345
  45.1532555  12.2050676  49.7432289  45.4501572  11.6135559  50.6092911
  43.8026886  12.7626886  50.2296371  43.2370567  11.9759731  50.7288780
  43.9277039  13.6379938  50.8670654  43.2352066  13.1193876  49.3700829
  45.0768852  11.2362604  48.5307808  45.2636108  10.1843472  48.7469292
  44.0423660  11.3180552  48.1973381  45.7359352  11.6036119  47.7441406
  48.4254684  14.2873125  48.6366196  48.6216965  14.5730371  47.4626274
  48.9988518  15.0104179  49.6012306  48.8190689  14.6884899  50.5415192
  49.7648773  16.2540512  49.5036926  50.0410423  16.5372982  48.4880142
  48.9053307  17.4024277  49.9517288  48.6572647  17.1442585  50.9812508
  49.4220085  18.3621883  49.9523048  47.6371841  17.6372967  49.0437088
  47.0376701  16.7304382  48.9644051  46.9606781  18.3782940  49.4695854
  48.0685806  18.0877590  47.6579208  48.7168159  17.3044243  47.2651405
  47.2274551  18.0772285  46.9647408  48.6791191  19.4131508  47.7352867
  49.6795235  19.4413414  47.8712921  48.0727386  20.5983124  47.8045349
  46.7819443  20.7471485  47.7761192  46.4389076  21.6785202  47.5890999
  46.1601982  19.9739304  47.5872612  48.7821541  21.6583366  48.0253983
  48.4047012  22.5946636  47.9949875  49.7778969  21.5953655  47.8684578
  51.1093903  16.2231083  50.2335968  51.2486992  16.7343712  51.3863983
  52.1068153  15.5140419  49.6251335  51.9718781  14.5217533  48.6199188
  51.4968452  14.8537912  47.6967773  51.3700142  13.6835518  48.9710274
  53.4171791  14.1926270  48.2781296  53.7153130  14.9226770  47.5256386
  53.5210037  13.1938410  47.8541603  54.1592674  14.3220892  49.6146164
  55.2434273  14.4197206  49.5583038  53.9521523  13.3908415  50.1418648
  53.4420853  15.4478388  50.2654190  53.2383537  15.2153816  51.3106728
  54.1752014  16.8388844  50.1426315  55.2255478  17.0348854  50.7729530
  53.6523514  17.7943153  49.4093742  52.8017807  17.6113319  48.8963966
  54.0157585  19.1796417  49.4084892  55.0919609  19.2246990  49.2415619
  53.4323883  19.8766689  48.1567039  53.7909546  20.8996315  48.0423431
  53.7408409  19.3407669  47.2590599  51.9202881  19.8919086  48.1143608
  51.2458305  18.9542732  48.6520615  51.3869629  20.9062691  47.5532532
  53.6047935  20.0301971  50.6052094  54.4605293  20.8443375  51.0911293
  52.3956642  19.8422813  51.0974464  51.8165092  19.2541676  50.5153809
  52.0452003  20.3063278  52.4682693  52.4120407  21.3327160  52.4608078
  50.5105171  20.2715855  52.6287346  50.1636200  19.2394562  52.5789871
  50.2714806  20.7008820  53.6016998  49.7641678  21.0942802  51.6430893
  50.0561867  20.8381481  50.6246490  48.3143768  20.6958160  51.8645973
  47.6555099  21.2031212  51.1598740  48.1694946  19.6799545  51.4969902
  47.9712601  20.7195339  52.8989143  49.8956718  22.5429287  51.8570442
  49.1265678  23.0309200  51.2583313  49.6185265  22.6944637  52.9002724
  50.9164886  22.8367023  51.6126404  52.6430817  19.5475292  53.6553230
  52.8787613  20.2171440  54.6765480  53.0344086  18.2877789  53.4368744
  52.8700676  17.8979359  52.5197487  53.6306992  17.3771801  54.4675865
  52.9885902  17.3902798  55.3482857  53.4152489  15.9692364  54.0072632
  52.3524933  15.7470245  53.9109840  53.8342972  15.7771358  53.0195389
  53.9240150  15.1349077  55.0988503  54.3458138  14.3502693  54.7410355
  55.0660095  17.6964340  54.8651276  56.0232582  17.6338978  54.0994263
  55.2953300  18.0382366  56.1425400  54.4246864  18.1871662  56.6323318
  56.6182060  18.3067036  56.8064461  56.4735909  18.6764984  57.8215523
  57.3480110  16.9544144  56.9990044  57.5369911  16.6482391  55.9701004
  58.2712975  17.1285152  57.5515747  56.6823425  15.8260326  57.7997284
  55.8193703  15.4221992  57.2702980  57.6642532  14.6280708  58.0304337
  57.1689987  13.8176203  58.5652122  58.0618896  14.2858086  57.0750046
  58.4958153  14.9433489  58.6606789  56.2452621  16.3352242  59.1932602
  57.0875092  16.7416992  59.7531548  55.4314613  17.0558167  59.1121483
  55.9486923  15.5102711  59.8410263  57.5256767  19.3029556  56.0927391
  58.7298584  19.3837204  56.4290695  56.9663925  20.0596561  55.1113472
  55.9901848  19.8717499  54.9330063  57.6350975  21.0784187  54.3528938
  58.2802200  20.5112839  53.6818695  56.6011391  21.8152256  53.4604683
  55.9739609  21.0216579  53.0542679  55.6546936  22.6594067  54.3041496
  56.2562180  23.5170746  54.6052589  54.8654556  23.0608978  53.6685333
  55.3611870  22.1235161  55.2067947  57.3100471  22.6337376  52.5854530
  57.7007408  21.9992924  51.9801102  58.4693947  22.0644817  55.0916100
  58.1230888  22.4946918  56.2068291  59.5506592  22.5237656  54.4022179
  59.7390099  22.0695114  53.5200157  60.3828201  23.6352329  54.8780136
  60.5954971  23.5357876  55.9424286  61.8022804  23.4431248  54.1237564
  61.6523399  23.5628357  53.0507736  62.4783325  24.2098656  54.5021210
  62.3047142  22.0330219  54.3928146  62.4151840  21.8134232  55.4547348
  61.6537819  21.2946529  53.9246292  63.7173004  21.6681633  53.8221626
  64.2604523  22.6015816  53.9698677  64.1200409  20.9258461  54.5112686
  63.7077827  21.1568699  52.4436874  63.0857048  20.2648678  52.3698769
  63.0938606  21.8753719  51.9005928  65.0682602  21.0904961  51.9464645
  64.9937973  21.0343208  50.9407806  65.6125946  21.9212742  52.1298180
  65.5727386  20.2686043  52.2466164  59.8363686  25.0901566  54.6224327
  60.2876358  26.0047169  55.2862549  58.9083672  25.2259541  53.7053261
  58.6705704  24.4411449  53.1157188  58.2034073  26.4889278  53.3489685
  58.8841362  27.1314278  52.7904854  57.1308327  26.2011471  52.3054504
  57.6340408  25.9606018  51.3689575  56.5403900  25.3353558  52.6052628
  56.1701813  27.4185600  51.9913864  56.4154129  28.5415592  52.4145164
  55.2569199  27.2173481  51.1143913  55.0557709  26.2526684  50.8929596
  54.6291733  28.0035362  51.0252609  57.7166786  27.2529316  54.6106224
  56.8781395  26.7242470  55.3327637  58.2746429  28.4421558  54.9073257
  59.0693893  28.6576405  54.3224716  57.9509583  29.2624054  56.0835609
  57.7825356  28.6826401  56.9910927  58.9119911  30.3868523  56.5048981
  58.5141449  31.1581154  57.1644211  60.0352173  29.7656879  57.3040199
  60.4081688  29.0224171  56.5993538  60.8092194  30.5188675  57.4514656
  59.6110649  29.3017902  58.1945229  59.5681038  31.0255604  55.3837128
  58.9476204  31.7391129  55.2180519  56.5637856  29.9785595  56.0725212
  55.9916458  30.2826290  57.1142044  56.0135422  30.3611794  54.9146996
  56.5315628  30.1665535  54.0697899  54.8453484  31.2190380  54.8116455
  54.7448044  31.9959011  55.5695877  54.9911041  31.9192200  53.3757782
  54.7117996  31.1788940  52.6261063  54.2997360  32.7614594  53.4030647
  56.3480110  32.4784660  53.0705605  57.0754776  31.6669827  53.0508957
  56.2790108  33.0443840  52.1415367  56.7982864  33.4530220  54.2455330
  56.0076218  34.3681602  54.6256447  57.9069633  33.3022881  54.7517357
  53.4964409  30.5669174  54.9364662  52.5029869  31.2918377  55.0685349
  53.4836502  29.2500782  54.8753090  54.4120102  28.8756371  54.7409973
  52.3913383  28.2737980  55.1554451  51.4404144  28.5018673  54.6739616
  52.9543533  26.9675884  54.6466980  53.3093529  27.1460876  53.6317024
  53.8126526  26.6021233  55.2104874  51.8763618  25.8526440  54.5151329
  51.8039665  25.4141674  55.5104218  50.5726204  26.2583447  53.8823204
  49.9009781  25.4269409  53.6684036  50.0786705  26.8851566  54.6247635
  50.7193336  26.8354988  52.9693718  52.4424553  24.7863750  53.6618309
  51.9530106  23.8661442  53.9807549  52.2943001  24.9297543  52.5915070
  53.5142441  24.6351585  53.7902946  51.9818687  28.1394711  56.6546135
  51.0978584  28.9566307  56.9654732  52.6187859  27.3576603  57.3783569
  27.2003441  44.5926094  54.3026085  26.5465221  45.3555984  54.2002945
  26.9313164  44.0113869  55.0835724  28.0765877  45.0352554  54.5400352
  27.4465599  43.6647301  53.2239876  26.4904842  43.2272415  52.9365425
  28.1250019  44.4498978  52.0036469  27.4712181  45.2564087  51.6716652
  29.0630875  44.8874016  52.3452415  28.4273815  43.5166817  50.8489609
  28.8549919  44.1267738  50.0533257  29.1895542  42.8337250  51.2241478
  26.9982891  42.5230598  50.1099205  26.0263844  43.9532661  49.6862183
  26.5300560  44.5644188  48.9372826  25.0516338  43.6822166  49.2806396
  25.8007660  44.5590515  50.5638428  28.3689384  42.5268250  53.6159286
  29.4253750  42.6644363  54.1641464  28.0111580  41.3362350  53.1297073
  27.1150341  41.3474007  52.6639442  28.6701660  40.0258179  53.3383675
  29.7220917  40.0928955  53.0607719  28.5346127  39.7177696  54.8198509
  29.0391445  40.3738632  55.5291405  27.4490776  39.7831917  54.8936157
  29.0097466  38.3036995  55.2008057  28.6776447  38.2335587  56.2366104
  28.4551544  37.5816803  54.6014633  30.7962666  38.0591927  54.9236374
  30.9152126  36.3843842  55.6634560  30.6859303  35.5442581  55.0079193
  31.9876537  36.2123222  55.7549324  30.4291363  36.1744232  56.6162109
  28.0296326  39.0007362  52.4158516  26.8114052  38.8163872  52.5623741
  28.8215828  38.2392349  51.6348953  29.8041420  38.4510880  51.5359230
  28.3344803  37.1284904  50.9399033  27.4331779  37.3442917  50.3661461
  29.4672794  36.7316551  49.9240494  30.3753510  36.5623360  50.5027008
  29.0593891  35.4629631  49.1922989  28.8366318  34.6339722  49.8640556
  28.0677719  35.6085930  48.7638283  29.7804928  35.1229897  48.4489784
  29.6023445  37.8466301  48.8379097  28.7172470  37.8815155  48.2027054
  29.7139587  38.7988548  49.3564835  30.9435883  37.6016731  48.0907516
  31.1747456  38.4611130  47.4614410  31.6450996  37.3908272  48.8979263
  30.7781010  36.8049507  47.3655281  27.9511223  35.9715614  51.9287338
  28.7851982  35.6233826  52.7579842  26.7580509  35.3434792  51.7963715
  26.1850452  35.4983826  50.9791985  26.3828812  34.1845665  52.7066536
  27.2894421  33.7793274  53.1561279  25.2994385  34.6037598  53.8182869
  24.4264622  35.0314369  53.3252258  24.9937840  33.8092995  54.4990997
  26.0003319  35.6576614  54.7339859  26.9748955  35.2529259  55.0069695
  26.1765137  36.5940361  54.2045860  25.2360802  36.0063591  55.9843178
  24.1842289  36.1132050  55.7191887  25.2295761  35.0799522  56.5586205
  25.7117786  37.1993484  56.6911736  25.1042099  38.0060997  56.7018661
  26.7449989  37.3119469  57.4800682  27.6100254  36.3096085  57.6092148
  28.4838696  36.3931961  58.1087265  27.3731518  35.4233017  57.1867752
  27.0751362  38.3224449  58.2074394  26.5483494  39.1709785  58.0571556
  27.9591217  38.3172188  58.6959534  25.7383175  33.0915375  51.8922806
  25.2323494  33.2947998  50.7344475  25.6998196  31.9408760  52.4921341
  26.1837254  31.9046211  53.3779221  24.9917850  30.8011036  51.8196640
  25.1329021  30.8579750  50.7403336  25.4319420  29.8793201  52.2000275
  23.4813843  30.8401260  52.2049751  23.1841660  30.9396782  53.3649292
  22.5790272  30.7455635  51.2617378  22.9898148  30.5690022  50.3560982
  21.1524582  30.3403854  51.4468155  20.8632126  30.4339085  52.4935684
  20.0531216  31.2750874  50.7085266  19.8887596  30.9318790  49.6871071
  18.7731800  31.1849957  51.5538254  18.4876862  30.1486759  51.7344475
  19.0262337  31.6286888  52.5167389  18.0003643  31.7720947  51.0576706
  20.4054222  32.7582970  50.7107964  20.6593018  33.1198158  51.7072639
  21.2206917  33.0842247  50.0648842  19.2654781  33.6962509  50.1931190
  19.6594143  34.7114754  50.1458473  18.8778877  33.4683685  49.2001724
  18.4168472  33.6865845  50.8771019  20.9951687  28.7921371  51.0820885
  21.5864735  28.3405018  50.1162071  20.2752266  28.0012188  51.8512001
  19.7853794  28.4308472  52.6229324  19.9587536  26.5800304  51.6077003
  20.5286369  26.2525864  50.7381477  20.4597111  25.6698284  52.7688484
  20.1953888  25.9884682  53.7771645  20.0378933  24.6713600  52.6538315
  21.9973450  25.3547630  52.6752090  22.3431702  25.2274590  51.6493950
  22.5388756  26.2081718  53.0833054  22.3169422  24.1303329  53.6116638
  23.3791618  23.9910641  53.8126411  21.9129601  24.3175564  54.6065750
  21.7645817  22.8729839  53.0203552  21.6213207  22.9407368  52.0228653
  21.4208431  21.7829666  53.6402473  21.5116463  21.6661606  54.9157486
  21.7713203  22.4878635  55.4425087  21.1924305  20.8696938  55.4485168
  21.1035976  20.7712612  52.9145699  21.3304710  20.9090862  51.9400787
  21.0051289  19.8453255  53.3057823  18.4668140  26.2066097  51.3493690
  17.5856628  26.8440247  51.8807716  18.2631950  25.0839577  50.6561432
  18.9372768  24.7536736  49.9803963  17.0550003  24.2657986  50.8924141
  16.8073578  24.3089237  51.9530334  16.2254944  24.6840954  50.3222847
  16.9963589  22.8160362  50.5074997  17.9598274  22.2744827  49.9196472
  15.9655027  22.0204144  50.9625359  15.2406464  22.3862419  51.5632477
  15.7553911  20.6224480  50.6212234  16.1592255  20.4254494  49.6281395
  16.4586544  19.7244492  51.6490326  16.4365997  18.6874199  51.3141136
  17.4198780  20.1544094  51.9306145  15.8855028  19.8202114  52.5712204
  14.2021627  20.3179073  50.5447273  13.3781652  21.0975246  51.0494766
  13.8955517  19.1537724  49.9023666  14.6318951  18.4951649  49.6922874
  12.5434055  18.6377926  49.6285744  11.9621668  18.7958546  50.5370216
  11.8390255  19.4462585  48.5148811  11.8372536  20.4935055  48.8171616
  12.2523413  19.2836494  47.0383263  12.1609869  18.2130203  46.8552933
  11.5984812  19.7660198  46.3117676  13.3142080  19.4493656  46.8564568
  10.4756842  18.9896450  48.5767441   9.8865719  19.6947002  48.2984543
  12.6346712  17.1636410  49.2265663  13.7555733  16.7864361  48.9095879
  11.5732603  16.3713055  49.1183586  10.6839285  16.7517719  49.4089317
  11.6178370  14.9402561  48.6670494  12.6239605  14.7524233  48.2921677
  11.2751551  13.8804340  49.7383919  11.1370335  12.9008942  49.2806549
  12.3901749  13.8519421  50.8385849  12.2158184  12.8882847  51.3171806
  13.4250488  13.8845701  50.4978905  12.2043667  14.5379047  51.6650429
   9.9818401  14.1669216  50.2584343   9.3214464  13.9100857  49.6107330
  10.5874834  14.7449160  47.5269928   9.5327568  15.4039488  47.5308075
  10.9179325  13.8593407  46.5540352  11.7777462  13.3317919  46.6041718
  10.0048761  13.5139494  45.4355927   9.2061577  14.2543554  45.3913422
  10.7384300  13.3662157  44.1067810  10.0231934  13.0864706  43.3332977
  11.4532881  14.5771112  43.5285454  12.2865353  14.8343687  44.1824722
  11.8955631  14.4240952  42.5441284  10.8127937  15.4573994  43.4740753
  11.8083677  12.2942057  44.0456619  12.6281919  12.5558414  44.7146416
  11.4405785  11.3073721  44.3267136  12.1089401  12.2166824  43.0007935
   9.2787304  12.2656755  45.8372231   9.8831577  11.4764605  46.5489693
   8.0624971  12.1388617  45.3075829   7.6724601  12.9001207  44.7705002
   7.2632589  10.9957781  45.4524918   7.6120324  10.6371136  46.4209061
   5.8210697  11.3809195  45.5978622   5.5859075  12.0168505  46.4513206
   5.5691843  12.0353031  44.7633324   4.7269406  10.2974558  45.5501823
   3.7432640  10.6697712  45.8362961   4.5276680  10.0468006  44.5082779
   4.9589510   8.9884243  46.3354836   5.1812649   9.0200682  47.5819130
   4.8187366   7.8788662  45.7872009   7.5599513   9.8815145  44.4003372
   7.6560140   8.6830835  44.7718163   8.0780239  10.3924360  43.2302628
   8.0507612  11.3843622  43.0420113   8.5248108   9.5351305  42.0607376
   8.6672468   8.4900322  42.3356590   7.5403099   9.4641790  40.8876266
   7.2682714  10.5056448  40.7160301   7.9716458   9.1508169  39.9369125
   6.2647042   8.6668034  41.1357002   6.5986624   7.6436396  41.3080635
   5.8412542   9.1739082  42.0026665   5.2598033   8.8735008  39.8959503
   5.7693391   8.6748695  38.9530716   4.4611812   8.1316919  39.8912315
   4.7222323  10.2154779  39.8491631   4.7629838  10.7668257  40.6944160
   4.0856953  10.8342171  38.8611679   3.7990625  10.2464495  37.7107353
   4.0770898   9.2997580  37.4949074   3.2581971  10.6902380  36.9822998
   3.6814318  11.9981432  38.8688393   3.9147074  12.6341200  39.6179886
   3.3494501  12.4262371  38.0164185   9.9199295   9.9907761  41.5611534
  10.0990410  11.1639605  41.3305969  10.9162970   9.1292133  41.2741508
  10.9076414   8.1811008  41.6221581  12.0415220   9.3766451  40.2986832
  12.5701351  10.3002539  40.5345154  13.0259161   8.2449093  40.4976082
  13.6063423   8.3858671  41.4093857  12.5188904   7.2803822  40.5244255
  14.0348997   8.1830940  39.3631363  14.6430368   9.2008057  38.9952660
  14.2892828   7.0596085  38.7992096  11.3548613   9.3469076  38.8499146
  11.3115711   8.2702169  38.2134094  10.7796478  10.4869823  38.4485664
  10.7765875  11.2183247  39.1451492  10.3403149  10.8790073  37.1029587
  10.9946671  10.3827448  36.3862686   8.8799028  10.4052467  36.8038940
   8.8127098   9.3339844  36.9935837   7.7965221  11.1771784  37.5494080
   7.7144475  12.2426262  37.3345108   6.7953439  10.8218822  37.3054619
   7.9188499  10.9942360  38.6169586   8.6473045  10.5922451  35.4530258
   9.1563568   9.9929228  34.9023170  10.5016050  12.3842049  36.8806229
  10.2788849  13.2012100  37.7487183  10.9239588  12.8151922  35.6729813
  11.0407429  12.1544504  34.9180794  11.1005125  14.2182140  35.3118896
  11.9240484  14.6544371  35.8772163  11.5852356  14.2375202  33.8226738
  12.4995747  13.6567421  33.7010956  10.8290052  13.7425280  33.2134132
  11.7390289  15.5805740  33.0801315  10.8949251  16.2164879  33.3469696
  12.5965519  16.1921463  33.3607254  11.7132540  15.4291992  31.5410995
  10.6277628  15.6366091  30.9677868  12.6976347  14.9723454  30.9278221
   9.9674463  15.1945066  35.5546875  10.2029753  16.2638912  36.0604591
   8.6927967  14.8195868  35.2992592   8.5233955  13.8951092  34.9294701
   7.5073528  15.7324057  35.6212540   7.6832743  16.6721401  35.0977554
   6.2268534  15.1268234  35.0656395   5.4283400  15.8687525  35.0612869
   6.4060659  14.6728020  34.0910378   5.7241139  13.8880148  35.8494492
   6.4879522  13.1197577  35.7293091   5.7391949  14.2556124  36.8754845
   4.3488984  13.4724216  35.4231644   3.4859567  13.0398273  36.2932129
   4.1438527  13.3962736  34.2417831   7.3557138  16.0821686  37.0674896
   6.7902727  17.0624313  37.4498711   7.8133264  15.1689844  37.9706688
   8.2247105  14.3430195  37.5600052   7.6882782  15.2557831  39.4276505
   6.7724705  15.8054810  39.6449699   7.5926585  13.8129654  40.0241241
   6.6168928  13.3563957  39.8582306   8.3506947  13.2023697  39.5335579
   7.8794513  13.6255074  41.4885178   7.8978343  12.5720367  41.7677345
   8.8667173  14.0789766  41.5767136   7.0475726  14.3972445  42.5359764
   7.5697255  14.4488649  43.7232552   5.9404383  14.7653513  42.2086296
   8.9449253  16.1094112  39.9212914   8.7707577  17.0686150  40.7031364
  10.1480474  15.6360521  39.5272102  10.1673803  14.7569599  39.0302963
  11.4388542  16.2482319  39.9014206  11.4814425  16.3569946  40.9851456
  12.6321754  15.3920736  39.2584343  12.3517771  15.2087221  38.2211952
  13.9644680  16.1611748  39.2074776  13.9871702  16.9866848  38.4960632
  14.2831783  16.4867229  40.1977043  14.7673178  15.5789213  38.7552490
  12.8564835  14.0233316  39.9723358  13.3097591  14.0141773  40.9635773
  11.8704367  13.5668097  40.0583534  13.7789536  13.1788559  39.0799065
  13.5909977  13.1978636  38.0064011  14.8054428  13.4961548  39.2635651
  13.7613373  12.1506882  39.4413795  11.5579824  17.6692219  39.5476608
  11.9630117  18.4701023  40.4422302  11.3703098  18.0677280  38.2741699
  11.1463470  17.4097424  37.5413704  11.4417629  19.4347630  37.9175186
  12.3783922  19.8102112  38.3296661  11.3701687  19.5669231  36.4039955
  10.3807259  19.2821178  36.0462418  11.3983383  20.6296768  36.1634521
  12.4702854  18.8486156  35.6642418  12.2477636  17.8008976  35.8664055
  12.3577700  19.0767021  34.1489296  12.4471617  20.1336670  33.8980598
  13.0501652  18.4808388  33.5542564  11.3993101  18.6964016  33.7956123
  13.8412085  19.1567993  36.0236015  14.5583611  18.4848042  35.5522118
  14.0614367  20.1932564  35.7679520  14.0346155  18.9952106  37.0840645
  10.3196268  20.3139782  38.5339050  10.5433922  21.4763031  38.8718987
   9.1365595  19.7167892  38.7540588   8.9471903  18.7315426  38.6377068
   8.0851145  20.4902020  39.4287376   8.0665903  21.4795666  38.9716644
   6.7355647  19.7659569  39.2711487   6.5241761  19.5241432  38.2295456
   6.7922168  18.9152946  39.9503136   5.4958019  20.5157909  39.7715912
   4.6807833  19.8152695  39.9535599   5.5516129  20.8386154  40.8111954
   5.0227890  21.5869827  38.8370895   5.0548120  21.4879990  37.6520576
   4.5822606  22.6771488  39.4063797   4.4139953  22.6062183  40.3997421
   4.3326054  23.4577751  38.8161316   8.5027428  20.8103466  40.8869591
   8.4522038  21.9675198  41.3115654   8.9423666  19.8364334  41.6320801
   8.8739653  18.8654232  41.3627129   9.4997091  19.9726372  43.0628891
   8.7000408  20.4361839  43.6406059   9.8860817  18.5235291  43.6814728
  10.4711580  17.9870491  42.9344940  10.3756771  18.8035469  44.6142044
   8.6346512  17.6250896  44.0525131   7.9375701  17.5919647  43.2152100
   8.9115553  16.5782642  44.1773415   7.9254847  18.1230450  45.3428192
   8.6437368  18.1808834  46.1606636   7.4721956  19.0800495  45.0844154
   6.7667608  17.2386665  45.6628799   6.1656814  17.6633587  46.4668922
   6.1066766  17.2667866  44.7959328   7.1730433  15.8142700  45.9863358
   7.3259010  15.3213205  45.1181564   7.8763547  15.7848682  46.7106247
   6.3329968  15.3683386  46.3262901  10.7264738  20.8385983  43.1657486
  10.7980556  21.6916180  43.9974060  11.6975460  20.5963516  42.2543983
  11.4913568  20.0767212  41.4132271  12.9199667  21.3996887  42.1958580
  13.5162868  21.3119106  43.1040421  13.9877205  20.8672485  41.1675606
  13.4840260  20.9079838  40.2017746  15.2504053  21.6722527  41.2173462
  15.7182550  21.7445335  42.1991768  15.8878489  21.1219959  40.5252609
  15.0994539  22.6959343  40.8747292  14.2450171  19.4848976  41.4183693
  13.4455748  18.9582615  41.3466301  12.6263981  22.9214630  41.9591484
  13.0092907  23.7079048  42.8019943  11.8247089  23.2156410  40.9081345
  11.4322519  22.5073719  40.3044548  11.2774124  24.5766468  40.7064819
  12.1305542  25.2467613  40.8122978  10.7540331  24.6352444  39.2840576
  11.5412149  24.3123455  38.6027489   9.8671331  24.0037689  39.3364601
  10.2457752  26.0666618  38.9160194   9.3702517  26.2541084  39.5376511
  11.0939264  26.6930428  39.1924133   9.9214077  26.0576344  37.4214821
  10.7859612  25.8953552  36.7778091   9.1778774  25.2788162  37.2520599
   9.3175983  27.4239731  37.0151787  10.1000948  28.1783199  37.0974388
   9.0657444  27.4516296  35.9550362   8.1764050  27.8977356  37.8460541
   7.5840116  28.6497688  37.5241585   7.5051608  27.1448154  37.8974800
   8.3980875  28.1155643  38.8070450  10.3739433  25.1074638  41.8470306
  10.6186800  26.3076401  42.1447525   9.4627295  24.3638401  42.4262772
   9.2119608  23.4928837  41.9805756   8.6914053  24.8654938  43.6042633
   8.2416620  25.8381596  43.4048843   7.6401772  23.8398361  44.0178185
   8.1702890  22.8874836  44.0280571   7.2728143  23.9411354  45.0390358
   6.4155545  23.7981548  43.0965500   5.7579246  24.6301155  43.3484688
   6.7641726  23.8070984  42.0638428   5.6194715  22.6031704  43.3413849
   6.1071382  21.5546799  43.7956085   4.3254619  22.6223774  42.9904709
   3.9062011  23.5086937  42.7480469   3.7764995  21.7968693  43.1835365
   9.6049366  25.0613594  44.7933006   9.2877007  25.9124947  45.6417274
  10.7036362  24.2723694  44.9442368  10.9736357  23.6914692  44.1633682
  11.7297144  24.5730076  45.9738846  11.2111168  24.7238445  46.9206734
  12.6345263  23.2827492  46.1452065  11.9832554  22.4935856  46.5209312
  12.9973850  23.1570301  45.1250954  13.8165064  23.4373817  47.1667099
  14.2909346  24.3120136  46.7216797  13.3688831  23.6424427  48.6045418
  12.7632151  24.5299721  48.7877350  12.8450890  22.7331448  48.8993568
  14.1928682  23.5984249  49.3167305  14.8739319  22.3168373  47.1704330
  15.2154121  22.1813278  46.1442146  15.7703800  22.6143589  47.7144585
  14.4911575  21.3517818  47.5024796  12.4578714  25.8815994  45.7293663
  12.7456379  26.5914879  46.6579170  12.7924185  26.1967201  44.4878883
  12.5597448  25.5374107  43.7590027  13.4624386  27.4678268  44.1408730
  14.2734299  27.6174927  44.8536186  14.1073303  27.4817886  42.7490959
  14.6877317  26.5737896  42.5854721  13.3230190  27.4653301  41.9923363
  15.0254898  28.6434727  42.3940697  14.3813171  29.5210800  42.3397446
  16.1729069  28.8421097  43.3822250  16.7696514  29.6808090  43.0236435
  15.8325586  29.2158985  44.3479080  16.7729340  27.9338627  43.4384079
  15.6564827  28.3293648  40.9999390  15.0088739  28.2037525  40.1322289
  16.0745907  29.3021622  40.7411880  16.4448586  27.5860081  41.1182251
  12.4493999  28.5823860  44.3536987  12.8616495  29.6779366  44.7834206
  11.2083540  28.4458065  43.8747101  11.0441484  27.5080357  43.5374870
  10.1092501  29.4127178  44.1360512  10.1750546  30.4383602  43.7729721
   8.7997494  28.9873619  43.6174240   8.6451807  27.9084129  43.6084671
   7.9683785  29.5115891  44.0887070   8.6661329  29.3403912  42.1710663
   8.9478140  30.3899536  42.0863495   9.4731617  28.8235950  41.6517143
   7.4035487  28.9033051  41.5172729   6.3521857  28.7178097  42.2207527
   7.3810906  28.7090511  40.3084068   9.8682623  29.7234612  45.6208191
   9.8743000  30.8550720  46.0270348   9.8679295  28.7869034  46.5992279
   9.7977600  27.8173294  46.3251762   9.6632547  29.1202297  47.9878883
   8.7761669  29.7198925  48.1918068   9.5664873  27.7817574  48.7439003
   8.6323318  27.2947617  48.4640923  10.4943085  27.2560005  48.5184479
   9.3016205  28.0001793  50.3163757   9.4093485  27.0463676  50.8328438
  10.0033426  28.7142448  50.7474174   7.9404097  28.6068478  50.7218018
   7.9439020  29.6619892  50.4483719   7.1754255  28.0355110  50.1959953
   7.7661371  28.4725323  52.2026367   8.0386248  27.4496574  52.4625969
   8.4951696  29.0833912  52.7350502   6.4396453  28.8864002  52.5967331
   6.3482418  29.8887558  52.5128975   5.7459993  28.5806179  51.9293098
   6.2233028  28.4674129  53.4899025  10.7980270  29.9678345  48.5616150
  10.5677137  30.8376579  49.4511719  12.0229502  29.6865120  48.1303749
  12.1043053  29.0101013  47.3847542  13.3488550  30.3393860  48.6245155
  13.3336439  30.3770866  49.7137566  14.5871029  29.4572163  48.1559715
  14.5800810  29.3542423  47.0708656  15.9000216  30.1044807  48.5441551
  15.8393650  30.5148010  49.5521545  16.6686630  29.3533134  48.3623848
  16.2011929  30.8834591  47.8437386  14.5200720  27.9910030  48.6145134
  14.6840401  27.9445610  49.6911087  13.4908915  27.6601543  48.4751205
  15.5471487  27.0391464  47.9083176  15.6166344  26.0750046  48.4120026
  15.2633686  26.7369804  46.9002151  16.5573063  27.4395695  47.8226357
  13.3929777  31.8034744  48.2648239  13.8863306  32.6555557  49.1130905
  12.8757515  32.1394997  47.0703583  12.4164162  31.4435539  46.5004730
  12.6582079  33.5126686  46.5771484  13.5377674  34.1495399  46.6713448
  12.2328682  33.5249100  45.0319901  11.3800220  32.8507309  44.9529648
  11.8328791  34.9574890  44.4286919  12.7523651  35.5271263  44.5634346
  11.6448755  34.8746529  43.3582268  10.9281654  35.3892937  44.8566399
  13.3734026  32.8703918  44.1663132  14.0878563  33.6391945  43.8720360
  13.8950062  32.0822678  44.7093544  12.8453121  32.2259598  42.9418945
  13.7362947  31.7674465  42.5129204  12.0578785  31.5006008  43.1465988
  12.3875866  32.9248695  42.2418213  11.5114470  34.2663689  47.3116951
  11.6073675  35.4387169  47.6491203  10.3974142  33.5377655  47.5823479
  10.3295727  32.5905952  47.2383003   9.2191095  34.0930023  48.3463783
   8.8867970  34.9634705  47.7807350   8.0527754  33.2138405  48.2737083
   7.8736606  33.0056458  47.2188759   8.1756353  32.2433968  48.7545891
   6.7885094  33.8652000  48.9034843   7.0726695  34.0742874  49.9348106
   6.5908256  34.8213577  48.4189339   5.5255437  33.0189209  48.8252754
   4.8323450  32.7522316  49.7969017   5.1573486  32.6944923  47.6627159
   9.6535339  34.4632416  49.7751694   9.2013788  35.4478264  50.4146957
  10.5521641  33.7733459  50.3675728  10.7711725  32.8779564  49.9547615
  11.0631466  33.9218521  51.7476234  10.2083263  34.2467384  52.3407784
  11.5242081  32.5044823  52.2231560  10.7797375  31.7501507  51.9685020
  12.4811745  32.2498665  51.7676468  11.8822107  32.4635315  53.7321091
  12.0535498  31.4478989  54.0888138  12.8291941  32.9898643  53.8516769
  10.8639507  33.1167336  54.6698532  10.9164629  34.3500519  54.8215294
  10.0994053  32.3855019  55.3485451  12.1895084  35.0238266  51.9499817
  12.0332451  36.0778122  52.6192589  13.3165131  34.8379135  51.2349968
  13.2704134  34.1368980  50.5093575  14.4650698  35.7124176  51.2540894
  14.5033274  36.0244141  52.2977829  15.7074995  34.7890129  50.9883041
  15.5956964  34.4249268  49.9670105  16.6358891  35.3600426  50.9991417
  15.8490248  33.6519928  51.9897766  16.4999447  33.7913132  53.0325699
  15.4498358  32.5116882  51.6055603  15.6674671  31.7625713  52.2470932
  14.9068260  32.4298019  50.7578964  14.4763365  36.9023743  50.2296486
  15.4053230  37.6987343  50.1390076  13.4766397  36.9973984  49.3453674
  12.9129639  36.1594009  49.3337746  13.2626085  38.0775757  48.2911568
  12.3907633  37.8631783  47.6730804  12.9814224  39.3855438  48.9473228
  13.8566189  39.7871933  49.4580154  12.7095432  40.1143837  48.1837921
  11.8450317  39.3046417  49.9193535  10.7880669  38.3801460  49.8704948
  10.4344988  37.7988358  49.1240578  10.1014385  38.5093231  51.0405655
   9.2529755  37.9362755  51.3842583  10.7943602  39.4287872  51.7704315
  10.6173058  39.8344727  52.6782684  11.8181400  39.9782867  51.0773544
  12.5076761  40.7880096  51.2652016  14.3333931  38.1579399  47.1886635
  14.5065994  39.2265816  46.6604424  14.9823351  37.0559044  46.8663483
  14.7729921  36.1823006  47.3279686  16.2463284  37.1216545  46.1895409
  16.8200703  37.9944878  46.5011215  16.9901466  35.8411674  46.4541626
  16.4878235  35.0136795  45.9531288  18.4300175  35.7567253  45.9914093
  18.5110207  35.9060745  44.9147339  19.1857090  36.2741623  46.5824165
  18.6428757  34.6885605  46.0340614  16.9530945  35.5080757  47.8621445
  17.3858814  36.2165527  48.3441811  16.0048218  37.4045982  44.6594543
  15.0865803  36.9066048  44.0401802  16.8574123  38.1422615  43.8952637
  17.5950356  38.6044197  44.4075394  16.9304562  38.2433434  42.3955421
  16.0976887  37.7098198  41.9373398  16.8327522  39.6776733  41.8541145
  16.6822395  39.6475830  40.7749748  15.9442902  40.2466583  42.1279640
  18.0764465  40.5852432  42.1909561  18.2751045  40.4305153  43.2514725
  18.9106483  40.2861786  41.5563126  17.7930298  42.0972252  41.9006538
  17.3504658  42.2985802  40.9251060  17.0324974  42.3911858  42.6240387
  18.9974861  43.0037193  41.9872093  19.8721008  42.6030540  41.4747391
  18.8562984  43.9854088  41.5350456  19.4461765  43.3571358  43.3935585
  20.1891708  44.0409851  43.4137802  18.6478996  43.7953606  43.8303909
  19.6489468  42.6303825  44.0649872  18.1933308  37.5689697  41.9259529
  19.2137070  37.6551018  42.6125603  18.2400494  36.8801155  40.7541046
  17.0917587  36.9240532  39.7499313  16.8938980  37.9588890  39.4705200
  16.2503242  36.3644943  40.1585655  17.7423344  36.3292809  38.5081291
  18.1056900  37.1916542  37.9492149  17.0264339  35.8182411  37.8643684
  18.8798027  35.4282608  38.9313278  19.6728172  35.3141212  38.1922760
  18.5263958  34.4227600  39.1597366  19.3347206  36.0451012  40.2478638
  19.4137421  35.2670631  41.0071526  20.6998196  36.7697334  40.1190071
  21.7722034  36.2279053  40.4206352  20.6878357  38.0610046  39.9160843
  19.7276440  38.3666306  39.8473434  21.8488350  38.9365387  39.6278954
  22.4080467  38.5320587  38.7842293  21.3893814  40.4023819  39.3952789
  20.7321205  40.8553848  40.1375008  22.2165203  41.1122475  39.4010391
  20.7755070  40.5131187  38.0174103  21.1472530  39.7849121  37.2965660
  19.6978645  40.4083481  38.1431618  21.1174145  41.8904457  37.4864159
  22.0740452  42.0561943  36.7517776  20.3935413  42.8340034  37.7255058
  22.8047028  38.9575195  40.8411026  24.0368996  39.1374359  40.8055229
  22.2339172  38.8119545  42.1003189  21.2406216  38.6590805  42.2007866
  22.9945889  38.7660103  43.3435287  23.8298168  39.4647751  43.3906555
  22.1062298  39.2556763  44.4633598  21.1537914  38.7262459  44.4891586
  22.5538273  39.0266991  45.4304848  21.8937626  40.7600708  44.3737488
  22.8942680  41.4803314  44.5020256  20.7002258  41.2033844  44.4269142
  23.5991154  37.4042168  43.6816788  24.3344555  37.2838173  44.6583176
  23.2092800  36.3813858  42.9041061  22.6594486  36.4813385  42.0627975
  23.5884743  35.0346260  43.2160645  23.7209988  34.8765297  44.2863655
  22.5545864  33.9998779  42.8157272  22.3952370  34.1234398  41.7445412
  22.9664593  32.5069084  43.1145477  23.9778004  32.3573799  42.7364883
  22.9631653  32.4109879  44.2003136  22.2714558  31.7294407  42.7973557
  21.1520424  34.3714256  43.4859009  20.3502426  33.7152748  43.1472626
  21.2287579  34.4245834  44.5718994  20.9363518  35.3818207  43.1385002
  25.0128613  34.7983780  42.5660896  25.2122898  34.8686714  41.3862839
  25.9646626  34.3785553  43.4317703  25.7626495  34.3875694  44.4213219
  27.4139767  34.2776718  43.1617012  27.7723866  35.1352539  42.5923157
  28.2319393  34.2985840  44.4364204  27.8960495  33.4078217  44.9672928
  29.7921848  34.3003960  44.2566032  30.0926113  33.6829109  43.4101067
  30.0898914  35.3333893  44.0766106  30.1984940  33.9209976  45.1941872
  28.0145054  35.6229897  45.2406883  26.9961243  35.6265945  45.6292725
  28.7704201  35.7388191  46.0173988  28.1012650  36.4805565  44.5734978
  27.6347542  33.0227394  42.3501358  28.4447575  33.0575180  41.3892403
  26.8831081  31.9708385  42.8056564  26.3175335  32.1479378  43.6234932
  26.9449711  30.5733166  42.2967720  26.8470955  30.6254845  41.2124252
  28.3194008  29.8947697  42.5749168  28.2178020  28.8389187  42.3240051
  29.0348244  30.4009552  41.9268112  28.7463722  29.9183273  44.0041733
  29.6379948  30.5369568  44.1061859  27.9337406  30.2879791  44.6295433
  29.0559559  28.4450130  44.5616264  29.8871117  27.7145081  44.0481491
  28.3440647  28.0520554  45.6036491  28.5310345  27.0951939  45.8673897
  27.9314022  28.6415710  46.3123665  25.7757626  29.8017387  42.9093628
  25.2957821  30.1882057  43.9616661  25.4322262  28.6250477  42.3775253
  25.5155125  28.4487572  41.3865242  24.4780750  27.7154064  43.0321617
  24.4840393  27.9341373  44.0999756  23.0651703  27.9285965  42.5197067
  22.9323864  29.0098038  42.4815102  23.0958443  27.6623077  41.4631805
  21.9764481  27.0954628  43.3439941  22.3540154  26.0734520  43.3761597
  21.8531570  27.4070244  44.3812180  20.3622131  26.8253841  42.4528999
  19.5757389  28.4588566  42.4603996  19.5664978  28.7045784  43.5223045
  20.0884686  29.2004852  41.8478661  18.5788651  28.3042698  42.0475502
  25.0619106  26.2978516  42.8132629  25.6798725  25.9262867  41.7811203
  24.8493309  25.4666462  43.8624763  24.3357811  25.8066444  44.6629562
  25.0325108  24.0585251  43.9055672  25.4064445  23.6289616  42.9761848
  26.0405312  23.7604389  44.9667130  25.7049236  23.9025707  45.9939766
  26.3029041  22.7033672  44.9234924  27.4453621  24.4053974  44.7964821
  27.4361496  25.4921570  44.7129745  28.3481197  24.0409374  45.9600449
  29.3692722  24.3715496  45.7701912  28.0056305  24.5698757  46.8494415
  28.3486633  22.9731007  46.1787300  28.2029476  23.9650002  43.4590950
  29.1527843  24.4995861  43.4705505  28.4724331  22.9089756  43.4760704
  27.6327534  24.1428719  42.5473175  23.7121677  23.2609577  44.1411400
  22.8197994  23.7185650  44.8682747  23.7221336  21.9532108  43.7008934
  24.4799328  21.6687813  43.0967941  22.5323601  21.0594044  43.8280106
  21.8779716  21.4744205  44.5945854  21.7776585  21.0050964  42.4383240
  22.5556679  20.9585609  41.6763268  20.9708519  20.2821960  42.3175507
  21.1574898  22.3607788  42.1256256  21.9160690  23.1391697  42.2079048
  20.7579556  22.4189930  40.6158905  20.3498650  23.4087486  40.4110909
  21.6849079  22.3162899  40.0516968  19.9531612  21.7175770  40.3958321
  19.8765469  22.6658840  42.9046021  19.6512833  23.7102070  42.6883926
  19.0915146  22.0356522  42.4867134  19.9887505  22.3866863  43.9522438
  22.9184227  19.6457653  44.2312927  23.9621525  19.1723099  43.8050041
  22.1073780  18.8581200  44.9090614  21.1899261  19.2541409  45.0558548
  22.3408756  17.4590168  45.2614136  23.2283516  17.0772820  44.7566757
  22.6549816  17.2303677  46.8305359  23.5401325  17.8139038  47.0837059
  21.8507900  17.7226753  47.3773499  22.6880264  15.9005880  47.1746635
  21.8013878  15.5348387  47.2158890  21.1367893  16.6255608  44.8167534
  19.9606190  17.0347443  44.7875710  21.4365158  15.3874636  44.4540367
  22.4221973  15.1724529  44.4060478  20.5402164  14.2601299  44.3992767
  19.6164532  14.5637083  44.8918190  20.1582890  14.0378685  42.9504890
  21.0819931  13.6330547  42.5369720  19.3842411  13.2748041  42.8687248
  19.9355736  14.9766493  42.4433517  21.0498257  13.0280561  45.2108841
  22.2005596  12.6007004  45.0514717  20.1378765  12.3351460  45.9094505
  19.1980495  12.6976719  45.9829445  20.2873230  10.9871178  46.5345383
  21.1226254  10.9051085  47.2299843  19.1157818  10.5764732  47.4368019
  19.0960808   9.5037756  47.6292343  19.2626324  11.3959408  48.8017578
  18.5540257  11.0479193  49.5533295  20.2369156  11.2634535  49.2722054
  19.1196327  12.4636421  48.6354294  17.8743610  10.9413929  46.8528976
  17.7347794  10.2769861  46.1741638  20.6054497   9.9331102  45.4570465
  20.1668472  10.0321579  44.2892876  21.3194599   8.7803211  45.7108192
  21.7105541   8.2848577  47.0302353  20.9335461   7.6512623  47.4579239
  21.8855629   9.1462307  47.6748352  23.0190601   7.5641150  46.8192291
  23.1353989   6.7381177  47.5208740  23.8649788   8.2464342  46.7357903
  22.7707138   7.0445433  45.4047203  22.4378605   6.0082626  45.4632912
  23.7540073   6.9324632  44.9479027  21.8411274   7.9714351  44.6066628
  22.5066738   8.5278187  43.9466743  20.8211079   7.1718798  43.8478355
  21.2017746   6.3248968  43.0230637  19.5101318   7.2311320  44.2044144
  19.2474518   7.9656835  44.8459244  18.3876629   6.4969707  43.6939240
  18.8084240   5.5898328  43.2601433  17.3592339   6.2736416  44.9073524
  16.4526081   5.9061375  44.4266510  17.6477489   5.5306916  45.6509132
  16.9304237   7.5322924  45.7538490  17.3304672   8.6277418  45.2910385
  16.3867912   7.3929629  46.8416710  17.5707092   7.1951113  42.5521011
  16.9114971   6.4848948  41.7103729  17.7223091   8.5042801  42.4989586
  18.1628284   9.0022268  43.2592850  17.1846218   9.2963066  41.4612770
  16.1517277   9.0275612  41.2398949  17.0859261  10.7168055  41.9675865
  18.1197014  11.0373182  42.0967484  16.6967945  11.3090334  41.1393623
  16.1229019  10.9863558  43.1895828  16.4713497  10.2516222  43.9154282
  16.1562862  12.3604393  43.7513351  15.2099361  12.5733261  44.2485237
  16.9027061  12.5343580  44.5263863  16.2838287  13.0530672  42.9194069
  14.6298885  10.6605139  42.8967705  14.2550011  11.3551264  42.1450577
  14.5860710   9.5918589  42.6866341  14.0852261  10.7256689  43.8386803
  18.0108280   9.2232141  40.1592903  19.2602825   9.3443642  40.2100487
  17.4448471   9.1698093  38.9670219  16.4418774   9.0519457  38.9831009
  18.1872578   8.9034834  37.6997643  19.1789436   9.3452768  37.7971153
  18.3304577   7.3991709  37.4740143  17.4042358   6.8248930  37.4944954
  18.6764832   7.0160336  36.5140305  19.1525059   6.7053676  38.5101547
  20.4953384   6.9591775  38.8144569  21.0473938   7.7611952  38.5459404
  20.9125099   6.0844541  39.7730141  21.8358459   6.2555184  40.3064842
  19.9033604   5.2412276  40.0825539  19.9824314   4.6683941  40.9106293
  18.7786942   5.6077809  39.3325539  17.7756786   5.2140350  39.4055862
  17.4383984   9.4536695  36.4785004  18.0163136   9.4556551  35.4099998
  16.1884327   9.8851004  36.6370773  15.7317152   9.7136879  37.5214539
  15.3207197  10.2786674  35.4816399  15.4327068   9.4980793  34.7291527
  13.8828516  10.3956537  35.9706078  13.3584604   9.4432259  36.0480576
  13.8309402  10.8967228  36.9372177  13.3606396  10.9621801  35.1996002
  15.7110577  11.6291227  34.7404785  15.6097994  11.7175407  33.4836655
  16.1759663  12.6276464  35.5069313  16.3669701  12.4713755  36.4863167
  16.6424351  13.9626637  34.9447517  17.1150360  13.7735653  33.9809113
  15.4996548  14.9778862  34.6024666  14.8450384  14.4728098  33.8922005
  14.5738001  15.2023230  35.8399887  14.1969490  14.2442932  36.1981239
  15.2604904  15.5979824  36.5883293  13.8015966  15.9490976  35.6552505
  15.8521566  16.2919788  33.9485512  16.5153885  16.1918564  33.0893707
  14.9111605  16.7564545  33.6537819  16.3625813  16.9157600  34.6823540
  17.7155609  14.6978731  35.9084282  17.8072166  14.3820419  37.0955544
  18.6151295  15.5247431  35.3417664  18.5282631  15.7719507  34.3663483
  19.5009727  16.3737183  36.1371536  20.0345230  15.7077484  36.8153191
  20.5738754  17.1829662  35.3606911  20.1499748  17.4719276  34.3989716
  20.7922459  18.0627365  35.9660187  21.8104744  16.3656979  35.1397705
  22.5749111  16.0381527  36.2945328  22.3262367  16.3222885  37.3063736
  23.6387520  15.1155062  36.1686058  24.2133579  14.8768730  37.0513802
  23.8202324  14.4142151  34.9594002  24.6423454  13.7157602  34.9074783
  23.0138397  14.6699820  33.8913536  23.1945362  14.1198101  32.9797287
  22.0170116  15.6565962  33.9672661  21.3152313  15.8176193  33.1622963
  18.6699924  17.4903393  36.7912369  18.0198708  18.2485409  36.0472488
  18.8807888  17.7975750  38.0893173  19.5568981  16.8783531  39.0570564
  20.6104755  17.1301022  39.1782875  19.2798405  15.8345394  38.9094315
  18.9809704  17.3793507  40.4584389  19.7093391  17.2150326  41.2525291
  18.1092854  16.7784710  40.7176933  18.6322308  18.8184586  40.2599297
  19.5510273  19.3900661  40.3909950  17.8115826  19.2066708  40.8631935
  18.1144657  18.9105778  38.7782364  17.0789433  18.5796242  38.8573952
  18.3306885  20.3149681  38.2300224  17.4635811  21.1909389  38.1882553
  19.4478302  20.5165176  37.6026344  20.0381641  19.7257919  37.3873291
  19.8708096  21.8222504  37.0104790  19.8455982  22.6331253  37.7384605
  21.2689953  21.5898495  36.3463707  21.2129784  20.6616478  35.7776833
  21.4972496  22.4696617  35.7447624  22.0398369  21.6023273  37.1169167
  18.8568954  22.3822365  35.9469566  18.8397312  23.6318035  35.7215996
  18.0464935  21.5434322  35.2571754  17.9986401  20.5838013  35.5684929
  17.1873817  21.9905357  34.2032471  17.7094593  22.5907707  33.4580917
  16.6011734  20.8254681  33.4390068  15.9947891  20.2323189  34.1235275
  15.9160414  21.2489834  32.7046127  17.5832558  19.8689957  32.7735939
  18.4485855  20.4584026  32.4704285  17.9478569  19.1258335  33.4827309
  17.0663414  19.3381481  31.4757500  16.2078953  18.7333183  31.7678986
  16.6907711  20.0620289  30.7525330  18.2336426  18.4671745  30.9183025
  18.8187065  19.1794491  30.3365173  18.7336082  17.9134617  31.7129955
  17.6772327  17.4498119  29.9454575  17.3163853  17.9075127  29.1205959
  18.3754005  16.8218250  29.5735703  17.0208035  16.7829113  30.3255157
  16.0314198  22.7950974  34.7721519  15.3796587  23.5813599  34.0327034
  15.5466595  22.4549217  35.9884911  16.0272255  21.7424469  36.5190926
  14.5024881  23.2781544  36.6675491  13.6682262  23.3727226  35.9724464
  14.0979881  22.5041237  37.9602242  13.0280533  22.6449795  38.1134987
  14.2906122  21.4317284  37.9291878  14.6437931  22.8786526  38.8262062
  14.9264030  24.7788258  37.0499611  14.1010542  25.6867332  36.9435120
  16.1951294  25.1261082  37.1687927  16.8515511  24.3585701  37.1588211
  16.7031975  26.5070362  37.4523544  16.0260754  26.8582172  38.2309952
  18.1333752  26.5202141  38.1092949  18.9226589  26.3067322  37.3884811
  18.6756344  27.8343105  38.6001129  18.6012459  28.5854988  37.8138046
  18.0889263  28.2661152  39.4109268  19.7401543  27.8399563  38.8343430
  18.2467861  25.4879246  39.2874603  18.2518559  24.4300499  39.0248375
  19.1580563  25.7766953  39.8111954  17.4652157  25.6793041  40.0227280
  16.4585953  27.3816643  36.2000732  15.8211050  28.4389133  36.2053452
  16.9189339  26.7626476  35.0961685  17.5117588  25.9635410  35.2696342
  16.9603138  27.3714848  33.8016396  17.5549698  28.2788105  33.9076805
  17.7892876  26.3582077  32.9245911  17.4745522  25.3951015  33.3264236
  17.6660252  26.5633316  31.8611851  19.2792149  26.4160080  33.3344231
  19.6242123  27.4139290  33.0638123  19.3976841  26.1725082  34.3902512
  20.1750736  25.3046818  32.6728706  19.6722584  24.3383617  32.7117004
  20.2246876  25.7118034  31.6629753  21.6019821  25.2732449  33.0788574
  22.0174618  26.1628284  33.3157501  22.3416634  24.1882038  33.4183350
  21.9033031  23.0444241  33.2221107  21.1184101  22.8987808  32.6033745
  22.5009174  22.2923336  33.5340652  23.4854736  24.3301487  34.0482788
  24.1124973  23.5713120  34.2743530  23.9018173  25.2327290  34.2274666
  15.5278606  27.5421562  33.2088737  15.3426151  28.1926022  32.1974182
  14.4508400  26.9711628  33.7825851  14.6584988  26.4190178  34.6024094
  13.0624199  27.2829685  33.4716454  12.9340572  27.3315792  32.3903198
  12.1721182  26.1306133  33.9473801  12.5700779  25.2243748  33.4908028
  12.2954416  26.0043907  35.0229988  10.6837635  26.2961388  33.7209702
  10.2396774  25.3540745  34.0425339  10.2932034  27.1270790  34.3084335
  10.3110113  26.4883499  32.2134933  11.1315489  26.0707417  31.3675346
   9.1529932  26.8317986  31.8614864  12.5532112  28.6523571  33.9117889
  11.5984669  29.1134148  33.2902260  12.9945087  29.1371078  35.0171890
  13.7501888  28.5553188  35.3497124  12.6749783  30.4046021  35.6287117
  11.5940266  30.5390968  35.5892944  13.0003052  30.2828903  37.1293488
  12.5707684  29.3306656  37.4405746  14.0763788  30.1201019  37.1898994
  12.5050468  31.3623085  38.0515366  12.8853416  32.2913246  37.6268005
  10.9986687  31.4338112  38.1497917  10.6211996  30.4115143  38.1726952
  10.6888037  32.0793648  38.9715843  10.6779699  31.9488411  37.2442551
  13.0904627  31.0571175  39.4607506  14.1749783  31.1626759  39.4889069
  12.6414442  31.7334404  40.1881218  12.9239960  30.0256500  39.7713356
  13.3785229  31.6238766  34.9617691  14.5786600  31.6703835  34.8423920
  12.6798725  32.6919365  34.5767441  11.6755610  32.6220818  34.6578903
  13.2403183  33.8047676  33.7983627  13.7029343  33.3643532  32.9151192
  12.0634565  34.6900406  33.2853279  11.3959723  34.0165558  32.7477608
  11.5816021  35.0644379  34.1885147  12.5311213  35.7303238  32.4600220
  11.8264799  36.3500595  32.2575073  14.2959671  34.5837555  34.5684738
  14.2415342  34.7446632  35.7866211  15.4044228  34.8834648  33.9309387
  15.3794250  34.9411850  32.9229012  16.5553780  35.4618759  34.5342102
  17.1207199  35.8907700  33.7068405  16.2815342  36.2388573  35.2479439
  17.4656200  34.4678574  35.2608223  18.6845760  34.7327766  35.2320976
  16.9368782  33.3879776  35.7041321  15.9457607  33.2322769  35.8205070
  17.8705502  32.4496536  36.4135475  18.5091667  33.0257149  37.0831909
  17.0027390  31.5676193  37.3675156  16.1208019  31.3572178  36.7625198
  17.4142609  30.5757675  37.5545464  16.5590858  32.3134537  38.6153450
  15.5574837  33.1879730  38.7042999  14.8332481  33.2362251  37.9045753
  15.4419289  33.7633667  39.9475403  14.6839094  34.3856239  40.1890068
  16.4081993  33.2773514  40.7860603  16.5975895  33.4475021  42.1600227
  16.0286236  34.1197319  42.7851486  17.7436008  32.8469238  42.6836014
  17.9240570  32.8889923  43.7475853  18.4683018  31.9054413  41.9409256
  19.1509533  31.2246208  42.4276237  18.1485481  31.6416817  40.5672760
  18.6992550  30.8943577  40.0153427  17.1579266  32.3550110  39.9101906
  18.8218117  31.6443939  35.5555458  19.6784897  30.9518299  36.1717949
  18.6653900  31.6857033  34.2011452  17.9439507  32.2644539  33.7953453
  19.5896702  31.0054836  33.2632561  19.6355934  29.9481068  33.5239220
  19.0324764  31.1429424  31.8231678  19.7642174  30.7728271  31.1050644
  18.1388302  30.5388126  31.6665726  18.6508579  32.6136475  31.4702339
  17.7267189  32.8462219  31.9993629  19.4287128  33.3241119  31.7500305
  18.2992039  32.8362503  30.0008659  18.4260731  32.0140877  29.0744114
  17.9396133  34.0639076  29.7042465  18.0099792  34.8200493  30.3701286
  17.7270508  34.3208122  28.7508755  20.9853649  31.4878139  33.3197479
  21.8699436  30.7382431  33.0721779  21.2219963  32.7761917  33.6681023
  20.4174500  33.3300018  33.9252090  22.5990486  33.3155556  33.8282051
  23.1829815  32.8401680  33.0400887  22.4144650  34.8666954  33.6174774
  21.8328724  35.2802353  34.4413948  23.4202442  35.2856140  33.5856361
  21.6568222  35.3133392  32.3169136  22.2733803  35.0380287  31.1652451
  23.2108002  34.5103569  31.2611771  21.8215599  35.5525818  29.9388008
  22.3564987  35.4478645  29.0064526  20.5781155  36.2154198  29.9421711
  20.1618366  36.6688309  28.6889153  19.2156868  36.8296967  28.6660194
  19.8158054  36.4057007  31.0829124  18.8809814  36.9436798  31.0273457
  20.4166126  36.1058998  32.3644943  20.0080280  36.4617577  33.2987442
  23.2470226  32.8934288  35.1273651  24.3616467  33.1755295  35.3811226
  22.5332127  32.2191429  36.0533791  21.6107788  31.8966694  35.7979813
  23.0979023  31.8540039  37.3780098  23.7131710  32.6054878  37.8727989
  22.0048504  31.4632416  38.3570747  21.3566666  30.6859570  37.9523697
  22.6716309  31.0305271  39.6564980  23.3684216  31.8016376  39.9850883
  21.9490776  30.8198376  40.4449310  23.1809292  30.1069393  39.3813477
  21.1546230  32.6070061  38.8316383  20.6444988  33.0908470  37.9987068
  20.3806934  32.1381721  39.4393654  21.6622772  33.3703423  39.4213028
  23.9505863  30.6178493  37.0061989  23.4065285  29.6515388  36.3785324
  25.2417755  30.6323891  37.2938385  26.1378937  31.7226810  37.7570076
  25.8835278  32.0430679  38.7673302  26.0598698  32.6511688  37.1913872
  27.5998001  31.1360111  37.6608543  28.3560238  31.5727997  38.3131142
  27.9788990  31.4184895  36.6787186  27.4468441  29.6409817  37.7596321
  27.7028294  29.3156319  38.7679558  28.1963825  29.0721798  37.2094002
  25.9550476  29.3567028  37.3668633  25.9940090  28.9621468  36.3515244
  25.3981342  28.3067741  38.2808228  25.2548256  28.5746174  39.4603233
  25.0948772  27.1078491  37.7725143  25.1660652  26.9429607  36.7786140
  24.6525478  25.9638901  38.5706100  24.8336983  26.1094608  39.6355476
  23.0972786  25.8865147  38.5127716  22.6601639  26.8298702  38.8400536
  22.7409420  25.4900703  37.1136513  23.0731659  24.4666348  36.9395905
  21.6648560  25.6219387  37.0007286  23.2674541  26.1358833  36.4109344
  22.4342461  24.8197994  39.4073563  22.8296413  23.8896732  38.9991608
  22.7092552  24.9105415  40.4581833  21.3527088  24.9062729  39.3028984
  25.3322811  24.6619453  38.1568909  25.8554993  24.5442810  37.0584679
  25.4186287  23.7389851  39.1001396  25.1435623  23.9859142  40.0400696
  25.9168320  22.3838940  38.9661598  25.5971146  22.0741539  37.9711990
  27.4446926  22.2845211  38.8312798  27.6724606  22.9084854  37.9670486
  28.1529408  22.8833160  40.0489464  27.9454231  22.3257179  40.9622459
  29.1899929  22.9534054  39.7207489  27.7776031  23.8983784  40.1788330
  27.9560814  20.9961166  38.6339073  28.0572147  20.6487331  39.5231209
  25.3573227  21.4287720  40.0599327  25.3505611  21.8292751  41.2036629
  24.8446617  20.2900276  39.5342751  24.9051323  20.1120872  38.5419121
  24.4764252  19.1421776  40.3847885  24.1533318  19.6002998  41.3195801
  23.3737774  18.3548374  39.6252327  23.7630577  17.6060410  38.9354019
  22.8357983  17.6913338  40.3023148  22.1707039  19.4284325  38.7059898
  22.9332867  19.7891998  37.6700325  25.7139473  18.3589611  40.7274780
  26.7509613  18.3159847  40.0697212  25.5157375  17.5855408  41.8025131
  24.7410488  17.8080597  42.4111557  26.3751469  16.4723816  42.2219353
  26.7625713  15.9879570  41.3256416  27.6078339  17.0125923  42.9900856
  28.3221188  16.2342033  43.2584305  28.1938133  17.7320175  42.4181099
  27.2234459  17.6535206  44.3403625  26.1353340  17.6978683  44.3866882
  27.4715023  17.0142002  45.1876144  27.8936653  19.3011513  44.6790123
  27.0003147  20.2203636  43.4819221  25.9325867  20.2423286  43.7000313
  27.3929138  21.2362690  43.4382820  27.1266117  19.7682476  42.4981842
  25.5976849  15.3881731  43.0714607  24.4799194  15.7102251  43.4662704
  26.0948219  14.1249790  43.2108345  26.9637661  14.0084496  42.7093773
  25.5053997  12.9855032  43.9400444  24.4308510  12.8603392  43.8066940
  26.0904808  11.8049908  43.2707634  25.8183479  11.8335028  42.2156639
  27.1718903  11.8399010  43.4027939  25.6110954  10.4251604  43.7994919
  26.0471916  10.3857727  44.7976761  24.5321503  10.5097733  43.9292068
  25.9460430   9.1960344  42.9737701  25.4662170   9.0528030  41.8767433
  26.7195225   8.2974510  43.4169655  26.8817062   7.4605565  42.8752975
  27.0081024   8.3549070  44.3831558  25.8230305  13.0754547  45.4309921
  27.0007782  13.2187691  45.8715401  24.7593193  12.8371897  46.2174644
  23.8390617  12.8032866  45.8026428  24.7939358  12.5848875  47.6472359
  25.0939083  13.4683256  48.2108459  23.3738117  12.1101522  48.0503197
  22.6786575  12.7999668  47.5717583  23.3636189  11.0790987  47.6968689
  23.0940876  12.1566725  49.5996132  22.4530125  11.3156977  49.8639717
  23.9589081  12.1453037  50.2629776  22.4121513  13.4148684  50.0522041
  21.3067074  13.6173649  49.5626945  23.0289421  14.2343664  50.8204422
  25.7758598  11.3923063  47.9844856  25.8812218  10.4124699  47.2527504
  26.4872475  11.5178518  49.1407394  26.2427711  12.2613106  49.7791748
  27.2877655  10.4087944  49.6755028  28.0946121  10.0313787  49.0472832
  28.0460091  10.8809566  50.9481506  28.8765202  11.5202513  50.6487274
  27.4250755  11.5222082  51.5737190  28.7020226   9.7940817  51.7836876
  27.9779510   9.0019197  51.9741936  29.4877281   9.3273983  51.1895714
  29.3417168  10.3998184  53.4146347  30.0446949   8.9044590  54.1534805
  31.1313133   8.9897165  54.1441383  29.6259880   8.6452971  55.1259079
  29.8148766   8.1337118  53.4177971  26.2894764   9.2742519  49.9985771
  25.1049728   9.5964680  50.3344460  26.6884041   8.0212011  49.7511139
  27.6401939   7.8742962  49.4467850  25.9016457   6.8541212  50.0901871
  24.8800755   7.0417004  49.7595711  26.4480629   5.6550865  49.2520638
  26.3869305   6.0334673  48.2316742  27.4608822   5.3952117  49.5598984
  25.6670895   4.3592072  49.2864189  24.5920963   4.2975578  49.8805351
  26.0884361   3.2694213  48.8200302  25.9437389   6.5907164  51.5609589
  26.6752777   5.7567930  51.9685020  25.0050354   7.2036400  52.2839546
  24.3784008   7.8383293  51.8100357  24.6987438   6.9610200  53.7446747
  25.4243679   6.2287893  54.0988159  24.8503361   8.2264109  54.6417961
  24.3731785   9.0222378  54.0698891  24.2734509   8.1512022  56.0587311
  23.1999531   8.3377037  56.0889053  24.4439144   7.2375546  56.6281967
  24.5870686   8.9786654  56.6951637  26.3059025   8.6097507  54.7372971
  26.9354324   8.0133781  55.3976974  26.7855453   8.7843637  53.7742004
  26.3001232   9.6172523  55.1532326  23.3318081   6.3196821  53.9232826
  22.3318615   6.6797514  53.3687553  23.3182907   5.3520646  54.8173294
  24.2199421   5.0776200  55.1803780  22.1695232   4.5695152  55.2569389
  21.7397060   4.2741361  54.2998047  22.5873013   3.2375469  56.0266075
  21.6982670   2.7495074  56.4260292  23.3365421   2.1694050  55.2822037
  23.3496780   1.2878102  55.9230690  22.7063580   1.9520600  54.4198036
  24.3827343   2.3954217  55.0760536  23.4398079   3.4258094  57.1924019
  24.2183361   3.8780034  56.8592148  21.2918034   5.3756495  56.2007294
  21.7230167   6.3960094  56.7260704  20.0107155   4.8389549  56.3754120
  19.8158112   4.0112553  55.8304100  19.1405468   5.1760664  57.5856934
  18.3798065   4.4111276  57.7414093  19.8133564   5.1050391  58.4403191
  18.4288788   6.5383668  57.3191605  17.5159397   6.9554443  58.0166092
  18.9419479   7.3413496  56.4008446  19.7859879   7.0490398  55.9294014
  18.4647465   8.7061129  55.9935760  18.2154884   9.3706331  56.8208504
  19.2435303   9.1223392  55.3545532  17.3121262   8.6919279  54.9642296
  16.6063251   7.6825829  54.7108459  17.0398045   9.8448982  54.4217606
  17.6147308  10.5706768  54.8252602  16.0413589  10.1505775  53.3908997
  15.1695919   9.5538683  53.6593552  15.6562395  11.6594076  53.3701591
  16.5983753  12.1959219  53.2577553  14.9353371  11.8458929  52.5741539
  14.9525766  12.2263260  54.6768913  15.4801960  11.7810707  55.5203743
  14.9781199  13.6964426  54.6934738  14.6004772  14.0941219  53.7514877
  14.5018997  14.1138792  55.5806389  15.9705725  14.1232405  54.8383217
  13.4656706  11.8115053  54.5641136  13.1125412  12.3326807  53.6742973
  13.2678642  10.7529049  54.3957710  12.9309044  12.1632967  55.4463692
  16.4422169   9.6836433  52.0281181  17.4581718  10.0559387  51.4914284
  15.5486879   8.7834778  51.5133781  14.7175493   8.6559000  52.0728683
  15.4683399   8.3754263  50.0441971  16.4987354   8.2722521  49.7039909
  14.8229446   7.0237889  49.9569702  13.8041878   7.0784245  50.3406982
  14.7859440   6.7539048  48.9015579  15.5690498   5.9658852  50.8166389
  16.6136131   5.8979015  50.5127182  15.5339251   6.0945296  51.8984528
  14.9962683   4.5712733  50.6709442  13.9958992   4.5017347  51.0981750
  14.8181534   4.2476254  49.6454544  15.8689671   3.5832806  51.4789200
  16.0597897   3.9518306  52.4868202  15.3680573   2.6601145  51.7703896
  17.0826283   3.2158275  50.7500114  17.7649670   3.9467366  50.8924408
  17.5013771   2.3674080  51.1034775  16.8773136   3.1586547  49.7627563
  14.7099037   9.3853397  49.1510391  13.7132006   9.9324160  49.6365929
  15.1832104   9.6376038  47.9335785  15.8747873   8.9598570  47.6463814
  14.5342331  10.4779148  46.9692612  15.1164646  10.4021635  46.0509109
  13.1585207   9.8815441  46.5691605  12.4747238   9.9252214  47.4168739
  12.6107159  10.4879808  45.8478813  13.2468052   8.4034462  46.0273590
  13.9217281   8.3815079  45.1717339  13.5976944   7.6906509  46.7736168
  11.8340464   7.9596114  45.5418053  11.5372210   8.3237610  44.5582466
  11.8439074   6.8836408  45.3677559  10.6551752   8.1943769  46.5374222
  11.0330563   8.0571108  47.5505676  10.4263401   9.2565823  46.4510307
   9.4240007   7.4647198  46.2756424   8.6905947   7.4938245  46.9694519
   8.9743624   7.7949190  45.4336853   9.4933243   6.4756413  46.0832443
  14.5493488  11.8963442  47.3736115  13.6012325  12.6247740  47.1408386
  15.6804371  12.3486681  47.9890099  16.4629250  11.7221298  48.1125488
  15.8643017  13.7413092  48.5042038  14.8700972  14.1779041  48.5993538
  16.3694019  13.6983023  49.9556198  15.5965624  13.2362871  50.5699196
  17.3649235  13.2553606  49.9845886  16.5496979  15.3785887  50.5233269
  15.2657833  15.7298470  50.4089813  16.6677456  14.6080914  47.5204315
  17.7081242  14.1105270  47.0284538  16.2125340  15.8574648  47.2858620
  15.3518057  16.1721859  47.7103577  16.8993549  16.8280697  46.4488907
  17.8827057  16.5111809  46.1014633  16.0100174  17.2036362  45.2383041
  15.0408649  17.6268387  45.5023956  16.7083683  18.2856312  44.3969994
  16.6900864  19.2437000  44.9164848  17.6871834  17.9771347  44.0297775
  16.0074100  18.3279781  43.5633507  15.8442135  15.9313612  44.3819237
  16.8473244  15.6571665  44.0552788  15.4505615  15.0874310  44.9484215
  15.0063734  16.1077862  43.1007996  14.6781130  15.1136389  42.7974396
  14.1107235  16.6903629  43.3164749  15.5909557  16.5965672  42.3214035
  17.1852531  18.0859127  47.2996101  16.3384018  18.4593410  48.1092758
  18.3425789  18.6807690  47.1387711  19.0265694  18.3166389  46.4909554
  18.7414207  19.8808212  47.8212471  17.8852119  20.3347340  48.3202133
  19.6194878  19.5164089  49.0506516  20.6318569  19.4066658  48.6618538
  19.5431023  20.2540569  49.8494911  19.2911797  18.2248898  49.8604279
  18.2147713  18.0598679  49.9074554  19.7154083  17.3939991  49.2967339
  19.9595490  17.9933624  51.1501007  20.7832470  18.6823006  51.3371506
  19.2016907  18.1817036  51.9105453  20.4049969  16.6172085  51.2637367
  20.8693581  16.1847000  50.4779816  20.1198368  15.8171797  52.2643471
  19.6414776  16.1476154  53.4341927  19.5428371  15.4663630  54.1732903
  19.9239082  17.0596123  53.7637253  20.3262272  14.5003185  52.0623665
  20.2202244  13.8378344  52.8173370  20.7099380  14.1445541  51.1984825
  19.3762627  20.9591846  46.9512672  19.6906815  20.6992188  45.7613564
  19.4031219  22.2006168  47.4985962  18.9748402  22.2455196  48.4121933
  19.9476700  23.3954411  46.8189888  20.5586929  23.1495552  45.9504890
  18.8410854  24.4498787  46.4929695  18.3228798  24.6537495  47.4299889
  19.4042797  25.7179852  45.8871078  19.9631443  25.4935627  44.9785919
  18.6012573  26.2896385  45.4218483  20.0093288  26.3024082  46.5802612
  17.7628212  23.7919445  45.6403046  17.2270546  23.0011177  46.1653175
  16.9625549  24.5143700  45.4797478  18.1747341  23.5119343  44.6707573
  20.8493366  24.0927372  47.8127098  20.6056633  24.0729008  49.0245552
  21.8692207  24.7441406  47.3662720  21.9515419  24.6576481  46.3633575
  22.5631199  25.8637676  48.1155701  21.9054508  26.3970165  48.8020248
  23.7200050  25.3847561  48.8968697  23.3660412  24.6060524  49.5724640
  24.3919430  25.0302124  48.1152687  24.4309044  26.4459743  49.7210197
  24.9249554  27.0925083  48.9957581  23.7146034  26.9568119  50.3644943
  25.6692066  25.6777687  50.8600769  26.8715496  25.2458324  49.6347809
  27.8171864  25.0835609  50.1520271  26.5527840  24.3852291  49.0466919
  26.9866333  26.0744324  48.9360085  22.9887638  26.9047089  47.0997696
  23.5788879  26.6438770  46.0883675  22.6891384  28.1621799  47.2920990
  22.1248379  28.3056526  48.1173782  22.9084682  29.3147221  46.4854813
  23.5030460  28.9062309  45.6683426  21.6516838  30.0338535  46.0118523
  22.0120697  30.7779961  45.3015900  21.1402378  29.3671303  45.3175850
  20.7269974  30.7250690  46.9765358  20.7306690  30.1045303  47.8726501
  21.0637989  31.7462788  47.1548767  19.0245590  30.8292313  46.4697151
  18.5622845  29.1268978  46.6960793  18.5503750  28.7322254  47.7120438
  17.6171932  28.9663486  46.1773033  19.2388916  28.5159111  46.0985870
  23.8601265  30.2405910  47.3630257  23.5660229  30.3112297  48.5430298
  24.8521385  30.8577290  46.8266563  25.0600357  30.6779537  45.8547707
  25.7180424  31.7498016  47.5577431  25.6132011  31.7436848  48.6426735
  27.1645470  31.3719997  47.2169456  27.2906189  31.6389294  46.1676826
  28.1283531  32.1252480  48.0574150  29.1555920  31.9708748  47.7271843
  28.0235119  33.2018623  47.9231834  28.0882511  31.8900051  49.1209717
  27.4237957  30.0234032  47.3790779  27.7996235  30.0127621  48.2623901
  25.3268661  33.1189919  47.0604858  25.3447514  33.4228363  45.8657837
  24.9253502  33.9893341  47.9992256  24.7204037  33.6035347  48.9098587
  24.2673416  35.3073082  47.8034363  24.3330898  35.4171295  46.7209778
  22.7588921  35.4228172  48.1202202  22.5766258  35.2825813  49.1856842
  22.0645676  36.6608429  47.5648766  22.4438972  37.5871048  47.9964485
  22.0896168  36.7713242  46.4807777  21.0579891  36.5821228  47.9756088
  22.0322170  34.2224884  47.5247116  22.1759834  33.2953682  48.0795822
  20.9480495  34.3343277  47.5378952  22.3489056  34.0317535  46.4993210
  25.0496216  36.4516602  48.4847183  25.4039555  36.2700043  49.6541672
  25.2487526  37.5206146  47.7828560  25.0478497  37.4482307  46.7956886
  25.7565708  38.8105927  48.3411980  26.6026077  38.5454597  48.9752541
  26.5694046  39.5583038  47.1975746  27.1067429  40.3723412  47.6841049
  27.1770515  38.8147659  46.6818085  25.6358814  40.1603127  46.1425972
  24.7303810  39.5882301  45.9403801  25.2264404  41.0980682  46.5181923
  26.3001385  40.4409561  44.8493271  27.2810936  39.8660088  44.4406967
  25.6328201  41.1908913  44.0587959  26.0970058  41.2137032  43.1620750
  24.6540432  41.4366684  44.0999298  24.6708889  39.5407867  49.1085014
  23.7319431  39.9853287  48.5021172  24.7660007  39.7633858  50.4501114
  25.6587830  39.8040619  50.9206276  23.6434441  40.3609238  51.3272438
  23.1181831  41.0492554  50.6651230  22.7484150  39.1334229  51.6282196
  22.4681873  38.6902847  50.6726074  23.3869400  38.1410294  52.6381493
  23.9659004  38.6568718  53.4041824  22.6198654  37.6363335  53.2254944
  24.0813675  37.4873352  52.1103630  21.6359863  39.5398293  52.3435173
  20.9636745  38.8548775  52.3225212  24.0296059  41.2414665  52.5159874
  25.0937233  41.1977386  53.1026192  23.0452919  42.0520554  52.9690170
  22.1753349  42.0086212  52.4577560  23.0747375  42.7086983  54.2204475
  24.1004429  42.8909912  54.5410690  22.4797287  44.1612892  54.1795731
  21.5375538  44.1506958  53.6315804  22.2100697  44.3618431  55.2164726
  23.3555336  45.2394295  53.6282578  22.9106846  45.9961815  52.6904106
  24.5463161  45.2650108  54.0395470  22.4284611  41.8680077  55.3958588
  22.6672554  42.2420273  56.5339355  21.7061157  40.7087326  55.1107063
  21.7861118  40.3154259  54.1838799  20.8955383  39.9416389  56.0864372
  20.3435440  40.6573334  56.6956978  19.9118862  38.9992027  55.3974228
  20.3902969  38.3874779  54.6325569  19.1376419  38.0537643  56.4318352
  18.3717079  37.4280319  55.9736824  19.8756504  37.3648834  56.8427963
  18.6956635  38.7219467  57.1709480  18.8378468  39.7153320  54.5791473
  19.2809849  40.3236618  53.7906876  18.1934967  38.9272118  54.1895599
  18.2079544  40.4072685  55.1382179  21.8420486  39.2004852  57.0401573
  22.7133045  38.5114441  56.4695587  21.7572231  39.2434464  58.4127960
  20.8899746  40.0593910  59.2256241  19.8653240  39.7260857  59.0610046
  21.0518074  41.1014481  58.9498901  21.2806301  39.8811417  60.7133255
  20.4203491  39.4815941  61.2503471  21.5717983  40.8694687  61.0690346
  22.3712883  38.8114471  60.8002510  22.0519447  37.8975334  61.3011322
  23.2652035  39.2109222  61.2792435  22.6847706  38.4880562  59.2898254
  23.6704483  38.9123192  59.0986710  22.6339302  36.9264259  59.0504265
  21.5375652  36.3771439  58.7285042  23.6511822  36.1738129  59.4473228
  24.4051418  36.7396355  59.8099403  23.8077602  34.7286720  59.3191338
  23.7119560  34.4721909  58.2640800  25.1122570  34.1706200  59.8890381
  25.9919224  34.7285728  59.5681343  25.1982536  34.3764687  60.9559631
  25.3234978  32.6609573  59.6282349  24.4955425  32.1392212  60.1082191
  25.3407726  32.4583168  58.5573769  26.5530205  32.0853043  60.2863731
  26.5592670  31.7062397  61.5055580  27.6914959  32.0224228  59.5904961
  28.5509357  31.7699223  60.0570869  27.7638741  32.3177528  58.6273537
  22.6231403  34.0068169  59.9723930  22.1049747  33.1064110  59.3793144
  22.2432880  34.3392830  61.2268982  22.7663078  34.9854584  61.8004913
  21.1166477  33.7147903  61.9733467  21.2694950  32.6370544  62.0301361
  21.1814575  34.0972061  63.4816933  20.4928474  33.5109978  64.0901947
  22.1736317  33.7821922  63.8048897  21.1881447  35.5949669  63.7830048
  22.1037216  36.2589836  63.3301697  20.2680054  36.0706482  64.5095367
  19.7384262  34.1271400  61.4452591  18.7495289  33.4087601  61.6306343
  19.6501904  35.2238846  60.6808662  20.5012779  35.6509514  60.3441620
  18.4484825  35.8449287  60.0341225  17.6672993  35.3622131  60.6213570
  18.3666973  37.3232498  60.3689079  19.1459618  37.8140411  59.7858353
  17.4493790  37.6885910  59.9072227  18.3152485  37.7709579  61.8009796
  19.2880421  37.5864983  62.2567749  18.1434212  38.8380241  61.9422188
  17.2308331  37.0117760  62.5753250  16.0871792  37.0500908  62.1956787
  17.6354809  36.3063316  63.6317673  18.5786743  36.4820595  63.9473801
  16.9871502  35.7741394  64.1943817  18.2511101  35.5574036  58.5792084
  17.2096024  35.8372726  57.9986801  19.2191448  34.9041824  57.9629517
  20.1484528  34.8015594  58.3449936  18.9595928  34.2569809  56.6672401
  18.4333458  34.9041061  55.9655342  20.2853622  33.6148949  56.1234283
  20.6705093  32.7961655  56.7312469  19.9820137  32.9473343  54.7390480
  19.4580078  33.6816750  54.1272774  20.8964672  32.6991882  54.2002525
  19.3355427  32.0909729  54.9309311  21.4500313  34.6254845  55.9239159
  21.2908211  35.3862228  56.6881332  22.3788815  34.0582275  55.9835930
  21.4034290  35.4629021  54.6952095  20.4097347  35.9102554  54.6718750
  22.2010498  36.2020721  54.7695961  21.7078075  34.9137306  53.8042221
  18.0324364  33.0912666  56.9892273  18.2083454  32.3855400  57.9269943
  17.1256008  32.8129883  56.0620041  17.2181473  33.3781166  55.2300415
  16.1555614  31.6761246  56.1585579  16.2097607  31.1595249  57.1168289
  14.7094498  32.1755714  55.8719559  14.7032719  32.8424454  55.0097809
  14.1228704  31.2896881  55.6285667  14.0165920  32.9901581  57.0000725
  14.5135822  33.9568214  57.0817108  12.9749718  33.1870537  56.7463799
  14.1514702  32.3961601  58.3834419  15.2234106  32.4205589  58.5795288
  13.6534967  33.1141777  59.0350342  13.4838314  31.0954075  58.5668793
  12.8374643  30.7817211  57.8570137  13.6105642  30.2472668  59.5907402
  14.3256645  30.5148773  60.6352882  14.2826853  29.9094219  61.4425545
  14.9370356  31.3179569  60.5980301  12.9295015  29.1913300  59.5360718
  13.1102715  28.4852695  60.2352867  12.2256546  28.9691696  58.8466187
  16.4476700  30.5772915  55.1862640  16.5520515  30.8060436  53.9710426
  16.4298210  29.3236542  55.5943871  16.5140228  29.1504936  56.5858650
  16.4516754  28.0945492  54.7946777  16.6877842  28.3878136  53.7717667
  17.6185627  27.1867352  55.2318153  17.2827778  26.7234726  56.1595726
  17.8393326  26.3763981  54.5370369  18.8582630  27.9588470  55.5752640
  19.7114868  28.6564522  54.7073593  20.6858616  29.2011662  55.4162216
  21.5753059  29.7142582  55.0815163  20.4117489  28.9361134  56.7054405
  20.7804871  29.4984341  57.4590492  19.3185520  28.1521931  56.8329735
  18.8212414  27.7945404  57.7224503  15.1252508  27.4051304  54.7543068
  14.2136765  27.6855202  55.5201187  14.9832830  26.4449043  53.8427734
  15.8376045  26.2126827  53.3566551  13.6518898  26.0210209  53.2987862
  12.8622513  26.2794647  54.0043182  13.3871450  26.6411629  51.9337883
  14.2566299  26.4903374  51.2939758  12.1369658  26.0440941  51.2082367
  11.2811747  26.1946182  51.8663139  12.0897684  26.4936543  50.2163849
  12.1815825  24.9675827  51.0432091  13.1608009  28.2102413  52.1909447
  12.3408318  28.4419003  52.8707085  14.1047697  28.5537777  52.6140366
  13.0103951  28.7079601  51.2329483  13.6594276  24.4436436  53.1934738
  14.5601196  23.9226570  52.5471115  12.7068443  23.8734894  53.9160995
  11.9640455  24.4735489  54.2451553  12.5620565  22.4167938  53.9500389
  13.2398281  22.0281773  53.1899719  13.1245604  21.8955574  55.3186989
  12.6605730  22.4740868  56.1175232  12.9972649  20.8166752  55.4076500
  14.6499491  22.2516212  55.3736343  15.2696848  23.3361473  55.9965630
  14.6563158  24.1183643  56.4188385  16.6700287  23.5806274  55.9473839
  17.0114460  24.5427303  56.2998009  17.4981575  22.6711025  55.2461967
  18.8299618  22.9374294  55.0788116  19.3557301  22.2850475  55.5473900
  16.9365883  21.4297619  54.7179604  17.5457993  20.6557846  54.2749901
  15.5394230  21.2577324  54.8603401  15.0554113  20.3789654  54.4604568
  11.1462240  22.0032406  53.6517677  10.3251429  22.2985420  54.5330467
  10.9352112  21.3557949  52.4775696  11.7673111  21.1358299  51.9490585
   9.6142225  20.9352493  52.0057602   8.8265533  21.3483696  52.6358452
   9.1978655  21.5637608  50.6101265   9.8128557  21.1569557  49.8073807
   8.2074919  21.2385464  50.2915382   9.3052464  23.0808964  50.4533730
  10.2591314  23.4235973  50.8543205   9.3776760  23.4566422  48.9763908
   9.5189190  24.5273571  48.8290329  10.2053356  22.8797016  48.5638161
   8.5261030  23.0838623  48.4072151   8.0642014  23.7967281  51.0505295
   8.2921009  24.8626232  51.0454407   7.2123423  23.5243855  50.4274216
   7.9457307  23.4484043  52.0765648   9.3902054  19.3992424  52.0666847
  10.2624922  18.5704651  52.1203842   8.1409187  18.9612236  51.8694305
   7.3865366  19.6009521  51.6650925   7.8178864  17.5184002  51.8551941
   6.7600250  17.4227486  52.0998993   8.0253811  16.9429741  50.4423294
   9.0876827  17.0428429  50.2195282   7.6268096  15.9383812  50.5838699
   7.2387762  17.6301899  49.2607574   7.7458906  18.5744228  49.0623589
   7.3176074  17.0934391  48.3153572   5.7760777  18.0326080  49.5876007
   4.8865485  17.1880817  49.3146896   5.5809832  19.1335983  50.1073418
   8.4564171  16.7594967  53.0296936   8.3372355  17.2013512  54.1497574
   8.9744329  15.5067339  52.8096199   8.9957800  15.0338240  51.9174309
   9.5717754  14.6652908  53.8688507   8.8439999  14.8372097  54.6618767
   9.6579618  13.2034569  53.4549789  10.1916113  13.3152790  52.5111465
  10.2756214  12.6966829  54.1964455   8.2862120  12.4910984  53.1960144
   7.8866758  12.2346802  54.1771965   7.6332107  13.0672903  52.5405045
   8.4780569  11.1648197  52.4572182   8.9397621  11.1961002  51.4703293
   9.1185980  10.5313740  53.0708580   7.1783919  10.4151239  52.1754608
   6.4587402  11.0537596  51.6632614   7.4238868   9.5276690  51.5921478
   6.5194550   9.9877138  53.3736115   6.1422930   9.0538330  53.2979507
   7.2299519   9.9048510  54.0866547   5.8766217  10.6182795  53.8310509
  10.9250193  15.1672134  54.3318176  11.3827820  14.7123013  55.4244995
  11.6430836  16.0150108  53.6222916  11.3584700  16.3291111  52.7055397
  12.8225880  16.7054672  54.0598793  13.5375862  15.9409609  54.3638687
  13.4088650  17.4599705  52.9304962  14.2742376  18.0580368  53.2160645
  13.8826714  16.7156696  52.2904778  12.7028141  18.1449413  52.4610100
  12.6294584  17.7430992  55.2024117  13.5883923  18.0959129  55.9259834
  11.3547506  18.1196079  55.4879417  10.5943718  17.7905006  54.9103470
  11.0021858  19.1030426  56.5525131  11.2479486  20.0949154  56.1731873
   9.4826870  19.1549149  56.6420860   9.1271181  19.4022236  55.6418304
   8.8969173  17.7826900  57.2987289   9.3169413  17.6513481  58.2959404
   7.8084989  17.8091755  57.3511276   9.2011309  16.9365692  56.6825829
   8.9313984  20.3721714  57.3247070   9.0871096  20.4383907  58.4014969
   9.4417620  21.3066807  57.0916367   7.8738828  20.4689522  57.0789566
  11.6124678  18.8736248  57.9320183  11.5896120  19.7973995  58.7958145
  12.0808287  17.6850262  58.2469330  11.9673691  17.0415726  57.4767418
  12.6780386  17.1554394  59.4771423  12.1761684  17.3817387  60.4178925
  12.7837439  15.6138039  59.4183846  13.3327608  15.2118340  60.2699127
  11.4850788  14.9583693  59.7062950  11.2201834  15.1898937  60.7379570
  10.8139896  15.2695446  58.9057274  11.6503010  13.8813782  59.6764374
  13.4274330  15.0664415  58.1334915  13.0773458  15.4938002  57.1938591
  14.5111628  15.1775312  58.1694031  13.1137085  14.0304356  58.0055428
  14.0988064  17.5964813  59.6521492  14.6282349  17.6535702  60.7597122
  14.7762318  17.9887867  58.6116409  14.3062553  18.0318642  57.7186852
  16.1646900  18.5123425  58.4683800  16.7417641  17.9463863  59.1996651
  16.6757240  18.3515682  57.0448608  16.1806068  19.0646839  56.3857498
  17.7012558  18.7203960  57.0259171  16.5505714  17.0365887  56.3367844
  15.5440521  16.6209755  56.3845596  17.0273247  17.2086716  54.8307190
  16.2616768  17.7345753  54.2603607  17.8502941  17.9232349  54.8456955
  17.2128983  16.2177200  54.4163780  17.3612366  15.9274406  57.0645523
  17.1979294  15.9368048  58.1422119  17.1588268  14.9310532  56.6716881
  18.4342537  16.0999851  56.9811058  16.3744164  20.0246620  58.8043098
  17.4542656  20.5688190  58.7606888  15.2936211  20.7533340  59.1869316
  14.4322863  20.2267246  59.1571350  15.2737656  22.1898327  59.3417778
  15.6581793  22.6756592  58.4449501  13.8457394  22.7883892  59.4347229
  13.9070377  23.8766632  59.4370804  13.3369904  22.5964069  58.4900436
  12.9766474  22.3802223  60.6572113  12.9766226  21.2941303  60.7494240
  13.4393492  22.8463783  61.5270996  11.6171684  23.0022926  60.6036224
  11.6691637  24.0888481  60.6728477  11.1153326  22.8459206  59.6487312
  10.7929974  22.5387154  61.7444763  10.6634207  23.1086788  62.5681610
  10.2607784  21.3035431  61.8957100  10.4062872  20.3162422  61.1119194
  10.7103796  20.4439983  60.1572952   9.9767637  19.4352684  61.3558311
   9.5107222  21.0920963  62.9332581   8.8777122  20.3060322  62.8944931
   9.5684786  21.6523457  63.7716408  16.0325546  22.5711060  60.5932159
  15.7765961  21.9402390  61.6330986  16.9468327  23.6079369  60.5854263
  17.5441780  24.1129494  59.4004326  16.8313122  24.6292419  58.7574997
  18.0308323  23.3140717  58.8409081  18.8159447  24.8942623  59.8244553
  18.9872265  25.7338924  59.1508217  19.6808243  24.2335339  59.8837967
  18.4919720  25.2896824  61.2969437  17.8657112  26.1817684  61.3060646
  19.3778858  25.3080864  61.9316978  17.6023159  24.1302967  61.7560883
  18.3057652  23.3797455  62.1165504  16.6874332  24.5168858  62.9161758
  16.9975662  24.5270805  64.0915527  15.4785299  25.0688610  62.6755447
  15.2034378  25.1099377  61.7045975  14.5542526  25.5524521  63.6905708
  15.0402880  26.3555298  64.2445908  13.2626486  26.0578156  63.0779800
  12.7714615  25.2498283  62.5357704  12.6000481  26.3093204  63.9061165
  13.5163546  27.3572197  62.2126465  13.2276039  28.4589119  62.6454773
  13.9330120  27.1787930  61.0596771  14.1099997  24.4882717  64.7519836
  13.8631821  24.8257484  65.9285812  14.0015383  23.2198811  64.2538834
  14.3029194  23.0951443  63.2980042  13.6857796  22.0353012  64.9971161
  12.7283134  22.2122879  65.4870605  13.6121073  20.8089809  64.1608124
  12.7694244  20.9557152  63.4851990  14.5784197  20.7537365  63.6595268
  13.2361650  19.5554466  64.9930573  14.1281595  19.4317532  65.6071854
  12.0285158  19.5348148  65.8513260  12.2003479  20.2968788  66.6114731
  11.1470757  19.4474277  65.2160873  12.1168051  18.5827141  66.3746033
  13.1950903  18.3949318  63.9758263  12.6899796  18.7779732  63.0891228
  14.2240086  18.0825500  63.7973747  12.5925140  17.5587406  64.3304901
  14.6905479  21.8120842  66.1192627  14.3698225  21.7269268  67.3028793
  15.9621105  21.7987843  65.7535934  16.0514660  21.7312393  64.7498245
  17.1927433  21.4968967  66.4579086  17.0616493  20.5358849  66.9552765
  18.3857689  21.4680862  65.4658737  19.1492767  20.8866787  65.9827118
  18.0561409  20.9717445  64.5531311  19.0084782  22.7440147  65.1207733
  18.3361187  23.2552452  64.6645050  17.5210934  22.4493542  67.5718536
  17.7882805  22.1425629  68.7172546  17.1288338  23.7217102  67.3673401
  16.5729961  23.8612385  66.5356674  17.2436409  24.8151207  68.3575897
  18.2145844  24.7878857  68.8521881  17.0531597  26.1239967  67.5644989
  16.0798073  26.1088810  67.0741348  17.0197773  26.9491444  68.2759247
  18.1393127  26.4684296  66.4907227  18.1999302  25.6912403  65.7288818
  17.6408005  27.7886658  65.8498611  17.5403862  28.5187302  66.6529999
  18.2966709  28.1025372  65.0378113  16.7917061  27.5644550  65.2042084
  19.5482655  26.5726166  67.1620026  19.8336029  25.5568333  67.4356384
  20.3259163  26.9169006  66.4802170  19.4941616  27.2068024  68.0468597
  16.0728397  24.6714344  69.3532791  16.3288631  24.6054249  70.5436783
  14.8834848  24.3188286  68.8205872  14.8741388  24.3106651  67.8106613
  13.6630211  24.3141632  69.6195831  13.5327787  25.2573338  70.1502075
  12.3872719  24.2967148  68.7162781  12.5800791  23.4736977  68.0281143
  11.1197824  24.0371609  69.4293594  10.9568539  23.0510235  69.8642120
  11.0815859  24.7877445  70.2188263  10.3489304  24.2287636  68.6829147
  12.2127686  25.4473248  67.8863068  12.9017954  25.4506416  67.2178574
  13.6456833  23.2676888  70.7638474  13.6486874  23.5400467  71.9468079
  13.6997766  22.0067234  70.3135681  13.8568468  21.9045391  69.3211060
  13.9065666  20.8203278  71.1768494  13.0107298  20.7114410  71.7881775
  14.1292448  19.6605835  70.2110901  13.7085695  18.7329197  70.5991287
  13.5968676  19.8460674  69.2782059  15.6283598  19.3173504  69.8369827
  16.2160263  20.1805782  69.5245972  16.1503296  18.8492241  70.6715546
  15.7626209  18.2869148  68.6773987  15.0943146  17.4510498  68.8842773
  15.4365997  18.7833805  67.7634354  17.1995220  17.9918957  68.3451538
  17.6722012  18.8369446  67.8445892  17.6626797  17.9053326  69.3280563
  17.3996677  16.6993618  67.6497040  18.3431225  16.3391724  67.6336746
  16.8124008  15.9685116  68.0253143  17.2472382  16.8594627  66.6641922
  15.0723925  20.9403191  72.2137299  14.9553423  20.3719521  73.3095093
  16.0801277  21.8108120  71.9113846  16.1699200  22.1402340  70.9608536
  17.1904678  22.2201366  72.7467957  17.4032021  21.3743725  73.4006577
  18.4357224  22.2977734  71.9176941  18.5450191  21.2975311  71.4985657
  18.4688511  23.0291004  71.1101227  19.6672077  22.5738220  72.7722549
  20.1613464  21.7634659  73.5140915  20.1015053  23.7989330  72.8489532
  20.0148563  24.5358715  72.1637344  20.9720459  23.8766022  73.3551407
  16.9844952  23.5143566  73.6483765  17.5800705  23.7260780  74.7161484
  16.0959396  24.4331245  73.1796722  15.6044703  24.2677212  72.3129501
  15.8746185  25.7411327  73.8356400  16.7689590  26.0467701  74.3786316
  15.6129293  26.8849850  72.7779236  14.6476078  26.6322842  72.3392944
  15.5836821  28.3047447  73.4207458  16.4226303  28.5228367  74.0815735
  15.5011902  28.9665451  72.5585861  14.6538887  28.4170799  73.9783859
  16.6350479  26.8680878  71.7844009  16.5718822  25.9929314  71.3948975
  14.6967535  25.6319351  74.8663406  14.7947426  26.2885113  75.9252472
  13.6972771  24.7731056  74.6349106  13.7766447  24.0798225  73.9047318
  12.4487457  24.5947971  75.3896255  12.5036287  25.0854168  76.3614197
  11.2095423  25.2358742  74.6869507  11.5295639  26.2423515  74.4173355
  11.1283903  24.7240715  73.7280045   9.8281412  25.2991886  75.3433609
   9.1818027  25.9643211  74.7706909   9.4784927  24.2725582  75.4523392
   9.9820786  25.8492374  76.7707214  10.5745077  26.9421272  77.0383377
   9.6955156  25.0612240  77.7345581  12.2483768  23.1221256  75.7681046
  11.7286053  22.4101887  74.9572754  12.5919189  22.7821274  77.0452194
  12.8367033  23.4732685  77.7398453  12.6255245  21.4152107  77.5700836
  12.5567379  20.6805420  76.7678146  13.9337978  21.2956219  78.3526459
  13.8179893  21.9059734  79.2482758  14.1362467  20.2668495  78.6505508
  15.2194510  21.7678852  77.6746445  15.1546955  22.8514271  77.5754242
  16.3677692  21.3236256  78.5142517  16.4744587  20.2399712  78.5632782
  17.3433323  21.7357330  78.2562943  16.1963024  21.5865211  79.5580902
  15.5164833  21.2426567  76.3112717  15.1582937  20.2176933  76.2150879
  15.0038939  21.7837276  75.5159149  16.5820351  21.1824188  76.0897598
  11.4567080  21.2091656  78.4355927  11.0122824  20.0392876  78.3984070
  11.0242310  22.1009846  79.2619934  24.9272728  18.3992882  32.4599037
  24.2455292  17.6404362  32.0818863  25.9571857  18.0539188  32.5192947
  24.4400711  19.5826759  32.8810959  25.3159504  20.7389317  33.3517380
  24.8047733  21.6262512  34.0653267  26.5517426  20.7272587  33.3305550
  23.0884876  20.0267773  32.7109184  22.3613472  20.0157928  31.4559956
  21.4121456  20.5521660  31.5764618  21.9268131  18.6047230  31.0420494
  21.5826244  18.0000248  31.8783512  21.7982807  18.2318249  29.7542744
  22.2753620  19.1313457  28.7385712  21.8199692  18.9613361  27.7648563
  22.8531570  20.3177319  29.0318546  23.2630329  20.9313641  28.2324886
  23.2468147  20.7061329  30.4135666  24.2989120  20.5074539  30.6519032
  23.1282215  22.0971680  30.5025997  23.0293102  22.3190289  29.5604095
  21.2225647  16.8983040  29.4679623  20.6409206  16.2815838  30.3683281
  21.3138657  16.4624519  28.3638268  44.7026176  15.4453964  46.5525970
  45.1959000  14.8472271  45.7894516  45.1521530  16.4142265  46.7595100
  43.4277382  15.2080765  46.9620857  42.7200775  16.0943775  47.8991928
  43.1909828  17.1902657  48.1472893  41.6098442  15.8105526  48.3590202
  42.6843185  14.0779085  46.6559830  42.0115395  14.0194826  45.3521843
  41.3059158  13.1798878  45.3329849  43.0338211  13.9153538  44.2731552
  43.5340958  12.9555578  44.1634178  43.3652916  14.9442225  43.4792557
  42.7249870  16.2749195  43.6648865  43.2201004  17.1568737  43.2631149
  41.6279297  16.3630562  44.4791260  41.1891518  17.3386326  44.6772614
  40.9678078  15.1608038  45.1648674  40.6761742  15.5827398  46.1344604
  39.8015175  14.8295879  44.4093666  39.0937805  14.8653889  45.0761185
  44.4786873  14.8050365  42.5012169  45.0636139  13.7331495  42.5147629
  45.0241470  15.7714224  42.0197105  20.8416786  17.6064396  57.6702881
  20.4842052  18.5587749  58.0560303  21.0031013  16.8087749  58.3922272
  20.8918457  17.4205284  56.3501434  20.4952164  18.6091366  55.4147797
  20.0002937  19.6147270  55.9155998  20.5703545  18.5463276  54.1679230
  21.2824707  16.2828331  55.5947647  22.0143986  15.2357492  56.2198792
  22.4713249  14.5354347  55.5099678  21.0883808  14.4407816  57.1311035
  20.1245346  14.1024485  56.7568588  21.5418396  13.8357038  58.3279610
  22.8284092  14.2889547  58.8479958  23.0832958  13.8584557  59.8144836
  23.6226025  15.1712847  58.2802200  24.5477753  15.5891151  58.6713753
  23.2854424  15.7471828  56.8811646  23.1534309  16.8225212  57.0526657
  24.3663292  15.6106272  55.8868713  23.9689903  15.8542566  55.0327644
  20.7838326  12.7412558  59.0378799  21.1799259  12.2914343  60.1233025
  19.6314526  12.4715700  58.7024689  50.8766289  31.2131214  56.6226807
  85.0379028  24.4736938   5.2932925  84.5308380  40.3939743  84.4149551
  19.8519020   5.3130193   1.7940928  10.6390181  24.3212700  79.5589447
  28.9986382  41.3115387  62.9179497   8.2469559   1.9466368   0.0206622
   0.6127841  33.8463821  30.3844452  23.6606007  66.8040771  37.3404541
  11.5156765  54.0692101  78.2457886  12.1818848  54.7415581  78.1031342
  11.8608742  53.5385017  78.9637146  84.3484116   6.6327176  69.7311935
  84.2779541   7.3222351  70.3913651  83.4600296   6.5385208  69.3874817
  64.3182983  35.5549011  48.5901451  63.8824577  34.7295341  48.3779030
  63.8841515  36.2042046  48.0368309  57.8376198  33.9112167  63.5204315
  57.7025986  34.2168465  62.6234398  58.1043282  34.6939354  64.0025635
  76.2759933   4.0681601  87.0830078  75.4976807   3.6704741  86.6927261
  76.0239944   4.2491803  87.9885178  38.1066399  27.6925583   7.0693412
  37.3531685  27.1341629   6.8777590  37.7655907  28.3584805   7.6663895
  77.7020187  46.3060341  42.1021385  77.4785233  47.2227135  42.2633209
  78.6584549  46.2836456  42.1332664  43.5235138  31.9988003  69.4628983
  43.7281532  31.0783310  69.6274872  42.7275734  31.9759293  68.9316864
  17.8063183   2.0722027  85.1371460  17.0117702   1.5582707  85.2813721
  18.2743740   1.6011963  84.4477158  84.7632904  42.3228264  78.6644135
  85.0942459  43.1776810  78.9399643  84.9733658  42.2739182  77.7318268
   0.0504151  37.9220619  72.2007446   0.8357428  38.0567055  72.7311859
   0.3817537  37.7800941  71.3140182  42.6788559  16.0797806   4.7749853
  43.2991524  15.7732973   5.4364467  42.9072266  16.9995422   4.6403928
  77.0016785  44.9044876  70.1074219  76.9317856  44.7879639  69.1599121
  77.3092957  44.0577202  70.4308243  10.8671942  67.0971298   6.0587902
  11.7730284  67.1963806   5.7657948  10.3411980  67.3831329   5.3119555
  70.1720734  32.8240280  46.0931740  69.7027130  33.0542412  45.2913437
  70.5830078  33.6418686  46.3733597  76.8953171  22.3707733  74.4572449
  77.7553406  22.0171947  74.6843338  76.7268295  22.0421772  73.5741425
  69.6482544  36.0210228  16.2829189  69.3823700  36.5756493  15.5494823
  68.9139481  36.0654984  16.8953323  51.1951447  64.2922745  37.9521027
  50.8661842  65.1838989  37.8380165  51.4727058  64.2546692  38.8674011
  36.9864540  20.4791431  76.2217407  37.2715492  21.1652813  76.8252029
  36.0354271  20.5785179  76.1781387  53.0551949  63.1126251  10.8092155
  53.6236420  63.2260818  11.5709419  52.5068321  63.8971329  10.8006115
  53.1768188   7.3134356  78.5452271  53.7131081   7.3148994  77.7523727
  53.8100624   7.2908311  79.2626724  70.5809326  22.9211178  34.2528458
  70.0483398  22.4446411  34.8896751  70.6322174  23.8110504  34.6015854
  25.5144501  49.5575981  85.2854614  25.7729797  48.7040443  84.9378510
  25.4160957  49.4131317  86.2265701   6.9462805  57.0259361  44.1383514
   6.6755729  57.8460960  43.7256966   7.5985985  56.6608963  43.5404739
  86.6537399  14.6318893  47.8269730  86.4164581  15.2011414  47.0949326
  86.0600891  13.8848057  47.7516251  46.4279099   5.5603623  13.7199278
  45.6719398   6.0633240  14.0228672  46.6418114   5.9395061  12.8674450
   0.5998186  16.5548992  84.0196991   0.7016339  15.6033993  84.0423965
   1.2863828  16.8831615  84.6003036  71.7188492  34.5360298  63.3087196
  71.2066040  34.0470848  63.9527435  71.6590576  34.0138397  62.5087357
  40.1677551  32.6736298  72.5799713  40.8618507  33.0843010  72.0643997
  39.4081535  33.2425461  72.4551773  51.4205055  14.9332552  14.4340019
  50.4848557  14.8499842  14.2500000  51.7404747  15.5487185  13.7744122
  40.4321289  26.9176617  17.0768642  41.1087685  26.2868023  16.8310776
  40.9129143  27.6377201  17.4850216  79.7117691  66.2975616  51.0782890
  80.6670227  66.3385620  51.1234016  79.4960861  65.4113541  51.3687134
  78.2969971   5.7454786  25.8069839  78.9786224   6.3834543  25.5957623
  78.2606049   5.7416873  26.7634830  78.5520248  60.5480270  54.6843300
  78.0865860  60.0773277  55.3757324  79.3639374  60.0555191  54.5640182
  73.7811737  17.1637592  27.1246910  74.2552719  16.3472919  27.2823143
  73.0233688  16.9034328  26.6010532  36.1217155  68.1454620  33.5998001
  36.9788780  67.9429626  33.9746284  35.5329437  68.1808319  34.3536797
  73.5488815   6.1126652  85.6612778  73.8424530   6.3211198  86.5481796
  72.7042084   6.5552540  85.5783463  62.3812790   0.5969660  62.3630905
  62.5685577   1.4271045  61.9248810  62.3328934  -0.0431154  61.6530304
  25.5382099   1.3286771  34.4031677  25.6176205   2.1656215  34.8608246
  25.6723747   1.5464082  33.4807663   8.1798306  43.3349304  66.0352249
   8.7444935  43.5379410  65.2894516   7.6671515  44.1317139  66.1713562
  27.3285408   6.4151912  77.7372360  26.4540215   6.5561910  78.0999603
  27.4962349   7.1940737  77.2067108  12.1149693  30.4005070  23.2332535
  12.9125385  29.9367256  22.9782619  11.4236708  29.7416115  23.1684914
  61.5615578   8.6705208  66.7008667  62.3826180   9.1625004  66.6938324
  61.8316841   7.7531319  66.6601105  72.7467957  42.3473396  16.7043209
  73.0601044  43.1916199  16.3798809  71.9693069  42.1619301  16.1776657
  75.2386246  28.4195538  69.0012360  76.0826569  28.5091286  68.5587234
  74.6503448  28.0775833  68.3280258  82.9490662  38.1750717  17.9835873
  83.3931580  38.7056007  17.3221073  83.5827560  38.1023750  18.6973019
   6.5998187   0.6773108   3.9147086   7.3279023   0.9969136   3.3818107
   6.4645157   1.3614428   4.5703673  40.8009911  33.5972176  75.2710876
  40.0246010  33.0922012  75.0294037  40.7416267  34.3944092  74.7445984
   4.6282878  59.8636093  50.9871368   4.4828825  60.0354042  51.9174995
   4.0086560  60.4383583  50.5377464  15.5866766  45.4878998  47.0816269
  15.2433338  45.8904266  47.8793221  16.2148438  44.8363914  47.3933563
  58.7933464  30.3768063  24.9429359  57.8585091  30.3938885  24.7379627
  58.9020538  29.6071186  25.5015011  39.6710281  50.1301575  36.5302086
  39.6432343  51.0078735  36.1493301  39.1020699  49.6062241  35.9662819
  78.5028229  46.1329575  28.1481915  77.5875473  46.2788353  28.3873959
  78.6164246  45.1841087  28.2030849  74.6702652  30.8821640  12.0940161
  74.6373291  31.3401871  12.9338732  74.5871964  31.5757103  11.4395504
  17.4099808  18.6498013   1.6585538  16.9455318  17.8920956   2.0140870
  18.0634594  18.2747860   1.0681624  46.6243744  49.8811798  42.2869110
  47.3691559  49.3271751  42.5206032  46.1645088  50.0256157  43.1138878
  47.3477745  51.3545723  36.7346458  46.6607056  50.8247452  37.1389313
  46.9634247  51.6581764  35.9122543  77.7674561  10.2810411  49.9664612
  78.2052078   9.9013672  49.2045898  78.0552521   9.7404823  50.7021255
  41.3377571  14.6800756  69.5488434  40.4648895  15.0103617  69.3361435
  41.2691269  14.3904524  70.4585953  34.5561218   3.2317901  23.4433117
  33.8707237   3.6784120  22.9463329  35.1848450   2.9458821  22.7805920
  84.5489349  68.2130356  30.3052139  84.1591873  68.9722672  29.8717384
  83.8683548  67.9027100  30.9024925  35.9377136  29.1498051  80.7116318
  36.7470131  28.9179592  80.2560959  36.1202393  28.9654484  81.6330032
  13.7447767  32.2334595  83.5803680  13.2529745  32.6326904  84.2979889
  14.2218742  32.9617805  83.1826782  51.0228539  26.4444561  19.1204033
  51.1899719  26.7223072  20.0210152  50.6252670  27.2090130  18.7037392
  13.4957905  51.9322205  73.8084488  14.2627048  51.3665504  73.7185135
  12.8036003  51.4749908  73.3309021  59.1656837  67.9596710  15.3784485
  58.3457146  67.4950485  15.2110958  59.1634254  68.1170044  16.3226280
  78.2175903  60.1240425  20.0809231  79.1358643  60.2881432  19.8662643
  78.0093231  60.7723656  20.7536278  83.6154785  40.4389801  59.8192444
  82.9408264  39.8374748  59.5041771  84.2535324  40.4776649  59.1067734
  10.2535400  53.4659500  14.9144802   9.5855074  52.7833710  14.9781046
   9.7578449  54.2754555  14.7911177   4.0506158  53.9807472   4.5800490
   3.7432535  53.8299942   3.6861622   3.3829288  54.5442390   4.9710760
  18.5139427  22.2311230   7.5959244  18.6136036  21.9623871   6.6826448
  19.3489933  22.6436539   7.8166904  66.3379898  64.1280289  30.9928265
  65.6313248  64.2934113  31.6169243  66.5971222  64.9977493  30.6884232
  66.5704575   4.5688295  17.4778576  66.9904251   4.7897067  18.3091660
  67.0545959   3.8067267  17.1599846  61.2386665   8.5583601  61.1749191
  61.4404945   9.2914114  60.5934258  60.6819916   8.9381256  61.8547134
  10.9390831  30.8877335  67.3016129  11.3308620  31.7559872  67.2073975
  10.5848637  30.8800087  68.1908264  42.9679909  67.9596634  53.9016838
  43.2940788  68.2509079  54.7531967  42.9424171  67.0051498  53.9687195
  61.8064919  40.4831810  28.5698166  62.6657562  40.7454262  28.9001560
  61.3112831  40.2444839  29.3534126  67.0287628  41.0795631  23.2539482
  67.5067749  41.4887390  23.9752731  67.4172363  41.4568520  22.4646606
  43.8812981  60.7489014  21.9705105  44.0405350  60.6988716  22.9130440
  44.6910362  61.1098938  21.6096268  21.6107769  19.8689175   1.1571100
  20.8489151  19.8927174   0.5781173  21.3624096  19.2626648   1.8549650
   4.8671756  13.9070282  72.9363937   4.9599810  14.3841820  73.7609787
   4.3002095  13.1662235  73.1508484   1.2797693  67.6727066  88.1557388
   2.1711271  67.9737701  88.3320160   1.3417088  66.7176666  88.1730652
  14.1186714  40.4697952  57.7832794  13.6613741  40.6208344  58.6105003
  14.8049479  39.8389359  58.0007019  36.6467896  37.0018806  25.5277863
  36.4868965  36.9571800  26.4704781  36.4921570  36.1101646  25.2160778
   2.0172057  45.3027191  33.7589760   2.9094093  45.4991913  34.0446396
   1.6024568  46.1599541  33.6622124   8.7386446  52.0957298  38.7204781
   8.6201525  51.5174255  37.9669800   7.9301476  52.6066322  38.7597656
   1.2581403  31.8421612  14.7571659   1.3024473  32.2235718  13.8803568
   1.6292534  32.5136795  15.3295021  21.6778011  37.8258171  35.1110420
  22.3406086  38.4848900  35.3172989  21.9212379  37.0671425  35.6414948
  69.0828705  69.4245377  47.7994499  68.5662155  68.9066086  47.1821594
  69.1278687  68.8830719  48.5874977  25.0474968  61.8610039   6.4971671
  25.1796513  62.2723351   7.3513179  24.0977077  61.7716904   6.4187217
  53.9028435  36.4013214  28.0576534  53.4709816  37.1681671  28.4340515
  54.5579453  36.1514359  28.7092896  78.5086136  34.7365608  26.6881447
  78.5784683  35.2051888  25.8564358  77.7346420  35.1103745  27.1094093
   1.0737705   9.4551620  15.1416254   0.6757855   9.9084721  15.8848286
   1.6733406   8.8238144  15.5393028  83.0474777  42.9198227  18.0525074
  83.4751053  42.1738434  17.6319408  82.4707031  43.2771721  17.3773289
  52.2805634  24.5364456  17.5461807  51.8238678  25.2065239  18.0547657
  51.6512337  24.2757988  16.8736935  84.0768661   4.4991560  83.5445023
  83.4126740   4.4722152  84.2332306  84.4010544   3.6002305  83.4890976
  62.2134323  59.4484100  80.2329483  63.1349220  59.4870949  79.9768448
  62.2219849  59.5876312  81.1799316  61.6088638  25.5326328  48.1119347
  62.3325577  25.4634609  48.7346039  61.4192657  24.6278629  47.8635941
  38.5025635  56.3350182  56.9555054  38.9411087  55.7638741  56.3248672
  37.6007118  56.0152969  56.9814568  79.8828506   8.2279139  29.5481358
  79.1849060   8.7673035  29.1764393  80.0254669   8.5900364  30.4226418
  62.7674141  18.0261078  40.9865494  62.5549698  17.5186787  40.2032127
  62.1153069  18.7266350  41.0022888  84.7694931  25.8309174  71.1787033
  84.3370438  26.4547119  70.5955200  85.5375519  25.5375862  70.6885223
  77.1145859  17.6483498  88.1376572  76.4183960  17.9498138  87.5539856
  77.8162460  18.2895584  88.0247040  65.0458984  12.7458658  70.1988831
  65.0763321  13.1290741  71.0754929  64.7197418  13.4514074  69.6402512
   4.3575296  35.5433693   6.4629869   3.9281237  36.1322517   7.0835199
   4.4863791  36.0754204   5.6777792  52.4641571  20.0348740  65.2604904
  53.1310577  20.6808167  65.4933624  52.9331207  19.2005310  65.2472763
  76.6374054  12.8109159  83.6774597  77.4928665  12.4178228  83.5045624
  76.8093033  13.4742756  84.3457718  64.4527512  55.4350281  81.5286636
  64.7803040  55.4697571  82.4274063  63.7490387  56.0834541  81.5049896
  18.2306328  66.9929199  73.9613266  18.7175274  67.5832443  73.3862839
  17.5227547  67.5320663  74.3141174  74.9722824  25.4429455  82.8829193
  74.9023666  25.6027050  81.9417343  74.1163025  25.0935326  83.1307831
   6.8323555  70.9878464  59.9306183   7.0427485  71.9064484  60.0983467
   5.9082508  70.9954605  59.6812134  66.2246017  52.6091423  50.9904976
  65.4317169  52.1725349  51.3018570  66.1787796  53.4872246  51.3687897
  42.8494759  21.8347473  66.7500763  42.5058174  22.6643085  66.4184799
  42.5460358  21.7952213  67.6570435  38.7887650  56.3631287  75.6895294
  39.7177391  56.1348877  75.6556931  38.4189110  55.7658424  76.3396835
  46.0564156  58.6169891  40.3749504  46.7880783  59.0568008  40.8079224
  46.2954521  57.6901550  40.3829765  23.3349915  10.7570095   1.4948074
  23.7377472  10.8458729   0.6310238  23.2202702   9.8136778   1.6096827
   8.4089565  62.1510277  76.8159180   7.8364615  62.6607170  76.2425995
   8.6005192  62.7385979  77.5468750  73.8588867  52.1931000   4.6265855
  73.5655289  51.6402283   3.9023564  74.5376587  51.6773605   5.0619102
   2.7927287  14.2429380   4.0201430   3.1461630  14.0272007   3.1571405
   2.4941621  15.1485863   3.9371243  66.4968719  69.0742874   2.4886138
  66.8783493  68.6695709   3.2676597  66.5398865  68.3918915   1.8187555
  26.8433685  33.7065048  88.2064667  26.4832134  33.9884567  89.0473175
  27.1240501  32.8038025  88.3567276   6.5438538  40.4361153  32.9570847
   5.7736182  41.0043449  32.9479904   6.3227048  39.7428322  33.5789223
  70.5051498  31.6407890   8.5769444  70.3088760  30.7145538   8.4362583
  71.3669968  31.7660103   8.1797323  38.6534309  67.9414673  44.3189468
  38.4352264  67.1116257  43.8947067  39.1756706  68.4124069  43.6695518
   2.9626215  38.3700485  16.0607128   3.6011860  38.9749947  15.6832161
   2.2485433  38.3473129  15.4236832  33.5489464  32.4483528  71.0614548
  34.0920830  32.4712105  71.8493118  34.1742668  32.3623543  70.3418655
  71.2558441  61.0841141  25.6862698  71.8218002  60.7694626  24.9813461
  71.0030670  61.9664879  25.4146938  23.9444065  70.0838013  66.7712021
  23.8588791  71.0357742  66.7195892  24.8815937  69.9339142  66.8954849
  34.4220276  57.3318214  37.7440834  34.8439980  58.0066833  38.2758102
  33.4886246  57.4259720  37.9341660  75.7786713  49.6939049  64.3742981
  75.1617508  49.6893883  65.1061554  75.3332748  49.2046547  63.6825676
  35.1323090  20.5840816  17.7809811  35.4919548  19.6979218  17.8210526
  34.3761597  20.5095863  17.1988144  53.4664726  18.4382801  -0.0778049
  52.5223579  18.4979515  -0.2238119  53.5623779  17.7672329   0.5980140
   3.2921641  34.0527191  10.4487085   3.7114799  33.4922943   9.7957687
   3.1003623  34.8647766   9.9796591  67.1276245  20.4421463  43.3703613
  66.3887939  19.9133244  43.6715431  66.7856598  21.3356304  43.3390884
  77.1744003  35.9507408   6.5767856  77.0006180  36.0755730   5.6438069
  77.3996735  35.0238533   6.6565394  56.8935356  10.4704370  35.5797386
  55.9501991  10.3645458  35.7027702  56.9870491  10.7412720  34.6664314
  14.7977571  40.4061852   6.0760603  14.6444321  40.5713692   7.0063491
  14.5595064  39.4872437   5.9535208  49.8239059  24.5873528  47.1290970
  49.8764153  23.9132671  46.4515419  50.6372261  24.4925232  47.6248322
  65.1998901  57.6979637  58.6651001  64.4209518  58.2247620  58.8438911
  65.3351593  57.7830849  57.7213364  73.3239670  25.2440758  40.4230042
  73.7329483  25.3576851  39.5650673  73.6944580  25.9447899  40.9596329
  82.9915237  34.7380219  45.2641754  83.4347229  34.5227699  46.0848274
  82.0976486  34.4170685  45.3833694  39.7750587  20.3749638  69.9933853
  40.1984444  19.7316742  69.4249268  38.8407555  20.2801418  69.8081284
  52.4003906  57.6404381  34.7493172  52.1844940  57.3304214  33.8698235
  53.3121643  57.9248352  34.6859245  84.3483887  68.3712997  82.7251892
  84.2544556  67.4189987  82.7021942  83.6286926  68.6696091  83.2813110
  59.1536140  45.3741570  50.6651459  58.1999817  45.4530067  50.6897163
  59.3701324  44.8458099  51.4333916  41.6105957   8.5259428  15.2707691
  41.2349701   8.4429865  16.1472702  42.4547958   8.9545927  15.4115601
  25.2421818  30.9203053  67.1694794  25.0232010  29.9948425  67.0608826
  26.1937618  30.9307766  67.2725372  41.0555534  65.9489670  17.0039253
  40.3920097  66.3965149  17.5289402  40.9943199  66.3583679  16.1408653
  19.1782913   4.8295836  51.6115189  19.6562653   5.6588292  51.6003761
  19.8341827   4.1784072  51.8605309   2.4385943   9.6833086  59.5979691
   2.2124884  10.6130028  59.5701218   3.1542830   9.6297407  60.2313347
  37.0087318  54.3092575  31.5682735  37.0512009  54.5857239  32.4836922
  36.1973343  53.8050766  31.5077438  78.0157471  61.0820770  34.1133194
  78.9128571  60.8025742  33.9308205  77.8677216  60.8317680  35.0252800
  23.6841946  20.0935421  75.4996643  24.3977413  19.9074707  76.1099548
  23.1748886  20.7809029  75.9290466  53.2081604  69.8948517  36.4987144
  54.0512314  70.2277756  36.8063278  53.4341431  69.2734604  35.8065948
   0.3063238   9.4078903  24.3525467   1.0300487  10.0004835  24.1493530
  -0.1734032   9.8475924  25.0545120  50.3397408  62.0135765  58.2388611
  51.0683136  61.3963966  58.3059692  50.6809578  62.7295799  57.7030029
  19.3458519  47.1691475   0.3857271  19.1900463  47.8439674   1.0464653
  18.9239712  47.5059586  -0.4047202  10.4821587  51.1099892  40.4778481
   9.9068699  51.2863274  39.7334175   9.8856726  50.9136391  41.2002640
  81.0344162  50.0368652  72.4935150  81.0554733  49.3567619  73.1667557
  80.1079178  50.1230698  72.2690353  61.2917786  63.3277168  83.2465820
  60.9798622  63.0386391  84.1041183  60.4959869  63.5602303  82.7681580
  66.2907562  38.2505226  47.1364174  66.2379227  37.7777901  46.3057747
  66.7702866  37.6603661  47.7177887  74.2281265  44.0332680  85.2683029
  73.4842911  43.7695503  85.8099594  73.9786758  43.7805023  84.3794174
  84.4326630   7.5127196   7.3625460  84.8404465   8.3120346   7.0293188
  83.5179520   7.5781803   7.0882077  16.1346111  59.1796951  16.8140659
  16.2399845  60.1193886  16.9627419  15.2889957  58.9679871  17.2094707
  31.9878063  30.2365246  71.3127747  32.4133530  31.0560932  71.0608749
  32.3664322  30.0222569  72.1653976  61.7939072  51.5195312  15.1171083
  62.1082306  52.3998451  15.3232164  61.2593422  51.2732391  15.8719683
  36.7671700  66.3729248  22.5150318  37.2547073  66.3335419  23.3378239
  36.9016876  65.5135345  22.1155510  37.6295815  35.9674034  71.8016663
  38.3934898  35.9067383  71.2280807  37.9963646  36.0993385  72.6759033
  21.2204113   2.9096398  51.7477379  22.1618576   2.7906761  51.8732605
  21.0205364   2.4158895  50.9524422  74.7568512  51.9554024  61.4233780
  74.6507797  51.0577278  61.7382774  74.1897507  52.0079269  60.6540451
  18.8985958  70.0009003  22.4244766  18.6268501  69.6880112  23.2873135
  19.7964382  69.6838455  22.3265667  51.4336510  19.5060883  20.3814507
  51.4251442  19.5618362  21.3369884  50.6400490  19.0175247  20.1629620
  44.5602341  47.2709274  47.3497696  45.1556931  47.9878311  47.5681839
  44.5664177  47.2374382  46.3931770  37.8762894  36.1094055  77.5166855
  38.6888123  35.6043015  77.5467453  37.5306778  36.0603905  78.4079666
  20.1008625  50.2425270  63.5639915  20.1347256  50.1904984  62.6088066
  20.9383831  50.6338005  63.8123856  38.0182686  27.1861095  10.8325367
  38.6345444  27.6721058  10.2845945  38.4887962  26.3876705  11.0719757
  16.8307400  60.1511459  86.4579468  16.8103771  60.8987541  87.0553589
  16.6521454  60.5280800  85.5964050  79.3034592  54.3197403  27.2772942
  79.4935303  55.2247963  27.5242329  79.9421387  53.7993317  27.7646294
  62.6286621  63.5080643  61.4490814  62.9436035  63.3278084  60.5633316
  63.3856010  63.8806763  61.9012260   5.4182191  26.8211021  13.7895775
   5.1826830  26.9337769  12.8686762   5.9964828  27.5594864  13.9809723
  45.5396843  48.7745628  28.3264637  44.9759102  49.5078430  28.0800991
  46.3184738  48.8768845  27.7794304  62.6610641  36.5537491  28.9266319
  62.1244164  37.1025047  28.3546944  63.1802139  37.1753883  29.4368076
  21.1624432  16.3940678  23.2300911  21.4204540  16.7777443  24.0682163
  21.3380871  17.0816345  22.5877247  35.7820969  54.0921097  75.4883804
  34.9540672  53.6133156  75.4515152  35.5278130  54.9966202  75.6712418
  56.2786713  33.9720421  70.8180771  55.3507881  33.9395027  71.0509033
  56.4345016  33.1572380  70.3405457  69.4057159  11.7884436  45.0995255
  69.9784088  12.4222450  44.6676102  69.6579132  11.8275280  46.0220757
  24.5713863   6.5103374  12.1857510  23.8854523   6.6825943  11.5407305
  24.4869080   5.5772538  12.3818359  73.5310211  64.9502106  83.4341049
  73.3049545  64.4719009  82.6363907  73.8094406  64.2718353  84.0493469
  80.8300247  10.6029291  62.9204483  80.2157211   9.9388304  63.2332306
  80.4320602  11.4357204  63.1740456  49.1947098  53.7795372  49.9395180
  49.8898659  53.1231613  49.9860001  49.6549644  54.6058617  49.7926025
  50.7083702  31.2264538  80.5447006  50.7369118  32.0636024  81.0079498
  49.8870735  30.8241882  80.8273468  64.5018997   1.8909245  27.0541515
  65.0392609   1.6659654  26.2946339  65.1169128   2.2801478  27.6758404
   2.0586135  25.6801453  54.3176041   2.0450888  24.7234840  54.3467216
   2.0244260  25.9482250  55.2358589  85.4294357  54.9272346  25.4357185
  84.6257706  54.5734825  25.0546455  85.7053757  54.2653885  26.0697918
  60.2659073  32.5071945  63.1217995  59.4787064  32.9280548  63.4673767
  60.1533318  32.5321350  62.1715698  79.5752945  40.8350105  82.4549332
  79.5640106  40.2749405  81.6787720  79.0468445  41.5945740  82.2098999
  63.6742935  65.1519547  71.3323364  62.9922676  64.8628311  70.7261353
  63.3844337  64.8350677  72.1877823  79.2751083  69.8366547   6.8246002
  79.5289917  69.0757065   7.3468318  80.0362473  70.4160156   6.8597546
   5.2970643  13.0905809  24.8064461   5.2191138  12.3279705  24.2332249
   4.4781013  13.5697584  24.6802692  14.0081377  31.4400997   7.0303469
  13.8302822  30.6094170   7.4714441  14.9632034  31.5004044   7.0092573
  75.2326508  32.9816933  10.8043375  75.2929459  33.0410118   9.8508816
  75.9324799  33.5509033  11.1244583  79.6807556   3.5970361  64.4216003
  79.0881805   2.9301147  64.7684402  79.7195282   4.2632289  65.1078339
  66.0375595  21.7545433   3.5872855  65.3750305  21.8321095   2.9007900
  66.7829666  21.3379612   3.1547897  74.5893173  32.5438957  44.1194496
  74.1358261  33.3698387  44.2879601  74.6350327  32.4861298  43.1650887
  35.8575020  20.9702396  79.5363007  35.7871208  20.0164185  79.5750656
  34.9831314  21.2647591  79.2814102  80.2943115   8.6006298  85.3590927
  79.8735962   8.0902586  86.0510101  80.8999863   9.1790009  85.8226471
  13.8247757  35.8961906  41.4928703  13.4510822  36.7724228  41.3990479
  14.0418196  35.8266563  42.4225426  76.7297363   9.9769135  86.7953339
  77.1182251   9.7008505  85.9652100  76.3275223  10.8236446  86.6016846
   5.4499373  34.6617470  17.9377155   5.0047388  34.9674911  18.7280006
   5.0436482  33.8165855  17.7457161  13.0363913  56.5314369  10.0956831
  13.1783752  57.4331741  10.3836737  12.3615990  56.1951027  10.6854010
   4.5944366  39.9753990  59.2982254   3.9381256  39.3570328  59.6193390
   5.4142680  39.6827164  59.6962776   2.3068328  61.3605270  78.3533936
   2.3233738  62.1424179  78.9053040   1.7880455  60.7277260  78.8500366
  18.1828117  69.5857925  45.1238327  17.3509159  70.0509491  45.0354614
  18.7381687  70.1816483  45.6265831  62.2974510  21.6163197  32.1721573
  61.7500000  20.8948364  32.4819832  61.9869156  22.3791580  32.6598854
  52.1850662   8.7745094  72.4243774  51.6167641   8.6088734  73.1765976
  52.0725937   9.7070179  72.2399597  46.1866684  41.2174492  49.8225555
  45.9305611  41.1078491  48.9067879  46.5717010  40.3755875  50.0659752
  62.7165871  24.6398621  37.7050323  63.3473244  24.5950108  38.4236336
  62.6793747  25.5686665  37.4766273  76.4242783  48.2066917  69.4468384
  77.0935898  48.0425644  68.7825165  75.6013489  47.9628830  69.0230713
   5.0042214  17.1826077  19.3607903   5.9437594  17.3369617  19.2624283
   4.5919247  17.9143066  18.9015942   1.3641949  38.8141823  88.8351898
   1.5428584  38.0817223  88.2454376   0.5804825  38.5486183  89.3163376
  67.6590805  20.8040085  84.9314423  67.8454742  20.5868301  85.8448563
  66.8966599  20.2697201  84.7089920   2.5500596  48.1224403  20.5212536
   2.3521450  47.5688057  19.7659054   2.5805020  49.0106621  20.1657696
   2.0516844  20.6118507  33.4546013   2.3759840  21.0811920  34.2232246
   2.2472377  19.6924171  33.6352501  10.4060469  49.6377792   1.9725082
  10.7403784  49.3753395   2.8301673  10.4100742  50.5946732   1.9964353
  69.0521698   3.9954805  26.7885056  68.3225250   4.3029199  26.2506104
  69.0199432   4.5442715  27.5721016  14.9159365  53.6951027  88.4536133
  14.5178118  54.0066719  89.2664185  15.8573055  53.7978134  88.5932770
  61.9371719  56.8211212   4.1710405  62.4784393  57.5581856   4.4538774
  62.5543442  56.2129402   3.7642844  75.5288010  42.6492462  14.9012690
  75.7710037  41.8812637  15.4187374  76.2204056  43.2863770  15.0800924
  39.2090645  55.4314537   2.8807774  38.4430428  55.3970108   3.4537175
  39.0570412  54.7406693   2.2358475  55.4358177   6.3155913  52.1101837
  55.3371162   6.1120296  53.0402641  56.0251732   7.0696054  52.0912590
   9.9112015  53.4123878  61.6607208  10.4606323  54.1894188  61.5578537
   9.2504425  53.6696815  62.3037071  16.0005455  69.7952652  13.9589167
  15.4298143  69.0449753  13.7929020  16.8448124  69.4075928  14.1894779
  82.0951691  61.4980659  87.7313156  82.7349243  61.9149094  87.1540985
  81.2464600  61.7903824  87.3989410  66.7779922  43.0475311  37.2511635
  66.2868576  43.2112961  36.4460564  67.6556625  43.3831902  37.0687981
  84.1382446  30.4178486  59.3889809  84.1929550  30.2843056  58.4427223
  83.2003098  30.4015732  59.5793343  78.3782806  50.1889572  72.8363266
  78.3691330  50.3556862  73.7788467  77.5970306  49.6586494  72.6793137
  80.2167892  57.8995972  22.3307972  80.6190796  57.1273232  21.9333153
  80.5185928  58.6309624  21.7920494  72.8350983  11.2918739  20.5573902
  72.8955078  10.3800325  20.8422165  71.8999710  11.4928818  20.5943050
  63.0103569  56.2180634  52.0940704  62.8445244  55.5687828  51.4105721
  63.9168015  56.4902992  51.9509621  33.2221680  66.0521851  37.0465736
  32.2990112  65.7993698  37.0563278  33.4208717  66.2685928  37.9575729
  82.4437256  66.7763672   7.1243482  82.4697952  65.8451538   7.3443418
  81.5113602  66.9922867   7.1066880  20.6904335  56.2398911  33.9958878
  21.3137970  56.1740341  33.2724838  20.5494099  55.3348083  34.2736816
   2.7524862  70.1714935  64.4041672   2.5020378  70.5912323  63.5811691
   2.1650829  69.4193268  64.4778748  73.5865631  53.7549324  25.3238850
  73.9052277  53.5205879  26.1955338  73.9635010  53.0923882  24.7449360
  10.8455353  42.0530243  27.1398983  10.9446878  41.2361336  27.6288662
  10.4511700  42.6604500  27.7657928  43.4041061  39.9241562  74.7063675
  44.0825005  40.1356926  74.0650711  43.4731979  38.9767838  74.8244553
   8.1409578  30.5845852  54.4906921   7.3824601  31.1553116  54.3674660
   8.8625708  31.1834011  54.6828499  40.1096954  19.7982998  23.5318356
  40.6952782  19.1830750  23.0904465  39.7375183  20.3244534  22.8241100
  83.9690247  28.0186596   3.7848437  84.4330368  27.2864990   3.3788025
  84.1437836  28.7623711   3.2081442  59.6096153  67.9495697  88.1499100
  59.0793648  67.2223053  87.8240967  58.9709015  68.5921021  88.4588318
   8.0071535  33.1163635   6.2896910   7.9310813  33.4527245   5.3967700
   8.5265131  32.3172035   6.2011580   2.9666193  53.0896568   2.2836292
   3.4839141  52.8857307   1.5044932   2.3250268  52.3813400   2.3372927
  59.6800652  34.2782593  31.1760044  59.9509583  34.3775330  30.2633209
  60.1717186  33.5196152  31.4906063  48.1283188  46.3903923  15.3258266
  48.7517967  47.0943527  15.1470852  47.2692032  46.7957153  15.2080870
   0.2197644  65.1758194  73.2238617   0.2922234  65.0237503  74.1661224
  -0.2502182  66.0064850  73.1507568  10.4891348  16.3367443  69.3045654
   9.9878550  15.6922159  69.8040924  11.1485376  15.8203945  68.8410950
  85.6060715  45.8303070  71.5786438  84.8853149  46.0886879  72.1530838
  85.3185501  46.0881462  70.7028122  65.1661301  50.8025055  64.7625046
  66.0076447  50.9433556  65.1963806  64.5161591  50.9287910  65.4537430
  50.3048401  36.9386177  87.2116241  51.1260719  37.1411667  87.6597214
  49.6270180  37.1067772  87.8662338   4.1749811  70.9285507  59.1259766
   3.7125115  71.4576263  58.4760323   4.1034803  70.0316086  58.7994461
  56.7344589  25.1959114  48.3567390  57.6719627  25.3188438  48.5057640
  56.4365959  24.6878357  49.1113052  62.1390648  69.2299118  22.8518620
  62.8129730  68.5506973  22.8245621  61.3126564  68.7495117  22.8019295
  46.6589699  52.5107803  76.5637131  46.3168907  53.3838844  76.7558136
  46.3540802  51.9686623  77.2912979  57.2314949  32.1999054  78.0005875
  57.8505135  32.6821098  77.4523849  57.0485992  32.7902412  78.7315369
  83.4456635   2.5041182  10.7991819  83.1796951   3.3177953  11.2274590
  82.7022552   1.9140524  10.9232540  70.4276962  20.9811897   3.8088560
  71.2150269  21.3143406   4.2393918  70.1099777  20.2912140   4.3912802
   1.4680122  34.8432617  67.2464828   1.8619294  34.4329834  68.0163727
   0.7629713  34.2478905  66.9921570   6.9552865  17.6695118  10.9556475
   6.8674340  18.1252384  10.1184940   6.2160902  17.9821396  11.4772654
   5.4257870  47.9964027  32.4691925   5.9364800  48.7954750  32.5992241
   6.0665684  47.3471642  32.1791573  26.5113239  58.4814568  56.4562607
  26.5735397  58.7817421  55.5495148  27.2105217  58.9499245  56.9122162
  33.3434029  66.5169296  12.8211899  32.8030586  67.1894531  12.4064951
  34.2086143  66.6282349  12.4271669  28.6735611  69.2783203  76.8758011
  29.2536049  69.6556702  77.5371552  28.5450268  69.9823761  76.2401733
  75.2600098  69.3162384  46.5669899  75.9019623  68.6344910  46.3686256
  74.4557877  68.8371201  46.7667580  16.8168812  66.7733078  39.2419472
  16.4444733  66.6492615  38.3689308  17.7402554  66.9690170  39.0828590
  84.6065826  51.8424721  22.8933105  83.8746033  51.6732063  23.4864292
  85.3827591  51.7966309  23.4515915  85.6032562  15.6395025  76.5241470
  85.7474442  16.5802155  76.4216766  84.7540588  15.4810419  76.1118469
  32.5452042  43.5002213  63.4089088  33.1213875  43.2775421  64.1401138
  33.0306168  43.2282524  62.6300392  64.7288513  50.0014610  49.2336693
  65.1910324  49.8387070  50.0559425  64.2109909  49.2095184  49.0891800
  48.7117195  42.5045319  47.9539604  48.2123413  42.4658585  47.1382637
  48.4839058  41.6959648  48.4128227  29.2903900  27.7748203  14.7676420
  28.8830128  27.1107845  14.2114677  29.2273731  28.5838909  14.2600327
   1.6232665  19.3036404  76.4282837   0.9160708  19.9446869  76.3564224
   1.5676079  18.9856186  77.3293915  53.8721199  60.6359901  85.8783112
  53.6632118  59.8196259  86.3323364  53.1618767  60.7470741  85.2462921
  36.8141441  57.6662598  51.9029999  37.3838196  57.9396667  51.1840019
  35.9269333  57.7808609  51.5624847  72.0396805   6.4157009  11.3462372
  71.9764862   6.3563032  12.2994995  71.9138107   7.3451819  11.1553078
  69.4219284  28.2769814  72.0891647  70.0673141  27.5953484  71.9018478
  69.5358505  28.4651756  73.0207443  23.2486382  33.4537544  78.7766037
  23.9308376  33.0125885  79.2827682  22.7333889  33.9265709  79.4301987
  71.6731110  30.6917915  26.0897064  71.3044052  30.4100571  25.2525024
  72.1311874  29.9196415  26.4216537   6.9198599  17.8700104  60.5570221
   6.5735483  18.5187645  59.9443092   6.8679185  17.0404854  60.0822334
  59.1164780   3.6464570   7.7492943  59.7155609   4.3753691   7.5879979
  59.6869850   2.8833613   7.8411412  56.1805077  34.3395042   1.9622799
  56.4054184  33.4854584   1.5931516  55.4211845  34.6270752   1.4553638
  70.2757645   4.8124776  39.0812111  70.5163345   5.3090014  38.2990189
  70.2629013   5.4629807  39.7832870  48.5395813  41.5330887  31.3528175
  49.4004478  41.3365860  31.7223110  48.2385445  42.2993050  31.8412037
  65.9497681  33.1111794  14.1492357  66.8268738  33.4943619  14.1590338
  65.6194000  33.2463722  15.0373859  68.4499054  62.8948250  84.3719406
  67.5482178  62.7497711  84.0853119  68.7777176  63.5825729  83.7924805
  44.9469643  28.0577755  87.7378159  44.1789246  27.7086906  88.1900177
  44.5984077  28.4351273  86.9301376  74.1957626  48.2220268  41.4952621
  73.3407745  48.4725723  41.1453323  74.2393951  48.6500816  42.3503036
  58.3794060  37.9443092   4.4573054  58.3006821  38.3473015   5.3219628
  57.7001648  37.2699966   4.4445934  70.5758209  37.1483650  35.6444931
  70.2599792  36.8603363  34.7880363  69.8010635  37.1239929  36.2060852
  36.6094208  49.6514244  40.9433098  37.1033554  50.0505791  41.6595039
  36.6947021  48.7092972  41.0894585  40.6183701   4.6609292  69.2331314
  40.0318146   3.9652402  68.9361496  40.2042236   5.4689770  68.9301910
  12.2004747  40.5020638  63.9477310  12.1072626  39.7013245  63.4316254
  12.9153080  40.9777946  63.5247383  75.8052216  14.0677252  32.7870216
  75.1669998  13.4087448  32.5137939  75.9045334  13.9289303  33.7288818
  62.4837608   7.9137688  81.0716629  63.3871155   8.1687431  80.8841171
  62.2843933   8.3356886  81.9074020  49.0102386  33.7138786  32.0395241
  49.4175720  34.2024231  32.7548141  48.2115631  34.2023582  31.8401947
  38.7389374  11.7344389  14.8603420  39.1173401  10.8794270  14.6554060
  39.2528419  12.0520554  15.6028061   2.0531733  14.0613794  80.4040985
   1.8591439  14.9982824  80.3758698   2.6422434  13.9163675  79.6636887
   3.0033638  44.6375694  17.8319416   3.7565377  44.8739700  18.3733063
   2.3660481  45.3337936  17.9910965  77.4199753   2.9718740  20.3274555
  77.4578323   2.4438303  21.1249313  77.6691513   2.3676953  19.6280899
  81.1513367  15.3427153  56.4270325  80.4655838  15.1431189  55.7897491
  80.7181549  15.8910570  57.0811768  75.8109360  64.2173157  51.9212418
  76.4230423  63.6577911  52.3992500  75.1935196  64.5203552  52.5869713
  80.9008179   9.5597715  60.2539406  81.4430771  10.1588840  59.7408600
  80.5743103  10.0931959  60.9785690  81.1205215   2.7685828  88.5958939
  80.4941406   2.3054152  89.1520920  81.6685791   2.0769904  88.2249985
   4.6579199  64.9701767  68.9130783   4.6397872  64.2264633  69.5154037
   5.2891479  64.7174149  68.2393570   0.7115707  27.3675728  78.4925156
  -0.1957394  27.6634674  78.5664444   0.7097539  26.7750282  77.7407684
  65.7181625  44.4055328  83.7961044  65.5075989  45.1285667  84.3869629
  66.1316299  43.7499046  84.3577271  57.4790001  48.9972191  77.0741501
  56.8343773  48.5241890  77.6004028  56.9792023  49.6989899  76.6570816
  31.6287251  60.9864044  51.4367828  32.5813599  60.9015961  51.4758415
  31.4308605  61.7295837  52.0066643  23.8232727   4.6700811  81.5522232
  23.3204517   5.4199204  81.8702545  23.9368687   4.8373313  80.6166229
  16.1073151  48.0563164  12.7713213  16.2370625  49.0040398  12.7364197
  15.4260340  47.9320145  13.4321070  27.6053257  54.0441551  17.4546719
  28.5137691  54.2222633  17.2112846  27.3884373  54.7284546  18.0878601
  50.8139763  31.2393265   1.1561394  51.7192879  31.2906895   0.8495420
  50.4540787  32.1100273   0.9870653  65.2824249  70.5614853   9.5667372
  64.9690475  71.3587265   9.9938583  64.7124481  70.4581146   8.8047218
  42.0760765  29.6769123  13.1741943  43.0217934  29.6413403  13.3176823
  41.7907257  28.7650051  13.2310648  40.4643936   1.5781087  12.1226912
  41.1051826   1.2091804  12.7305689  39.6353493   1.1693859  12.3714104
  38.7346878   4.9518456  62.6497498  37.9999733   5.1410346  63.2333870
  39.5121689   5.0922012  63.1901741   8.2331438  54.3601532  29.2217903
   8.8809223  53.8553543  28.7300644   7.9799962  53.7856293  29.9443359
  53.4119377  44.9333763  70.9009781  52.6483765  44.4431000  71.2056656
  53.8338394  44.3512115  70.2690659  17.0967636  12.8945723   7.8577332
  17.0744648  12.3549080   7.0674820  17.7513046  12.4748669   8.4159946
  25.3833046  44.1162796  65.6072159  24.7924194  44.5337601  64.9804840
  25.4412231  44.7381020  66.3326187  84.8648682  52.6410942  58.4921837
  85.0120468  51.6990280  58.5763245  84.2124710  52.7203712  57.7962494
  37.8170776  31.5711231  78.3202820  37.4732399  30.8062077  78.7817001
  38.5302849  31.8854485  78.8759537  85.4819260   9.7422905   5.4145026
  86.1824875   9.1140862   5.2389874  85.1404419   9.9681597   4.5492826
  42.0715637  49.3603745  34.0953331  42.0701828  48.4065857  34.0146027
  41.9958649  49.5212402  35.0358772  80.6207581  64.6404572  19.6719685
  79.8126678  64.2529678  19.3357201  81.0746841  64.9615784  18.8928223
  29.9110527  63.6217842  31.4649830  30.2289162  62.7437592  31.6753712
  29.8502274  63.6319923  30.5097713  69.3315964  32.0778732  63.1623993
  68.5060654  31.9715595  62.6897049  70.0039825  31.8238659  62.5302544
   5.1425195  60.2535667  21.6541748   4.4353747  60.7105789  21.1988544
   5.5699825  59.7345695  20.9728889  78.3662949  54.9688110  41.9812393
  78.1155548  55.6280098  41.3340759  78.3302689  54.1394615  41.5046806
  50.4437103  69.2830582  36.3160973  51.2763710  69.7550125  36.3033791
  50.6915855  68.3590927  36.2832222  76.6617126  61.8615913  52.8231468
  77.3640366  61.4565048  53.3319397  76.3818665  61.1778831  52.2144890
  49.2912674  36.4521904  46.2985497  50.0946846  36.0497131  45.9687538
  49.0415993  37.0794525  45.6199951   0.1416139  32.8324165  10.0717630
   0.1413036  32.4099197   9.2128534  -0.1138902  33.7375107   9.8935604
  26.4390373  45.6396942  25.5289383  26.6890659  44.7257271  25.3933525
  26.9587593  45.9210091  26.2819214  80.6794662  38.9773788   5.0396547
  80.6714325  39.9299316   4.9458055  79.7646942  38.7180977   4.9291596
  78.1035385  32.3021736  36.7261086  78.0331497  32.1166725  35.7896996
  77.8589096  33.2240677  36.8067017   8.7876530  18.2395287  12.9234915
   9.6039524  18.0484276  12.4615746   8.1292095  18.2996502  12.2313423
  17.1515923  44.1673775   6.4519825  17.3858624  44.6862450   7.2214794
  16.1944084  44.1645660   6.4473548  74.0227127  43.9017792  45.9985580
  74.2677536  43.1752586  46.5715790  73.8719025  43.4939156  45.1458359
   9.2572641  68.4931793  87.7337189  10.2097111  68.4118805  87.6840515
   8.9385662  67.5907822  87.7152939  86.4725571  14.7368975  12.7097301
  86.8162079  14.3516388  11.9036827  86.2372360  13.9849300  13.2532377
  68.1133575  20.1646481   8.0542240  68.1072006  19.4697571   8.7124929
  67.2287674  20.5292511   8.0825586  60.5206108  12.8383245  39.0454979
  61.0430679  12.9763727  38.2554283  59.6487846  12.6142530  38.7200089
  46.0381927  31.5436726  10.9703608  45.7160416  31.9522858  10.1669397
  46.6932831  30.9126854  10.6721287  56.0533409  38.9081764  82.1328735
  55.7333717  38.0652924  82.4544373  56.6398201  39.2204094  82.8219223
  22.6053944  41.1711922  64.9492798  22.8339806  41.6151543  64.1326523
  21.7055435  40.8732338  64.8161469  84.2040176  60.6849709  80.5537415
  84.3570862  60.0220299  81.2270279  85.0800018  60.9775047  80.3021164
  36.8331032  47.8263206  67.1786804  36.2129745  47.2826462  67.6645737
  36.4491501  47.9055328  66.3054504  28.6964226  29.8200741   3.3839917
  29.2940044  29.8067913   4.1316228  28.9845886  30.5676899   2.8602927
  86.2060852   7.8354883  22.4632206  86.1835022   8.5995741  23.0393238
  86.8593445   8.0554943  21.7990818  49.0951385  70.3847275   6.6115413
  48.8370628  69.5009842   6.8735204  48.9157028  70.4179993   5.6718993
  76.2233200  29.0794907  38.1477051  77.1703949  29.0725670  38.2863808
  75.8590775  29.3361187  38.9948769  68.6721802  52.9420280  54.3640404
  68.3467102  53.3547363  55.1640244  69.6246796  53.0103226  54.4297447
  60.2714996  22.0772495  81.4945145  60.2747536  22.3286362  82.4181061
  59.7888947  22.7786579  81.0570755  63.2766037  46.4218102  14.3906908
  62.5754776  46.8416786  14.8890572  63.0312843  46.5532150  13.4748392
  23.7084579   1.2186942  29.2320194  24.1507053   1.5720456  28.4601421
  24.2342339   0.4590689  29.4825382  21.0121059  59.9982605   9.7175465
  20.8504333  59.0586777   9.6322384  20.8956699  60.3426895   8.8320856
  64.0286713   5.7380033  69.9766922  64.1044312   6.5926619  69.5523682
  63.0890503   5.6237903  70.1191864   8.7467260  26.0380077  83.3089294
   9.4006834  26.7094536  83.5031738   9.1471367  25.5053806  82.6217499
  60.6513252  28.0966244  67.1501923  61.5859680  28.2723198  67.2588501
  60.4849052  28.2520008  66.2204666  78.9823761  17.6275597  81.5717697
  78.2349014  17.7637730  82.1539688  78.9014740  16.7172565  81.2870941
  59.1271057  24.1361980  31.3526974  59.6032333  24.8962574  31.0182629
  59.0787125  24.2806854  32.2976913  53.6623573  40.7725410  83.8866959
  52.7934227  40.9572029  84.2431793  53.9667587  40.0108871  84.3801041
  25.2688389  51.2609177  71.9582672  25.5177078  51.1012192  71.0478897
  24.3641968  51.5697632  71.9086227  71.5384674  18.4040852  80.1881104
  72.3744431  18.0085411  79.9412994  71.1082001  17.7390099  80.7254944
  68.3708725  37.4416008  14.0232735  68.3593216  38.3967323  13.9614515
  67.9073334  37.1452675  13.2399797  17.4868450   0.3968712  48.4615211
  17.2464752   0.7757853  47.6160164  17.0563221  -0.4579809  48.4719620
  47.5191498  47.1362801  30.3569298  48.4263725  47.3517838  30.1407280
  47.2404022  46.5446854  29.6579704  78.1474609  48.7766953  84.1424713
  77.5234375  48.2761726  83.6168289  78.1280899  49.6558762  83.7644577
  27.0758438  64.9065933  58.8894043  27.4738693  64.9836502  59.7565079
  27.8043194  65.0257797  58.2800217  14.1658964  42.8464622  66.4157486
  13.4785452  43.1287575  65.8123474  14.9816256  43.0053101  65.9407883
  76.9292526  35.4750023  14.5114489  76.2647476  35.1683693  15.1284094
  76.4297485  35.7863655  13.7566080  71.0798340  36.4370041  13.4747057
  71.3971710  35.5475121  13.6306944  70.2020645  36.4485130  13.8563137
  59.3744698  57.4923058  43.0154457  58.7272415  56.7934265  42.9211464
  60.2101250  57.0342865  43.1056366  79.7568817  65.5115814  27.5716114
  78.9604416  65.0749054  27.8736458  80.4548111  65.1338730  28.1068363
  34.2201195  10.4440060  87.7715836  34.7908173  10.3219900  88.5303040
  33.5153542   9.8086176  87.8973541  49.8632622  59.3720436  87.6909027
  50.6427155  59.6571884  88.1677399  49.3313980  60.1633682  87.6063080
  22.2569313  28.2351551  13.6271801  22.7920971  27.5283165  13.2663355
  21.9640179  28.7287788  12.8611727  59.9915009  33.2359810  60.3488808
  59.1876106  33.6189156  59.9976654  60.6785088  33.5316277  59.7515182
  62.4296989  45.6509056  67.4021225  61.7236252  45.1627197  66.9785995
  62.2894592  45.5109291  68.3385925  44.5922470   4.7682118  68.3657074
  44.7893753   5.1250019  67.4996338  43.8425674   4.1906953  68.2218704
  39.8755150  62.5424767   8.7542496  39.7052345  61.6511612   8.4496288
  40.0481377  63.0399132   7.9548802  76.0353165   8.3726702  78.2805176
  76.3781281   7.6622705  77.7382660  76.7989883   8.9164648  78.4736938
  49.8399239  51.9307175  83.2284241  48.9942780  51.7905388  82.8024368
  49.9564133  52.8807831  83.2227325  44.3271523  69.2531433  47.2486382
  44.0394554  70.0831223  47.6288948  43.5472679  68.6984406  47.2664223
  70.4242706  55.3329849  43.9403572  70.0308990  54.6267815  44.4529648
  71.1428604  54.9137306  43.4669724  13.8614769  13.1398849  27.6378002
  14.1164980  12.5730877  26.9098320  14.1583290  12.6739702  28.4194870
  31.8870907   2.0729916  36.4619522  32.0734825   1.1347502  36.4274216
  31.2473221   2.2159128  35.7644539  50.5068207   8.4947987  74.4616241
  50.2876778   8.0762253  75.2940979  50.0197792   9.3187580  74.4723129
  31.3776226  37.0424309  82.9140091  30.5401669  37.1680679  83.3602295
  31.9728050  36.7433891  83.6014404  19.1227169  47.9836082  69.4660110
  18.9720573  48.0500717  68.5230865  18.6273766  48.7124748  69.8396683
  31.4144440  57.9563026  68.6855316  31.9872341  58.6173286  69.0743637
  30.8917408  57.6312218  69.4185715  56.4249306  55.4633865  35.9919395
  57.2397041  55.7161331  36.4260979  56.2503891  54.5767479  36.3075943
  56.9351120  57.2592087  58.8728867  56.0395584  57.5688553  58.7374725
  57.4858818  57.9537659  58.5116768   1.4357128   7.6422434  77.6606369
   1.7372206   7.4235821  78.5424042   1.6902385   8.5571260  77.5404816
  82.6804352  52.0620422  18.2175694  83.0948029  52.2402687  19.0618229
  82.5445251  52.9267311  17.8301792  82.1264420   4.5444150  67.7853012
  82.6660614   4.8639073  67.0621338  81.9825058   5.3145785  68.3351822
  20.6072960  22.0961208  28.7518673  20.9770355  21.2199497  28.6430149
  20.9526749  22.5954666  28.0118694  65.4254150  19.3269463  21.8199444
  64.7701492  20.0074501  21.9741402  66.2540359  19.8020573  21.7576218
  35.9364586  34.4717789  10.0710535  36.2614670  35.3646011   9.9549932
  36.1607323  34.2508621  10.9750051  62.3225174  29.9531288  49.6692009
  62.2209930  30.8882389  49.4917336  63.0363846  29.9061527  50.3051376
  21.3223896  19.9451599  25.1003876  22.1315765  20.2892132  24.7221336
  20.7376251  20.7017365  25.1436901  65.9061813  45.7730103  81.1977997
  66.0729599  45.2711754  81.9956589  65.7279205  45.1100693  80.5307465
   1.6754507   9.3177118  10.3993425   1.2534794  10.1732588  10.4781580
   0.9566403   8.6891041  10.4656420  73.4478302  38.5073166  20.1844959
  73.6328735  39.0113754  19.3920879  74.1808090  38.7016716  20.7686176
  15.9336414  62.4912758  45.5744629  15.8855705  62.1085014  46.4504776
  15.6450396  61.7899284  44.9904633  60.5518875  48.9258194  36.1973763
  60.0102959  48.3884964  35.6192818  60.6737747  48.3879318  36.9797173
  19.5269260  57.4053192  46.0637169  20.0574131  56.6270866  45.8929176
  19.1453037  57.2501488  46.9277306   8.9030228   1.4921042  65.1272507
   8.3990383   0.7149832  64.8857651   8.2701178   2.2092221  65.0897675
  83.5657425  49.6697273  63.7551613  82.7428055  49.8204956  63.2900963
  84.0540848  50.4860649  63.6486473  52.5008812  40.8838768   5.4434500
  52.8373947  41.5844154   6.0022297  52.3520203  40.1512833   6.0412607
  48.6111717  15.8484516  23.0708389  49.3421555  15.6744976  23.6638260
  47.9185867  15.2564831  23.3643208  19.7922859  56.7899513  61.2609215
  19.1124382  56.2210426  60.8998375  20.6088829  56.4482689  60.8967018
  74.0867615  67.1903000  67.9190063  74.7180023  66.6973572  67.3948135
  74.5414505  67.3603973  68.7439651  35.4036598  54.4886055  86.9677048
  35.7747421  54.2985039  86.1060867  36.0576439  54.1644707  87.5869598
   2.8179774  32.3439064  58.8467789   1.8710015  32.3381348  58.7073708
   3.1889238  32.4255409  57.9681625  74.4735413  44.0282784  52.6908569
  75.3587418  43.8136597  52.3965912  74.1915894  44.7330780  52.1077652
  80.3612595   6.1378841   2.9522977  81.0596619   6.7470856   3.1917639
  80.8089981   5.3036990   2.8112488  18.2716064  40.5105324  80.1132355
  18.1614532  40.8408737  79.2216263  18.5166054  39.5921898  79.9998550
  10.0599823  71.1083221  28.8216610  10.8732042  70.6717148  29.0751839
  10.2395716  72.0402374  28.9462109  40.6060905  48.7669792  85.9981079
  40.5157967  49.4376526  86.6750717  40.2289658  47.9791412  86.3896713
  31.4218407  61.5291634  16.2729931  32.2361984  61.0262337  16.2622337
  31.6816692  62.4114075  16.0077343  31.2961292  71.1854630   4.6656446
  31.7980709  70.4482193   5.0131445  31.9121838  71.9180527   4.6702905
   6.4393449  53.3394127  38.0626984   6.1477890  54.0651131  37.5108070
   6.0164638  52.5674896  37.6864853  72.1731186  14.3072853  18.9025402
  72.9824219  14.2964249  18.3915138  72.4487915  14.0873899  19.7924175
   6.4837379   0.7162963  63.7915649   5.9059582   0.2869751  63.1606216
   7.1296353   1.1730509  63.2526550  84.3135223   1.8719523  70.2142410
  84.8002930   2.2241945  70.9593658  83.4661331   2.3156316  70.2503967
  49.4783363  64.2124557   6.1311889  49.4110832  63.3736572   5.6749725
  50.0303841  64.7502594   5.5635295  36.1303558  43.8662376  10.6175547
  35.3194122  43.7920456  10.1144705  35.8869438  43.6016159  11.5046606
  84.5225906  21.2746811  57.3116341  84.8985672  21.7368317  58.0608253
  84.8241653  20.3717117  57.4112892  43.9428215  56.4011421  52.6411247
  43.1482277  55.8879776  52.4944649  43.9279556  57.0673103  51.9539337
  11.5764236   2.9070556  58.2056046  12.2263298   3.5913064  58.3657722
  10.8240891   3.3722146  57.8397484  66.8270874  58.4494133  32.3495827
  66.7709732  58.9323578  31.5250549  66.8590317  57.5295753  32.0866928
   1.4318291  52.0607605  51.2456169   1.2163312  51.2722359  50.7476006
   1.9971468  52.5660210  50.6613579  22.6935101  47.1464272  17.4811993
  23.3918724  46.6351738  17.0723743  22.1670341  46.4998207  17.9512558
  70.8073807  61.1843033  64.5119858  71.2468262  60.4708977  64.0492020
  70.2254486  60.7449341  65.1321030  33.6479721  16.1548958  75.7858047
  32.7877884  16.4647522  75.5024261  34.2363548  16.3932076  75.0693970
  70.2687225  64.6964111   6.4355044  70.0643234  63.7613144   6.4284568
  70.3393555  64.9331131   5.5107265  75.9324951   2.2557302  44.7827530
  75.2720261   2.6497476  44.2128754  75.5672607   1.4030135  45.0187759
  45.6911583  13.9232168   3.4113061  45.6800919  14.4479122   4.2118082
  44.8398399  14.0872526   3.0056207  52.9322205  65.4254303  46.7491074
  53.5028267  66.0772247  47.1562958  52.0460701  65.7519073  46.9052696
  16.5492153  15.7561512  75.6939087  16.2755909  16.6585140  75.8585434
  15.7814884  15.2289476  75.9150009   2.3729186  48.2892761  75.0156479
   1.7102785  47.9362259  74.4219360   2.5219133  47.5895538  75.6515884
  67.5042419  40.5320015  53.6293678  67.2677612  40.0816002  54.4401970
  68.2328873  40.0218468  53.2757530  11.0611563  37.8674126  77.3435745
  11.3824892  38.4980812  77.9879608  11.7574568  37.8183365  76.6886063
  60.3315887   8.8821154  13.7854185  59.5014496   8.9538364  13.3142967
  60.8950462   9.5408802  13.3794928  74.0223465  23.0243397  76.2018356
  74.9520493  23.2067719  76.3382187  73.7191696  22.6835690  77.0433731
  28.4280186  66.1238480  32.9263420  29.0225487  66.2449036  33.6666870
  28.6371460  65.2519226  32.5913086  37.5789871   3.0654011  23.6447353
  37.2806435   3.9599476  23.8090782  37.7069626   3.0259190  22.6969509
  16.8360977  64.1398392  28.4530792  17.4627991  63.4802322  28.1557732
  16.8925591  64.1105728  29.4081631  65.8455734  33.9361000  81.2310028
  66.5936508  33.8428345  81.8208389  65.1220398  33.5126648  81.6930008
  47.5924110  24.6801395  75.2623749  47.4726181  25.0791073  74.4005737
  47.0973396  23.8620853  75.2184982  19.8617611  30.3095627   1.7614322
  19.4520817  29.6914501   2.3666832  19.6929798  29.9425926   0.8936320
  49.9640617  60.1735954  77.7162094  50.4619904  59.5391884  78.2317963
  49.6144676  59.6656075  76.9841156  29.5011616  56.6043129  16.5125713
  30.1632710  57.0726624  16.0041523  28.7438068  57.1896553  16.5164204
  67.0718307   8.9369612  39.2157440  67.7432709   8.3774805  39.6061058
  67.5236282   9.7605104  39.0316772  46.4997749  21.5857677  44.6877022
  47.1600990  22.1968174  44.3608589  45.6923599  22.0990200  44.7174683
  20.8052921  59.4357185  42.0385284  20.3876152  59.8190460  42.8097878
  21.4059105  60.1139297  41.7294617  83.1627884  68.6700211  57.1602707
  82.5807877  68.1811676  56.5784378  82.6317444  68.8471069  57.9367142
  46.4242249   8.5788069  85.5045242  47.3383369   8.8540230  85.5744553
  46.0175972   8.8909674  86.3128815  30.2540092  67.2807159   7.6416349
  30.2795868  68.2374420   7.6256304  30.5896511  67.0465927   8.5069447
  10.2312679  26.0432549  64.8692017  11.1140480  26.3450584  65.0833206
   9.6579399  26.7498398  65.1662979  84.7368393  32.9521751  78.8564835
  84.2171173  32.9271240  79.6599045  84.2779236  33.5758095  78.2937088
  76.1337051  49.1966820  71.9530487  75.4695435  49.8768349  72.0649185
  76.0718460  48.9510269  71.0299835  73.8306808  56.0368195  30.3547592
  74.6119308  55.5088921  30.1899319  73.1224213  55.3979340  30.4349804
  46.7801857   2.3346868  44.9829788  46.1366234   1.7539406  44.5770264
  47.5359383   2.3019412  44.3964653  60.7417870  69.9263000  36.7884445
  61.5724602  70.3569794  36.9902573  60.7240524  69.8760223  35.8327293
  60.5486641  33.3797798  72.3149109  61.3443298  33.5031624  72.8325272
  59.8644600  33.2135696  72.9633560  50.0098953  26.5136623  15.6684380
  49.1270828  26.1526337  15.7492476  49.9189987  27.4296932  15.9308414
  76.4738388  47.7197723  10.1718950  76.6989822  48.4381180   9.5806856
  75.5348358  47.8223495  10.3267307  54.1642609  54.1591759  29.8280182
  54.7634621  54.8930779  29.6917095  54.2397842  53.9583893  30.7608700
  42.4621048  20.7482586  16.7458687  43.1069031  20.1698761  17.1532269
  42.0774155  21.2310200  17.4774342  46.3928757  68.0670395  83.5201797
  46.1020966  67.9803162  82.6123505  45.8657761  68.7838821  83.8730698
  51.9770317  53.6639061  23.5843582  52.1584549  53.7628937  22.6497345
  51.0261078  53.5667877  23.6347828  20.9011631  28.5273952  36.0839577
  21.7422638  28.8026485  36.4486732  20.4016209  29.3390293  35.9948463
   1.1397005  67.7502213  75.8600464   0.9938986  67.5354004  76.7813644
   0.3088433  68.1244049  75.5669708  60.6684036  49.9679794  72.0256805
  60.4046135  50.8879738  72.0097885  61.2927666  49.9102974  72.7489243
  44.2105484  49.7971153  87.4863205  45.0741692  49.4263268  87.6677322
  43.8533401  49.2436485  86.7918396  49.2102890   4.7905879  30.3336697
  48.8761597   5.0543456  29.4763355  48.9429359   3.8759205  30.4238796
  54.5051117  16.3782578  72.8345947  53.6037407  16.1312428  73.0413361
  54.5111885  16.4884014  71.8837738   5.0815988  45.8958435  34.1663513
   5.8817611  45.6748238  33.6897774   4.8493195  46.7696648  33.8521614
  66.6161041  43.1635056   7.2618918  65.7384567  43.0880089   6.8873553
  66.4907227  43.6668663   8.0663433  55.9965591   4.7286134  31.2428741
  55.4082680   4.8362966  31.9902363  56.8345070   4.4780159  31.6318188
  82.8128586  36.4804344  10.3974447  82.2144470  35.8782883  10.8396578
  82.8527527  37.2442169  10.9730110  67.4115295  57.4516640  86.2944946
  67.6530685  58.3129845  85.9538803  67.3146210  57.5855064  87.2373199
  44.8006783  55.7823410  29.7401505  44.4527855  55.0263023  30.2130241
  45.2723045  56.2843056  30.4048557  24.2649918  41.9368477  67.0145264
  23.6783199  41.5035286  66.3946152  24.8720684  42.4314995  66.4640656
  38.3876534  69.5756454   7.7843776  38.3769455  69.6035461   8.7411108
  39.2789230  69.8318558   7.5472527  32.8836594  65.8732605  87.9884186
  33.7481956  65.5044861  87.8072586  32.3955002  65.1538162  88.3888245
  65.7869949  38.5133858  23.2967834  66.0145264  39.4425964  23.2647495
  65.1234741  38.4528313  23.9840279  26.1527843  49.0615273  26.5037651
  25.7085705  49.4905472  27.2350941  26.3111992  49.7647362  25.8739758
  35.3232269  36.8569565   5.7866178  35.3384285  37.7654419   6.0877013
  35.4301376  36.9174194   4.8373303  17.4390392  13.0130157  13.9030151
  16.7830238  13.2303076  14.5653286  17.6384487  13.8483562  13.4803181
  70.0217514  52.4499435  12.7753468  69.7044373  51.6996307  12.2727823
  69.8830948  52.2019043  13.6893940  43.1703720  18.6259556  74.4016495
  43.7006645  19.2572117  73.9152985  42.2686691  18.8277245  74.1517563
  57.0122299  21.0319061  49.8338509  56.3628426  21.7351322  49.8327599
  57.0061340  20.7016563  50.7322578  47.1733513  47.4464722  65.8235474
  47.3422699  46.8265190  65.1140671  46.2870522  47.2373161  66.1184311
  80.6205978  60.7468071   8.8905830  80.3078766  61.4489136   9.4610939
  81.2381897  61.1763077   8.2986851  45.3177872   3.1862907  47.2409821
  45.8798256   2.8898456  46.5251160  45.4634323   4.1313562  47.2842293
  23.9281769  55.2078629  26.4754581  23.5347824  56.0541382  26.2626419
  24.7776642  55.2209587  26.0345154  84.2475128  28.0643768  36.4211349
  84.2820282  28.1325207  37.3752823  83.3859253  27.6893463  36.2388039
  62.6946449  27.3144646  55.7602158  62.1323776  27.9359875  56.2225952
  62.1138306  26.8898335  55.1288872  53.1987991  40.9832268  38.3114052
  53.3364296  41.9031029  38.5374908  52.8181190  41.0067291  37.4334755
  58.8819466  30.8667355  87.8758850  58.1339798  30.3381481  87.5977249
  58.8639679  31.6298351  87.2983093   4.9106517  10.3787680  55.9596443
   5.0377121  11.2610245  55.6107750   3.9603219  10.2706041  55.9971466
  21.5822773  32.8786430  10.5104456  22.2090778  33.5934258  10.3989191
  22.0149460  32.1179771  10.1226091  60.5705338  67.2463989  10.6686268
  59.9378777  67.9620895  10.6073503  61.1971626  67.4198380   9.9661407
  25.4092636  20.8756046   3.4098406  25.6836262  21.7699451   3.2070758
  26.2154694  20.4315052   3.6725910  38.0828400  12.5949211  84.2947617
  38.7580605  13.2733126  84.2849808  37.4777107  12.8492308  83.5980759
  18.9107704  57.0910683  75.5004883  19.1332130  57.0331497  74.5712967
  19.2637539  56.2871933  75.8818283   1.3274804  20.2505970  54.2824783
   2.1437507  20.4823189  54.7254677   1.0414203  19.4451561  54.7133636
  59.0928040  48.2516098  67.7140503  58.9222641  48.1488037  68.6503143
  59.0111389  47.3671799  67.3572006  80.8012161  20.7043285  60.7085609
  80.5799408  21.3816929  61.3476639  80.9510803  19.9186764  61.2344131
  43.7174034   9.7356796   3.9998605  44.3325386  10.0219345   3.3246584
  44.2484283   9.6646595   4.7930808  32.4716606  46.3899269  17.6612415
  32.1433716  47.0759850  18.2424335  33.4213448  46.5096588  17.6618748
  16.5142937  46.3909721   8.1631260  16.7872524  47.1399422   8.6930056
  16.2463150  46.7736130   7.3276582  12.3181095  67.9649200  38.4467163
  12.8817005  67.4819565  37.8422775  11.5976553  68.2811432  37.9015732
  63.9654999   9.1214657  15.6535606  63.4097214   8.4575872  15.2453842
  63.3611603   9.8222609  15.8982944  78.3996658  45.3265915   9.6043968
  79.1594009  45.4040947   9.0273142  77.6808929  45.7179260   9.1079550
  28.8388424  37.6666336  83.6782532  28.6839085  36.7263489  83.7682037
  28.3341160  37.9196777  82.9053040  34.0265083  18.2903404  10.5315952
  34.3024025  18.4800453   9.6348639  33.1783829  18.7255192  10.6183805
  50.7155151  49.3767700   9.0185013  51.1464958  49.7667999   8.2579994
  49.8868027  49.0401459   8.6776867  33.6224136  61.0761528  55.3912163
  33.6747627  61.8447075  55.9593887  34.4852676  60.6676483  55.4607887
  54.4465446  22.7200413  84.9821014  55.2084198  22.1409664  84.9608917
  54.6603279  23.3728046  85.6487503   6.9085636  55.5558395  17.2826939
   7.4379978  56.1445389  17.8206196   6.4757490  56.1316414  16.6523323
   2.5507698  53.7264366  84.0085831   1.9473549  53.5918159  83.2778320
   3.2313280  54.2991028  83.6548462   9.8734674  42.8466110  55.4118500
   8.9679470  42.6111336  55.6138725   9.8896465  43.8022804  55.4634781
   1.2787389  31.6642265  81.8092194   0.8977039  31.8789215  80.9577789
   2.2183948  31.5948925  81.6404877  73.8420105  19.4128380  39.3124237
  73.9027328  20.1052227  39.9705620  74.0283661  18.6071587  39.7944832
  25.6191349   9.4604692  71.9706955  25.5147552  10.3921328  71.7774582
  25.5667572   9.4064445  72.9249344  68.9499588  44.4565277  13.0802364
  68.9170532  43.9704819  13.9041939  68.0583725  44.7830353  12.9589853
  63.9224968  48.4847488  77.2588272  63.8972435  48.2309723  76.3362198
  63.9513741  47.6547928  77.7348175  25.6618099  22.4916248   7.5693092
  25.5398598  21.5617237   7.3778863  26.3191948  22.7821007   6.9370899
  25.3071537  17.4279461  83.7624664  25.0131321  17.4381161  84.6733322
  26.0953579  16.8849087  83.7712631  80.4151688  41.0086174  44.8112297
  79.5580597  40.9237251  44.3936157  80.3755951  40.4160156  45.5618896
  85.1335068  14.0463715  29.6055584  85.9738312  13.5946407  29.5279827
  85.3174744  14.7997675  30.1666126   4.2891078  19.5845718  52.4327278
   4.9163795  19.2748528  51.7793999   4.7784781  20.2239170  52.9504013
  78.0118484  59.2464523  77.6041031  77.5079117  58.6113396  78.1129379
  77.6651917  59.1702766  76.7151413   6.8762360  19.7233315  62.7233429
   7.0478067  19.0677395  62.0473289   5.9468765  19.6192665  62.9275322
  70.4774246  54.3340645   2.1140041  70.0262299  55.0991592   2.4707766
  69.9729767  54.1002655   1.3348340  48.7646637  45.9478111   9.2410307
  48.3363190  45.3376236   8.6406803  49.0184822  46.6878967   8.6895962
  26.9382191  32.6089859   7.9542160  26.4263783  31.9498844   7.4853473
  27.7238235  32.1430664   8.2405300  64.2622604  15.8628616  73.9534683
  63.4887161  15.4236898  74.3070068  64.8544235  15.1497068  73.7147522
   4.0764370  67.4536667  54.9691505   4.7035708  67.4996262  54.2474709
   3.4812167  66.7450943  54.7244644   4.0904431  14.0168972  10.8109980
   3.2759681  13.6139278  11.1117945   3.8502865  14.9215126  10.6104288
  53.9041595  57.5681610  54.5160828  53.2802544  57.2528458  53.8622093
  53.8522835  56.9273300  55.2252235  67.1221848  65.7647324  51.7507782
  66.1681900  65.7747269  51.8284035  67.3068008  65.0343857  51.1602287
  33.1347008  67.2050781  70.6832428  33.2748451  66.7163620  71.4942551
  33.9935074  67.5719147  70.4732056  62.1232643  17.3870354  51.6749725
  61.2556076  17.4923267  52.0652428  62.7260323  17.4240799  52.4176216
  52.5357895  42.3711815  57.8598366  52.1653900  41.5349312  58.1421852
  53.4346619  42.3582039  58.1886139  62.7502060  34.9216995  26.6444187
  62.9839935  35.3536263  27.4660130  62.5806465  34.0126266  26.8915405
  85.1989136  38.3549271   4.8249741  85.5538788  39.1607475   5.2003241
  84.3411942  38.2557793   5.2381620   2.9554534  18.0019264  34.0080414
   3.1141865  17.0808849  33.8013611   2.9080071  18.0282154  34.9637032
  73.1099319  55.2419205  10.7639208  72.7924728  54.6785698  11.4696741
  73.6539917  54.6674271  10.2252264  74.6218796   4.2911830  30.1161308
  74.8723907   3.5027082  30.5975723  75.2551422   4.3461523  29.4004555
  31.9492149  53.7982750  83.5886612  31.2155304  53.9841347  83.0026627
  31.5465088  53.6926231  84.4505768  12.9420156  19.1056633  74.4877243
  12.2871065  19.0761604  73.7902603  13.5798941  19.7542953  74.1900330
   8.6081190   7.5223265  75.8994446   8.5134315   7.6874661  76.8375244
   8.4020100   6.5931201  75.7978210  75.8902588  56.4569206  47.6045494
  75.3829803  55.7871780  48.0631866  76.7607880  56.0716019  47.5048561
  14.8748121   6.5356450  18.8937874  15.0946369   5.6632595  19.2206707
  15.5751448   7.0985603  19.2237759  81.1837769  70.3774643  31.7714233
  80.6480865  69.8895721  32.3969040  81.7767181  69.7229919  31.4021988
  13.3135185  49.3146973  30.6197701  12.4201231  49.2059975  30.9457474
  13.4211540  48.6131516  29.9775257  59.5359612  34.3624802  19.6290951
  58.7367020  34.3236618  20.1543655  59.2268600  34.3756676  18.7232723
  46.7661057  31.6204891  29.6595058  46.0703087  31.3980274  29.0409508
  46.4747467  31.2481556  30.4917965   8.2597952  63.0815582   4.6791387
   8.5041752  63.5365410   5.4850550   7.3065586  63.1592140   4.6398768
   6.5789523  26.4390793   7.8700066   5.6993270  26.7290630   7.6283450
   6.6838522  26.7233524   8.7779808  41.0808029  57.1798477  81.9233780
  40.9220695  56.3588028  82.3891296  41.0062332  56.9483337  80.9975967
   8.9550400  24.6197910   7.4742603   8.1645641  24.9587460   7.8943667
   9.5550585  24.4443169   8.1991177  79.2576218  63.2195320  54.7802010
  79.2669296  62.2630463  54.8160019  78.3397827  63.4553375  54.9150620
   0.6797978  70.4278564  29.5485134  -0.2650294  70.5629044  29.6212921
   0.8438759  69.6178741  30.0314598  37.8762589  51.4941444  78.5965729
  38.5709076  50.8458672  78.7124634  38.3222313  52.2616158  78.2383423
  20.7536793  14.6649933   1.0975257  20.7979183  13.8072166   1.5200105
  20.1686325  14.5345249   0.3512472  52.5230675  21.2667542  16.4296074
  52.1318207  21.9241734  15.8543177  52.2319221  21.5130348  17.3075657
  73.2070847  47.3337669  48.6563759  72.7747879  47.0250206  47.8601189
  73.8276749  46.6391068  48.8767281  58.3496819   3.9219971  73.2823563
  57.7339516   3.3391545  72.8380585  57.8111687   4.4084201  73.9065552
  15.8062916  34.1044540  87.4166031  15.8802385  34.9121780  87.9248810
  15.9668417  34.3748322  86.5125275  82.1081619  57.1593361  57.6482277
  82.9055710  57.5918541  57.3427696  81.9653702  56.4499855  57.0215950
  31.6619740  33.3539200  16.1234245  31.5205441  32.4261055  16.3115349
  32.5806160  33.5059624  16.3452587  54.8514175  15.2951975  66.1061783
  54.5446053  15.4727211  66.9953232  55.7628708  15.5875740  66.1044693
  48.7729797  15.5379620  18.8582039  48.2445297  15.1118412  19.5330315
  49.5979424  15.0525074  18.8579521  24.5272636  45.7979584  43.5382500
  24.3786373  45.9682274  44.4683838  23.8944912  45.1151085  43.3156586
  52.6029968  63.9211998  19.2353039  51.6553116  63.7967339  19.2866421
  52.7808456  64.0233688  18.3003368  19.4540329  22.1152744  76.3360214
  20.0139885  22.7683334  76.7557755  18.9606304  22.6085129  75.6806564
  80.4225159  41.8136177  78.7567978  80.9996796  41.3463593  78.1528168
  79.9742432  41.1217728  79.2432404  76.8262863  60.0132980  67.4843063
  76.8252106  59.7991409  68.4172440  77.5999451  59.5690079  67.1374741
  69.8340683  63.7257156  69.1643829  69.9735489  64.4122467  68.5121231
  69.1560669  64.0775681  69.7412262  58.5862236  43.2322426  24.6816483
  57.6337242  43.2939529  24.6097412  58.9059105  43.4243088  23.8000908
  73.3298721  58.1119423  35.9588585  73.6051865  57.2207222  35.7440033
  72.3975906  58.0325050  36.1607819  14.3174295  66.2333145  18.1989250
  14.8870354  65.7027435  18.7559509  14.6002007  67.1341553  18.3562469
  81.2885971  60.2747002  20.5280266  81.5009613  61.0677109  21.0202351
  80.9336929  60.5952835  19.6988697   3.6885166  65.7581482  80.2283325
   4.4451747  65.4137192  79.7539139   3.1958275  66.2481689  79.5700150
  29.5749664  67.9528732   2.5158558  30.2364292  67.2881393   2.7077560
  29.2697659  67.7395020   1.6340631  52.6003494  59.3784752  23.4791164
  53.1969032  59.3383331  24.2266083  52.1124496  58.5558548  23.5176163
  85.5694351  61.8216667  50.9162827  86.0022354  61.0991554  50.4614296
  86.2632675  62.4658203  51.0573120  64.3897247  23.1563091  35.9593887
  63.6988678  23.6016331  36.4499321  65.1994934  23.5729046  36.2542763
   3.7954149  65.2700043   9.1438789   4.2907429  65.8767166   9.6941357
   2.9062209  65.6242905   9.1370306   9.6625509  46.6959839  19.4010792
   8.7726469  46.9812050  19.6083279  10.2123814  47.1371880  20.0485783
  77.7314301  51.4813309  63.6068192  78.5944595  51.1165352  63.4110031
  77.1921997  50.7197151  63.8198891  35.2712593  49.0372772  14.3683329
  35.3829689  48.0940552  14.4869976  36.1637115  49.3799629  14.3200474
  47.2879829  30.8791351  60.6359558  46.7358742  30.1221104  60.4402084
  47.6137009  30.7155647  61.5210457  72.4884491   3.3323801   2.5025213
  71.9446640   2.6283162   2.1492195  71.9152222   3.7934122   3.1149678
  42.2208366  45.3165855  12.1647549  42.9062271  45.3242989  11.4966154
  41.8573494  44.4319878  12.1248102  44.1448631  40.9742203  36.4887619
  43.4465904  40.5402069  35.9985809  44.8039017  41.1880531  35.8283234
   4.5286756   4.3830628  74.7227554   4.2725129   5.1495852  74.2098618
   3.7580059   4.1815529  75.2535019  46.8233299  67.0681458   5.0021276
  45.9734230  66.6631241   5.1748900  47.2180977  66.5174255   4.3260374
  21.6187935  61.5474167  28.9255791  21.5225487  60.8865204  28.2398796
  22.2829418  62.1482048  28.5876522  84.6874847  29.7252998  71.3767166
  85.2205200  29.0735703  71.8320770  84.6361160  30.4612179  71.9866486
   8.9059210   6.0328884  54.5136299   8.4076796   5.2840381  54.1861992
   8.2426071   6.6943750  54.7103043  54.9608002  20.4147949  58.0646896
  54.6715965  19.6463146  58.5566559  54.2100105  21.0082245  58.0843010
  79.7804413  44.3705940  78.8983231  80.2494659  43.5382614  78.9572372
  79.6610718  44.5123024  77.9592209  69.6093597  47.7473373  42.9801712
  68.8333435  47.8337173  43.5338593  69.6972046  48.6009407  42.5560493
   8.0556793  62.7356148  55.3418465   8.9003448  62.9019318  55.7603073
   8.1098576  61.8269768  55.0457535  76.4856033  25.0013371  74.0517120
  76.0630722  24.1450996  74.1192093  77.2412643  24.8514004  73.4836197
  56.6258926  65.6094666  17.3078918  56.4399109  65.4331894  18.2301540
  55.8067245  65.9636154  16.9618053  58.7238998  10.2019577  56.3984489
  58.4536095  10.8561516  57.0428162  58.7669716  10.6831999  55.5721436
   6.9000802  66.8468018   6.8262172   5.9814386  66.9438629   6.5754008
   7.3355393  67.6063309   6.4392772  41.2490463  22.9276409  69.0248108
  40.8645439  23.6017208  68.4644470  40.5473862  22.6917763  69.6316681
  44.4702225  39.1045723  80.5537872  44.5498505  38.1507034  80.5485077
  45.1819458  39.4011955  81.1209717  14.6130600  11.5272083  58.5563698
  13.7136602  11.4141407  58.8638191  14.9331818  10.6356068  58.4192581
  70.9829407  13.5220251  14.9555120  71.6945496  12.8865690  15.0331850
  70.6034317  13.5651026  15.8332100  15.2333498  47.8929100  53.5187607
  14.7982950  48.3171654  54.2583313  15.1711597  46.9568939  53.7091331
  66.2377625  26.8547878  40.5056038  65.3870544  27.1092091  40.8630905
  66.0341873  26.1737423  39.8645363  54.1639328  23.7978954  42.7432404
  54.1617775  23.1648750  42.0252457  53.2603340  23.8050308  43.0589714
  32.9434319  45.1971855   5.7111773  32.4869576  45.5420761   6.4785848
  32.4855461  44.3819199   5.5064631  63.4881248  33.8835411  29.9479389
  63.1866570  34.7192001  29.5915394  63.8500748  34.1056290  30.8057861
  18.6977921   5.1067119  23.2166443  17.7637329   4.8976264  23.2096882
  18.7565937   5.9551349  22.7773819  16.8614712  49.8609734  19.3603706
  17.4915199  49.3886604  18.8161335  16.7031345  50.6786880  18.8886738
  76.5691376  33.4257545   3.8390076  75.7819138  33.0778198   4.2578831
  76.3737717  33.3990555   2.9023378  15.4795294   0.4443560  61.9800758
  15.2999344   0.1365345  61.0916939  15.8678474   1.3108871  61.8593903
  38.1857338  70.9335327  23.9555702  38.4867249  70.8405991  23.0516911
  37.8927765  70.0561829  24.2018681  59.5599327  28.1305141  11.0689344
  59.6409569  28.7772198  10.3679075  60.3818436  27.6408081  11.0392046
  64.7150192  31.7911701  43.8299828  63.8325195  31.5124340  43.5855827
  64.7182770  31.7644024  44.7868042  75.4592514  68.7465744  82.4474258
  75.2641525  67.9741821  81.9167862  76.4118576  68.8308411  82.4065704
  41.9353294  35.7745323   9.4386940  42.6196175  35.7955055   8.7697077
  41.5153809  36.6325989   9.3787374   1.6001976  44.1397705  70.7161255
   0.7348751  44.5475121  70.6815186   1.4633216  43.3285446  71.2054214
  44.6741982  40.4010696  64.4000015  43.9635468  40.3153458  63.7644997
  44.5298882  39.6851044  65.0187149  58.9861069   0.6402063  24.6590023
  59.7145767   0.0569090  24.8718967  58.6034393   0.2657430  23.8655434
  60.9277763   5.6998820  10.4179382  61.0282478   6.6517587  10.4261932
  60.3090515   5.5182028  11.1253319  61.7868729   1.5976876  41.2596817
  62.2898064   1.0657806  40.6429443  62.3059731   1.5871315  42.0638275
   0.8280284  40.5931396   6.5904298   0.1681564  40.1893921   7.1541572
   1.2447212  41.2532997   7.1443157  72.8322220   8.7945538  21.2403030
  72.2548065   8.2247524  20.7322178  73.6151505   8.2659311  21.3945980
  60.4251442  22.9183140  66.3178024  61.0050087  23.3427067  66.9501648
  59.9555931  22.2587814  66.8284607  50.3306694  37.1444435   3.4661775
  51.2167625  37.3769569   3.1886809  50.3380775  36.1885185   3.5150428
  85.1613922  23.0315876  25.0687981  84.7999802  22.3908329  24.4563866
  84.7600479  23.8616333  24.8115425  67.4643860  20.5956097  75.2376175
  67.0494232  20.1055889  74.5277481  68.3009186  20.8839760  74.8725281
  27.9318371  14.6616364  15.9024467  27.2064285  14.0518637  16.0373154
  28.6074791  14.1384506  15.4711514  75.3749771   8.8420992  80.9272385
  74.7540970   8.2726631  81.3816376  75.4478607   8.4654379  80.0502853
  16.0124321  45.1549377  39.8413849  15.7508678  44.5908890  40.5691643
  16.7628460  44.7080498  39.4497185  25.7204361  32.8780022  17.9667530
  24.9307404  32.3876915  17.7382660  26.4375420  32.3628502  17.5971451
  62.1304474   7.3399739  17.5587463  62.0303421   6.5752740  18.1257076
  62.2715797   8.0690689  18.1626797   3.6187868  31.9237709  85.2857437
   3.7985048  32.5531120  85.9842148   4.4515405  31.8364468  84.8219223
  82.6966095  33.1022301  67.6725922  82.4235535  33.5543289  66.8742905
  82.8031769  32.1890526  67.4061661  24.7243252  11.4598560  69.0692673
  24.9077549  10.6017952  68.6867523  25.5434666  11.9454527  68.9721298
   0.9976137  42.1234779  60.4144402   1.9129288  42.3124428  60.2077446
   0.5990276  42.9838753  60.5451279  51.7113686  26.0449505  27.0851936
  52.3051109  26.6354332  26.6214828  50.8605309  26.4817581  27.0463963
  79.8126602  28.4026127  73.5932007  80.1852493  29.1904907  73.1974030
  79.0011597  28.2518673  73.1084595  75.9111099  27.3793697  28.5524578
  76.6216125  26.7728977  28.7612877  76.2272415  27.8655300  27.7909203
  74.6960220  64.9375534  14.2808561  74.2615738  65.7852859  14.1868553
  74.8021317  64.8262482  15.2256231  52.9609680   9.0739136  66.2741394
  53.5063744   9.7098789  66.7370758  53.2452850   9.1334906  65.3620834
  75.9649353  24.0790176   5.5228367  76.9035797  24.1913948   5.3726387
  75.8793030  24.0264950   6.4747505  65.7485123  24.3559055  50.7049446
  66.2129745  23.8656349  51.3832817  66.3323212  24.3277893  49.9469147
   2.7150095  71.4721375  54.3569756   3.0015070  70.7815704  53.7592583
   1.7992251  71.6254501  54.1244545  10.9473181  20.9447269  20.0660725
  10.4615574  21.6294155  19.6062145  10.9047203  21.1988239  20.9879475
  71.9250793   8.9429722   7.4124632  71.0232697   9.1326733   7.1536465
  72.4426346   9.6364031   7.0031705  72.6869354  41.1197853   4.7167158
  72.7316589  40.1720276   4.5902815  73.2893219  41.2936172   5.4400091
  83.8125305  46.2266960  65.9490891  83.3783798  47.0589027  66.1366425
  84.7192688  46.3622398  66.2241898  76.2602997  33.5086899  76.1938400
  77.1124115  33.0729294  76.2095947  76.4673462  34.4352989  76.0723343
  51.9902534  39.4543114   7.8431401  51.1988373  39.9702721   7.9970193
  52.5906143  39.7235069   8.5383615  78.6105957  49.3516350  87.0655441
  78.1631088  50.0482407  86.5851974  77.9993515  48.6153221  87.0444412
  16.4970760  48.6850319  26.2563572  17.0965824  49.4302902  26.2939854
  16.4646816  48.3580704  27.1554012  45.9138298  55.1243706  48.4719086
  45.9590416  56.0793953  48.5178757  44.9958801  54.9372215  48.2755089
  68.5830536  33.2773781  67.6493454  67.7446518  32.8324661  67.5253372
  68.5613708  33.5805511  68.5570068  44.7797699  21.5401764  80.0370941
  44.1216621  21.3930531  80.7164154  45.5770836  21.1413937  80.3856506
   4.1956258  65.2532806  26.3300877   4.0405555  64.5915451  25.6560802
   3.8945172  64.8440323  27.1413097  62.1768112  45.9482574  52.4889336
  62.7495651  45.9685822  53.2555923  61.3927917  46.4241066  52.7630005
  59.5457153  15.9088192  18.2535439  59.1605339  15.9719572  19.1275482
  58.9012108  15.4191780  17.7425671  15.6849880  67.5270462  36.9070702
  15.0228415  66.8857269  36.6491890  15.2348108  68.3701782  36.8551941
  63.8235092  67.0303726  45.7527657  63.0252609  67.3623962  46.1636086
  64.0508652  67.6932755  45.1007652  61.7424927  28.9179440  79.9188309
  60.9168472  28.5641251  79.5881424  61.6584549  29.8650513  79.8085785
  43.4826698  66.4147415   0.9682858  42.8041573  66.4374542   0.2934977
  43.7687111  67.3244476   1.0510373   5.9111667   9.8874245   7.5254207
   6.5495286   9.1968355   7.7037845   5.0644579   9.4884920   7.7258420
   3.0342870  36.6815796   9.1231890   3.9233069  36.9555054   9.3486700
   2.7995007  37.2255020   8.3713551  34.4425316  49.4172134  29.5851345
  34.8179932  50.1483536  30.0757427  34.6827660  49.5909882  28.6750126
  49.3671532  57.7975502  72.5187607  49.1746368  57.2883530  71.7314301
  48.5416031  57.8111420  73.0030212  50.8782578  44.8703499  21.1101856
  50.9666290  45.4804802  21.8424187  51.2994576  44.0669327  21.4156971
  23.4078274  14.5883150  27.9860668  23.8010578  14.6576738  28.8560047
  22.6385536  15.1565933  28.0249500  18.2688122  64.1962814  15.9519234
  18.9621201  63.5384445  15.8989286  18.3886166  64.6018753  16.8106251
  66.7384644  50.9509735  56.4585342  66.5598679  51.2182083  57.3601532
  67.6818466  51.0750809  56.3543434  69.7582932  70.3549652  30.5524178
  69.5656052  71.2870789  30.4510841  70.1438980  70.0976715  29.7149544
  84.0869904   4.7774367  62.1206017  83.7390747   4.6159029  62.9975815
  84.5497971   5.6118727  62.1964836  14.7430496  10.3683004  68.6312943
  14.4485731   9.8261194  67.8994751  15.5594635   9.9596186  68.9188309
  71.2385941  24.4825134  51.6369629  71.9013672  23.8229599  51.8417854
  70.4335556  24.1424007  52.0274353  32.2023277  48.3438339  14.8651600
  32.3596191  47.8234444  14.0773230  32.8123817  47.9894295  15.5120487
  20.0326061  51.7746429  11.8044395  20.6038990  51.5074196  12.5244732
  19.3244629  52.2598190  12.2279577   3.9711874  44.7183418  30.8417320
   4.7202473  45.1935349  31.2013588   3.5281084  45.3570328  30.2831764
  38.7833138  44.7047119  55.3062744  38.6082726  43.7677803  55.3943481
  37.9167557  45.1112862  55.3061676   6.2781382  40.8527985  53.2641602
   6.1164846  39.9142036  53.1685448   6.5427127  40.9584007  54.1779861
  80.9250336  52.7587929   0.9832828  80.2857742  52.1005592   0.7106841
  80.7776566  53.4957314   0.3904625  64.1449890  10.1263132  67.3188248
  63.8349571  10.9268475  66.8954315  64.6455536  10.4335337  68.0746536
  42.4742851  54.9352570  45.5569611  42.2259178  55.6875000  45.0196800
  41.6468735  54.4931793  45.7471962  19.9942074  45.3896828  67.6634598
  20.7501431  45.6857910  68.1705246  19.4905090  44.8531570  68.2755585
  50.5059242  15.8246555  33.5416946  50.8236961  15.1849422  34.1788940
  50.6171532  16.6705475  33.9756622  64.3622360   7.1470904  54.6812210
  63.9146461   7.6221652  55.3813591  63.7758141   7.2215309  53.9283638
  78.6170883  12.8756762  17.7381630  78.3801651  12.9561253  18.6620827
  79.5401077  12.6223898  17.7487679   7.6542945  59.0027618  83.8422775
   7.4883733  58.1753654  84.2940750   8.1885624  58.7598152  83.0861282
  59.8666801  41.9272957  49.0238876  60.0687904  42.5502739  48.3258324
  60.6963844  41.4816437  49.1948204  84.2617569  13.3883524  71.9204941
  84.9302750  14.0373707  72.1398087  83.9194794  13.6739054  71.0734177
  15.9039993  56.5446739  48.9439850  15.9000721  56.3058395  49.8709030
  16.7643719  56.9394302  48.8020096   9.2839689  28.8466225  16.3337860
  10.0722570  28.3087349  16.4080086   9.6083803  29.7471333  16.3254719
  60.2671013  57.5872231   6.2771859  60.6444092  58.3977585   6.6191001
  60.9835930  57.1741219   5.7952938  42.6958046   2.5861804  22.0709610
  42.1782074   2.0788162  21.4457378  42.4257240   3.4928863  21.9254513
  77.6573639  38.7057114  50.5718842  77.5339966  37.7889595  50.8180046
  77.2793732  39.2016296  51.2981262  21.1136971   3.3646209  22.3020191
  21.0785961   2.4285169  22.4987640  20.3905029   3.7419186  22.8028870
  26.6534958   0.3387751  20.8776722  27.5503788   0.3026025  20.5452213
  26.1925869  -0.3500437  20.3987942  44.9417305  24.7889919  18.0170918
  45.0622063  24.0303955  18.5882721  45.5041122  24.6126347  17.2628651
   1.8194964  28.2493629  20.3453541   1.2128735  27.6030312  19.9841118
   1.2546624  28.9356384  20.7006302  71.0535278  48.2329903  81.5558853
  70.7322617  49.1263924  81.6777496  70.4600525  47.6919174  82.0767136
  54.5927544  66.7738037  84.6268845  54.4199371  66.3088455  85.4455261
  55.3471413  67.3297806  84.8218613  78.7473907  17.3204689   7.8541250
  78.9738007  16.4803619   7.4551368  77.8062668  17.2616138   8.0186033
  47.2177010  58.5978279  58.6021729  47.3220901  58.9217491  57.7075195
  47.4479637  57.6702347  58.5494499  56.7914581  61.2182045  47.3719215
  56.1502914  61.8556557  47.0576057  56.7801285  60.5228500  46.7142105
  53.6071167  48.8812790  19.4272747  54.0525551  48.0866852  19.7212696
  52.6791306  48.6467361  19.4195633  71.7405396  31.8503704   1.1798013
  72.4543381  31.2198544   1.0840230  71.2063904  31.5009212   1.8931019
  33.3016586  51.3247757  42.7704086  32.9891472  51.3648872  41.8665504
  33.5282097  52.2294731  42.9858704  21.3040085  40.4410057  75.8901596
  22.1936760  40.7519379  75.7226944  21.1104546  39.8608818  75.1538086
  72.4752045  46.3425827  61.1049156  71.9950256  45.5945129  60.7498894
  73.2603073  45.9594345  61.4961281  38.7110329  58.7200813  58.1401215
  39.2219925  59.2002144  57.4884911  38.8869057  57.7984276  57.9507599
  72.8767471  37.4830437  85.7922668  72.6393051  36.7551041  85.2178497
  72.2590866  37.4243088  86.5211487   7.1060543  41.1031036  79.5168610
   6.4749241  40.9172020  80.2120972   6.6736631  40.8077354  78.7155991
   4.6847978  11.6048813  42.3213501   3.7980640  11.8858871  42.5471153
   4.8808961  10.9062691  42.9456215  11.7699442  69.8273697  18.1420555
  10.8627291  69.7898636  17.8390923  12.2925053  69.7349777  17.3454208
  75.4372711  68.6870575  64.9703598  75.4120865  68.0843353  64.2271805
  76.3533859  68.9585190  65.0276413  32.0984077  13.4928808   3.8849263
  31.1994953  13.2023935   3.7306314  32.2010841  14.2620478   3.3245053
  23.8200092  30.3531666  19.9182491  23.1529198  29.9350014  19.3738575
  23.3223495  30.8430958  20.5728760   7.9567375  39.3652344  38.5031624
   7.2464752  38.9616661  38.0042725   8.0134602  38.8437233  39.3038139
  24.8683014   7.8323331  22.0286942  24.1167316   7.6575480  22.5951080
  24.5011921   7.8591595  21.1450977  76.5259933   3.5961504  51.7972641
  76.9024353   3.6115372  50.9173279  77.2135468   3.9550762  52.3582191
   6.2517977  25.9133892  69.3167725   5.6896238  25.3599529  69.8588943
   6.9031825  26.2620869  69.9253235   8.9740610  23.8301468  26.9353504
   8.5431728  24.6715755  27.0855637   9.6928282  24.0326595  26.3365231
  46.8385429   5.6480322   7.0854993  47.6322556   5.7889543   7.6016283
  46.9154434   4.7480283   6.7687798  62.6347542  55.3666267  34.0390587
  62.9770050  54.9385872  34.8238373  61.6891670  55.4079590  34.1818542
  50.4982834  64.6140213   9.5931492  50.0837402  65.3268509   9.1070766
  49.9396172  63.8546104   9.4275827  13.3385201  44.7330475  38.9187164
  14.2386541  45.0560799  38.8782425  12.9880152  45.1016159  39.7296028
  82.8507004  14.5922613  46.6534500  83.6473999  14.0834570  46.8038254
  82.3017960  14.4086771  47.4158363  11.9089174  52.1246567   8.1873093
  11.9722548  52.8355255   7.5494323  12.6821203  51.5850945   8.0221949
  37.5563126   6.4495831  17.1513786  36.7923164   6.7555428  16.6625729
  38.1305008   6.0707102  16.4858017  31.1485958  61.8128090  40.1168442
  30.4132805  61.2656937  39.8407822  30.9928608  61.9713669  41.0478859
   1.4883364  23.3357067  56.0230293   2.1679256  22.7552261  55.6803474
   0.6656805  22.9096451  55.7823257  79.6845093   4.4875345  76.3535385
  80.5688858   4.5522842  76.7139893  79.5660095   5.3004260  75.8622131
  15.4704447   3.5859764  12.7074194  15.6683722   2.7005789  13.0125885
  15.7244406   4.1527333  13.4357767  22.3983536  56.1410980  85.3563995
  22.9463425  55.3564148  85.3418655  21.6746559  55.9388542  84.7634430
  61.7333336  20.1691837  65.8105011  61.5063858  19.3818874  65.3156357
  61.4508018  20.8931122  65.2516327  67.9219971  11.9894514  66.1067734
  68.8237381  12.2144308  65.8777008  67.8848572  12.0879908  67.0581665
  51.3377609  64.7923203  41.4008293  51.8065186  65.3890381  40.8173752
  51.9067230  64.7094345  42.1661072  55.0647278  34.1299400  33.9087334
  55.1786613  33.2322884  33.5965309  55.8368912  34.2951851  34.4497452
  57.6882858   4.1630707   1.1001120  58.6417465   4.2439332   1.0755175
  57.5016632   3.3737736   0.5917681  34.6509781  53.6182671  66.3802719
  34.3515549  52.7245979  66.2131424  34.8511200  53.9699783  65.5128250
  65.7921677   4.8984032  26.0155163  65.0398407   4.9505973  26.6050129
  65.4075623   4.8399138  25.1409378  81.7403412  35.0098190   3.2742679
  81.0412903  34.4418564   2.9502475  81.4064636  35.8976631   3.1458576
  57.3377571  22.0570259  72.1402817  57.6904488  21.1703758  72.2156982
  56.3880539  21.9398575  72.1642380  60.5107956  60.6574440  39.1416512
  60.4200401  61.0659409  40.0025368  59.6110497  60.5309944  38.8404922
  71.0251617  65.5841980  14.0605278  71.7349319  65.6016235  13.4185381
  70.4363708  66.2870865  13.7857599  42.0855865   9.8363705  12.0916538
  42.8854942   9.4708767  12.4695311  41.9462128   9.3307505  11.2909327
  60.8328857  39.1635361  53.2388191  60.0962219  39.4923744  53.7540092
  60.4307327  38.8049202  52.4476814  42.6429367  11.8001156   1.6261859
  41.8417435  11.9154739   1.1152918  42.8941956  10.8889132   1.4751525
  42.0815506  56.7194519   4.3787904  41.1977272  57.0826302   4.4353294
  41.9477577  55.7750053   4.2990909  60.4496117  71.3849182  51.0438576
  60.0487862  71.9614563  50.3933449  60.6511841  70.5831146  50.5614548
  78.1985397  28.1863689  20.9983597  77.8228836  28.8510532  20.4210281
  78.9469986  28.6202431  21.4079800  64.9292068  53.2789345  80.2205276
  64.2097473  53.2419586  79.5902557  64.7969971  54.1043816  80.6867752
  48.6429482  61.0708351  38.5503693  48.3285179  61.9592209  38.3826332
  49.5084343  61.1927757  38.9406204  57.2074509   3.4875462  17.2065086
  56.7417679   3.4935701  16.3702469  56.8507233   4.2360892  17.6846962
  16.1278381  45.2318649  28.2432289  16.9427738  44.8462486  27.9216557
  15.8718557  44.6733322  28.9772224  63.9352036  59.5446014   2.6875658
  63.8251724  60.4107361   3.0799098  64.1929016  58.9818840   3.4177518
  64.0999985  62.6641960  16.9854698  63.2476349  62.4819183  17.3810577
  63.9020805  62.8597870  16.0696068  74.3179245  46.0753975  65.0504379
  74.2360229  45.7927818  65.9612885  75.1748886  46.4996681  65.0074387
  20.9777412  50.4646606  28.0063343  20.5103588  49.9926643  28.6955395
  21.2288666  49.7863159  27.3794270  85.1094284  28.6487064  21.7646217
  85.4440842  27.8380032  21.3812160  85.8916702  29.1149426  22.0595016
  27.7283993  58.8671570  65.3852768  27.9026966  59.5817261  65.9978561
  26.8414135  58.5784912  65.6001282   6.4937415  59.9702568  76.8452759
   7.1664853  59.7061996  76.2176437   6.9272671  60.6155357  77.4037552
  79.5079575  11.2165480  29.4502449  80.0769196  11.9465666  29.6943531
  79.5134659  10.6421719  30.2159443  56.2524376  65.1966019  12.2885942
  55.6734695  64.4405289  12.3854504  55.9561615  65.6237335  11.4848480
  48.6517220   7.6934328  66.1635132  49.3573456   8.3332243  66.2583542
  47.9670067   8.1611471  65.6853485  41.4547768  31.1805801  20.3653278
  41.1059570  31.9727497  20.7740154  42.3911514  31.2016106  20.5627995
  76.1506729  39.9179916  52.7445068  75.2790451  39.5293427  52.8183784
  76.1453400  40.6394119  53.3735962  34.5188103  19.9922829   7.6035843
  33.7548027  19.9702778   7.0273528  34.6170807  20.9156494   7.8358898
  75.2168961  32.0319366  48.4308739  74.8754654  32.1881485  49.3113632
  75.2898331  32.9044189  48.0439873  47.2896500  46.2450676  74.5435181
  46.6758919  46.1382217  73.8168030  46.8017159  46.7455254  75.1975021
  86.0008545   9.6054468  81.7143478  85.9017334  10.4900713  82.0662689
  86.8526382   9.6154032  81.2777710  64.6829224  34.5519218  64.7927017
  64.1823883  33.7556992  64.9708176  64.1165466  35.2629623  65.0924988
  58.3676567  65.9025040  82.2809982  58.2370148  66.1195068  83.2040787
  57.5002861  65.9977036  81.8874969  54.5330505   4.6081929  45.2787666
  54.6471901   5.4395509  44.8182793  54.1029587   4.0383244  44.6411896
  50.9903297  62.6254959  77.0098495  50.6703224  61.7733879  77.3060532
  51.4646454  62.9781418  77.7627792  13.9683390  22.5588799   2.0465324
  13.4676533  22.3213387   2.8269935  14.5576859  21.8179550   1.9053541
  84.6889877  10.5502262   8.2475252  85.0729218  10.4222469   7.3800879
  83.7530670  10.6623201   8.0810394  64.9855042  58.0489235  67.3495636
  65.6493835  57.7425613  66.7317963  65.1481323  57.5435638  68.1460495
  23.0887756  61.2010956  87.7627029  23.5100269  61.8875275  88.2799988
  22.1716518  61.2241173  88.0358124  58.4959221  70.8565674  62.0689926
  59.0311852  71.2626877  61.3872414  58.3680344  71.5490189  62.7173653
  82.3000412  67.1648026  31.8560486  82.2113342  66.2565994  32.1450729
  81.4024963  67.4509125  31.6863937  62.6233215  43.9284935   3.3080983
  62.5934525  42.9974327   3.5282471  63.3685837  44.0101089   2.7129893
  50.1421204  47.5940819  29.7338772  50.4153252  46.6916046  29.8985672
  49.9551926  47.6202812  28.7954731  32.6690865  47.8369331   4.9097457
  32.0975037  47.7806587   4.1440053  32.7561035  46.9324417   5.2106609
  15.8488722   3.2836828  80.3737793  16.2386627   3.4510078  81.2318573
  16.1676998   3.9982426  79.8224335   7.1456537  38.3715744  17.4232616
   6.4556007  38.9173050  17.0461197   6.9994159  37.5047722  17.0444431
  72.5872879  46.1157494  25.0234928  72.2200470  46.1857376  24.1423206
  72.3166046  45.2494736  25.3276749  85.6621094  21.2237110  65.1688309
  86.1818161  21.1305714  64.3704147  85.4864731  20.3246746  65.4465332
  47.3503799  37.3836136  77.5016098  47.1653214  37.9979515  78.2119446
  48.2720490  37.1531029  77.6183319  81.5144119   3.2889276  46.6219635
  81.6847000   2.3727450  46.4032288  82.1143494   3.7838805  46.0639992
  16.2369213  52.2844048  71.3079453  16.6390438  52.7571220  70.5792007
  16.9737034  52.0270424  71.8621521  67.8396225  46.3755226  15.6709795
  67.0720978  46.3967743  16.2425461  68.2880554  45.5621071  15.9022799
  81.1529312  48.8304710  86.4727249  81.2008133  48.7865181  85.5177307
  80.2397156  49.0503769  86.6568832  68.6538086   9.4056597  42.0754814
  69.2148743   9.0909319  42.7842712  69.1883621  10.0536718  41.6166153
  63.4204941   4.4189415  27.2533913  62.6599922   4.5020509  26.6780968
  63.7180672   3.5178065  27.1283436  33.1447716   8.1984854  15.4602365
  33.1117821   7.7300425  16.2943268  33.0330391   9.1189528  15.6979084
  43.6116142  39.9868240  32.3221092  43.0637817  40.7520981  32.1475677
  43.2629623  39.6233025  33.1360664  65.6193771  12.7020245  62.1110191
  64.9691544  12.9262819  61.4453278  65.6420517  11.7450924  62.1108971
  83.1219864   8.5904503  26.7792149  84.0416641   8.8224659  26.6503963
  82.7338104   8.6566029  25.9067612  56.0169640  52.2360420   2.4384084
  55.9711380  51.4543114   2.9888856  56.5553932  51.9723167   1.6922361
  13.6808968  41.5022736  45.3961182  13.8470564  40.5959740  45.6554260
  13.6977720  41.9933624  46.2175674  45.2758751  55.2873077  54.8212814
  44.7399559  55.5979004  54.0915184  45.6061516  56.0859375  55.2327957
  37.0509033  10.6971655  75.5365372  36.7524643  11.2630348  74.8245239
  36.4045944   9.9918480  75.5688705   8.1407166  54.0602264  46.1502304
   8.7024536  54.6998367  46.5879288   7.3264117  54.5335999  45.9797707
  37.4628792  53.4936562  57.7535133  36.6113892  53.9267464  57.6932564
  37.4704132  53.1005325  58.6262245  38.7272263  22.7920780   8.8648567
  38.7954826  22.0599327   8.2520456  39.3672600  23.4296646   8.5485096
  56.9959717  31.7341385  13.3384380  56.7319527  30.8562336  13.0631018
  57.2652817  32.1681786  12.5289240  52.5590248  30.5834084  76.7162018
  53.0974464  30.7067280  75.9344559  52.5451012  29.6357632  76.8503952
  22.3446789  21.9311466  79.9504089  21.4951248  21.4993935  79.8605194
  22.2558460  22.4738235  80.7338867  78.7833328  66.0400772  68.4359894
  77.8342056  65.9251175  68.4826660  78.9231110  66.5585556  67.6436081
  14.9039011  36.5040283   3.7758279  15.0629082  36.6351013   4.7105837
  14.4371834  37.2926865   3.4993701   9.7227745  20.7507992  75.6010437
   9.9495134  21.0210743  76.4908600  10.4356375  21.0888901  75.0590515
  84.3715744  50.3451538  80.7668381  84.3905716  50.9698868  80.0418701
  84.6869659  50.8434906  81.5207748   6.6487288  35.1659355  21.2789288
   5.7948847  34.8471146  20.9864635   6.6300406  36.1048813  21.0938244
  12.3478823  66.6131287  34.3987694  12.8657637  66.6319046  33.5939827
  12.0829325  67.5228729  34.5343781   4.7388282  46.1921539  56.4332161
   4.9514723  45.9584579  57.3367653   5.5704699  46.4829102  56.0589638
   8.4023323   8.3543129  68.8375092   8.3372974   8.8761702  69.6372986
   8.3104591   8.9905243  68.1282654  25.2938633  58.6809921  59.6455956
  25.7242794  58.6303062  58.7921295  25.0491543  59.6019440  59.7361145
  43.0155144   8.1067610  20.9710732  43.0406342   8.9550028  21.4138908
  42.1133423   8.0245867  20.6619320  60.2409668  44.0558701   1.9224764
  61.0061760  43.6941223   2.3694925  60.0274467  44.8477745   2.4159629
  16.0624599  32.9403114   5.4404283  15.1770172  32.9489822   5.8039479
  15.9545450  32.5925102   4.5552034  57.0474129  10.5243368  75.4586868
  57.0928497   9.6382914  75.8179855  57.8238297  10.9636240  75.8057327
  49.9636345  48.2398682  16.3789730  50.7070389  48.8422050  16.4068184
  49.9493523  47.8367500  17.2470303  70.4551849  50.1845093  31.1730976
  69.5325317  49.9306488  31.1955299  70.4393234  51.1369019  31.0785923
  17.0568333  45.5568504  87.5580368  17.5185966  45.9174423  88.3149948
  17.7140598  45.5398445  86.8623428  26.4002762   3.5599418  35.7399445
  26.5338612   3.4955623  36.6855888  25.8738384   4.3511763  35.6257401
  58.1179581  61.0502815  87.3927917  58.3752365  60.1346970  87.2844238
  57.2033310  61.0105896  87.6722717  52.5336609  55.4486351  87.9142303
  52.8022652  54.8013191  88.5662003  51.6621475  55.7258110  88.1968384
  78.5159683  25.0752430  64.9195023  79.1298599  25.3950996  64.2583923
  77.8377991  25.7493706  64.9626999  72.6096954  60.2932472  23.4738503
  71.8051682  60.6517334  23.0990772  72.7081680  59.4377632  23.0558949
  35.7563019  46.7678070  73.7990875  35.4727745  47.2265167  73.0082474
  34.9456215  46.4442596  74.1919556  67.5507202  54.1871452  56.5254898
  66.6169968  53.9783745  56.4969864  67.8131104  53.9890099  57.4244461
   5.4220018  64.2618713   4.7553382   5.9958353  64.9316101   4.3833184
   5.5696244  64.3174973   5.6994486  11.9539394  11.1081839  20.1872978
  12.0582438  11.7769756  19.5104885  11.0068359  10.9971733  20.2703800
   9.4137583  18.8948708  87.2987595   8.9938202  19.2722683  88.0717087
   8.7271051  18.8891468  86.6318970  27.2153587  12.4178610  81.2880859
  26.5871105  12.0745354  80.6527481  27.1595135  13.3684330  81.1904907
  57.4743538  24.6848640   0.6215109  57.2445641  23.8072186   0.3162819
  58.0235558  24.5346889   1.3909642   2.4985058  29.8589134  27.3115940
   2.6160755  30.0767937  26.3869648   3.1999536  30.3312511  27.7600365
  33.2457428  45.4086075  81.7560196  32.4530907  45.4163780  82.2925644
  33.8986244  45.8651352  82.2866440  18.7260494  39.3902473  45.6545677
  19.3061771  39.2866364  46.4088554  19.2031670  39.9728889  45.0637054
  71.8320389  70.9426422  50.9702148  71.9645996  71.1175156  51.9019203
  72.6170807  70.4651108  50.7020798  68.8158951  24.0390854  27.1078625
  69.6385727  23.5579929  27.1972179  68.1659546  23.4843216  27.5391865
  61.6738892  64.9984131  18.2003231  61.5367088  65.2447281  17.2855854
  61.4688530  64.0639038  18.2300663  47.6067924  15.5420122  73.8385086
  46.6716805  15.3877039  73.7043991  47.8430214  14.9650078  74.5647964
  25.1809826  22.6864090  67.6384201  25.6284256  23.3313122  67.0905838
  25.8300915  21.9962311  67.7745972  23.9156628  52.1223984  69.0517044
  24.2402210  51.2732353  68.7520065  22.9715309  51.9975586  69.1479492
  10.6298218  61.3842773  50.3435707  11.1698370  60.6933975  50.7273598
   9.7659988  61.2592049  50.7365036  57.2886047  37.9688530  31.6785660
  57.1931763  38.3070793  30.7882137  56.3956261  37.7590675  31.9520779
  74.9959564  45.9049263  26.1865788  74.7247925  45.4501534  26.9840012
  74.1762314  46.1067123  25.7354050  44.5069618  60.2352600  72.4247742
  44.6631546  61.1702042  72.2916565  44.3087158  60.1560173  73.3578644
  32.0122986  59.2563362  75.7051086  31.2265682  59.1186104  76.2341537
  32.4476471  60.0047874  76.1131744   9.2561998  38.2728958   4.9457240
   9.0444126  39.1401024   5.2911630   8.4060564  37.8526039   4.8159389
  83.4222107  19.4306545  31.4362869  82.5911484  19.3282242  31.9000473
  83.3359451  20.2627792  30.9711418  80.7008438  14.0701389  33.5981750
  81.4540939  14.5978518  33.3329163  81.0606384  13.4315968  34.2138367
  67.6996002  68.6452942  38.0317612  67.6166763  67.7582245  37.6818161
  68.6329575  68.8449631  37.9595871  55.4890137  41.9339905  82.3122253
  55.1088104  41.3407326  82.9600830  55.8975716  42.6262016  82.8319855
   3.3664923  20.8854885  12.2712545   3.3494675  21.4627666  11.5079126
   2.7023799  20.2219105  12.0845728  74.6709747  17.9003887  22.4406242
  74.9895782  18.3872948  23.2006531  74.6038284  16.9958935  22.7465820
  56.0778580  14.6093025  74.8655930  55.7532768  14.6883116  73.9685745
  55.6416168  15.3161545  75.3412857  20.8957233  59.0445290  13.0985203
  20.3291302  58.3934593  13.5124216  20.3211250  59.7922325  12.9341850
   5.0363622  18.7750797  66.0681534   4.7584910  19.3856239  65.3853226
   5.8252025  19.1718502  66.4376602  48.8318787  19.5868683   3.1715915
  48.2361565  20.2526302   2.8279228  48.7635880  18.8611488   2.5511894
  46.9701614  41.3378563   3.6899278  46.1077232  41.0411491   3.9804394
  46.8063507  41.7619247   2.8475723  14.3671637  52.8869171  26.0401688
  14.5089645  53.6169395  25.4375153  14.6832218  52.1187744  25.5644665
  75.6521225  31.2457123  23.4027710  76.2392197  31.9986439  23.4709435
  74.8792572  31.4981194  23.9079475  60.2865982  69.2796631  81.2263641
  60.2595940  68.6987610  80.4660568  59.3715706  69.3675385  81.4932632
  44.1682892   2.2023270  80.0022202  43.3209496   2.6385648  80.0913467
  44.7181778   2.6079221  80.6725540  75.2731552  54.7495499   1.4549487
  75.7367706  54.5454597   2.2671301  74.5613174  55.3298073   1.7248167
  19.8675365  42.0179443  81.9182434  19.6899910  41.3379250  82.5680695
  19.4061527  41.7247009  81.1325150  77.7878265  28.0735340  65.0908890
  77.3199921  28.5486908  65.7776108  77.1500168  27.9869671  64.3824158
  28.6518345  50.5175705  44.6938248  28.5832291  50.4779968  45.6477432
  28.7618637  49.6059265  44.4235840  51.7624054  50.4261856  76.8204956
  50.8209305  50.2618637  76.8739090  52.1652718  49.6017036  77.0928192
  83.5428085  62.9727707   3.8631537  83.2033386  62.1414566   4.1946812
  83.7227707  62.8060799   2.9379191  57.7077293  37.4525261   0.2852971
  57.6104469  37.9600449   1.0910212  58.1926346  38.0299072  -0.3043865
  22.4585094  63.1478615  25.3489838  22.8929081  62.3787155  24.9802780
  21.5357227  63.0337296  25.1216698  56.6078453  10.0253582  45.3844376
  57.4166794  10.5293951  45.2951736  56.8702469   9.2321663  45.8515854
  17.6428986  39.3182220   3.7966535  17.5591850  39.7453308   4.6491814
  18.5362225  38.9745293   3.7876415  71.5502472  66.5499344  44.3482285
  70.8525543  67.0163651  43.8879051  71.9987106  67.2279663  44.8535843
   1.7010643  19.6604099  19.5684433   1.2484438  20.4159641  19.9432793
   1.1503896  18.9123898  19.7996464  85.9217758   2.2730966  86.0799561
  85.3053360   2.2646530  86.8121872  86.5631104   2.9438481  86.3145065
  34.9120407  59.9577904  24.9475708  34.4030647  59.1850319  24.7025795
  35.8199577  59.6546707  24.9532471  60.1022072  62.6616669  88.4421234
  60.7595558  62.5859833  87.7504578  59.4455261  62.0010262  88.2217712
  25.8472633   0.6431387  64.6431274  25.5669289   1.5550780  64.5655975
  25.8967400   0.4871275  65.5862274  72.3068237  16.3581734  44.7185936
  73.1423264  15.8917999  44.6927795  71.7774963  15.8667068  45.3466873
  43.7545242  59.9866333   6.9912691  42.9939423  60.0368729   6.4122839
  44.4628830  59.6723137   6.4294314  79.3047562  48.7239494  48.4046211
  79.9805527  49.1722794  48.9130745  79.5145798  47.7943649  48.4945030
  16.9563446  50.7818680  79.7230682  17.6778545  50.8069077  80.3515778
  17.2051544  50.0992699  79.0998611  81.7343369   0.4193508  71.6896210
  81.5430679   0.9171012  70.8946991  82.5927429   0.7366320  71.9701538
  41.2031136   1.4415013  14.8921309  41.5998039   2.2980881  15.0506496
  40.2929726   1.5438627  15.1703367  27.7598381  10.0497437   0.9571002
  27.6053925  10.8982239   1.3723830  27.8235817  10.2483778   0.0229090
  27.8657112  54.0380249  67.9420242  27.2496376  54.4383202  68.5555801
  28.7243099  54.1710434  68.3437042  51.5291901  71.1980133  45.9029503
  51.3682861  71.6974182  46.7035370  52.2075691  70.5679550  46.1459656
  44.5611610   8.5706244  74.7312927  44.5337372   8.2308140  73.8368607
  43.8231506   9.1782942  74.7793732  34.2612762  62.3411827  82.1687622
  34.4817810  62.3854294  81.2383575  34.1075478  63.2513809  82.4220276
  81.9743271   7.4346790   6.5494318  81.2785263   7.2593851   7.1829696
  81.5537109   7.9644666   5.8721995  38.9865074  61.1438103  32.4012756
  39.4710617  61.3470306  33.2013664  38.0667686  61.1697578  32.6651611
  70.2101440  18.6057701  69.0600967  70.8443069  18.8062630  68.3717194
  69.9139786  17.7174492  68.8615799  32.8518143  11.7583485  81.0613785
  32.2725868  11.6453733  81.8150101  32.6108780  12.6112719  80.6998520
  68.6481857  64.6144104  43.3221397  67.7887802  64.3077164  43.6112595
  68.8491592  64.0766830  42.5561790  33.6326027  70.5759583  17.7892303
  32.9204979  70.1263046  18.2441463  33.5079727  70.3505173  16.8673439
  51.3130531  27.0322571  82.9958725  51.6575661  26.2268066  83.3816071
  51.4779434  26.9381199  82.0576935  34.2808342  24.3152142   0.5055183
  34.5413704  23.4830723   0.1106866  33.3437805  24.3840771   0.3227053
  54.1769791   3.8100235  64.2562866  53.7315445   4.6206641  64.0099487
  54.6311035   4.0243731  65.0711823  66.6321945  55.0173912  33.7809792
  67.2832947  55.1704788  33.0962448  66.8400879  54.1462135  34.1187057
  26.0576363  29.4219246  11.7736540  27.0087261  29.4808445  11.8641405
  25.7205086  29.6373291  12.6432400   9.7781401  33.4016228  77.6799927
  10.4440308  34.0831032  77.5882874  10.2590046  32.5809326  77.5729065
  26.4884148  53.7966080   7.9259501  26.4652328  53.2075081   8.6800432
  25.8768654  53.4086609   7.3000627  59.4041176   5.7822332  46.3941002
  60.1556129   6.3428321  46.5870056  59.1238213   5.4549108  47.2488098
   9.8003902  52.2998734  79.6435471   8.8961325  52.5769844  79.4960327
  10.3001518  52.7359848  78.9534149  42.7526741  57.2305984  49.6282234
  42.9022636  56.3073273  49.4246902  43.2179909  57.7060280  48.9399796
  67.7374573  67.4755173  43.0502014  68.1306686  66.6030045  43.0318336
  66.8003693  67.3136673  43.1593246  23.9630623  31.4282761  55.8035698
  23.4103680  31.1307831  55.0808945  23.4321194  31.2830296  56.5866623
  68.5451202  40.0670929  46.0786324  68.7351456  39.6344757  46.9110756
  68.2071762  40.9273872  46.3274574  29.4213657  60.5151253  74.1781158
  30.3586159  60.3222847  74.2027283  29.0116901  59.7686729  74.6153870
   3.8124864  64.7649231  84.3455124   3.9384909  65.6182556  83.9305725
   3.0684099  64.8923035  84.9340363  27.7832756  47.3795853  42.5641365
  28.0315723  48.1256485  42.0182686  27.3133717  46.7941589  41.9702530
   4.9124165  61.3523903   5.0862060   5.2283015  62.1943626   4.7582889
   3.9726174  61.3620262   4.9047761  59.8497505  14.3207664  61.4321404
  60.3507347  13.7106199  60.8908730  60.2530975  15.1731997  61.2681160
  64.7283401  61.5515594  67.2672501  64.6334381  60.9807739  66.5047302
  65.3287277  62.2389297  66.9786606  70.0065002  70.7975998  55.9827766
  69.6176224  71.6608124  55.8418007  69.2653732  70.2346649  56.2065125
   3.1821332   2.2361050  18.4211731   3.7560289   2.9508796  18.6968040
   3.5028944   1.4726743  18.9012947  49.1389351  12.3727856  39.4621964
  49.5064964  11.5833750  39.8596382  48.4998436  12.6875172  40.1015244
  68.1936493  61.5206070  20.0439396  67.5408783  62.0194397  19.5527191
  68.9098053  62.1393166  20.1872692  60.3897667  24.9902058  58.8688965
  59.5965691  24.8957462  58.3414955  60.6992493  24.0937672  58.9986954
  41.4083252  49.6017609  31.5837421  41.6991577  49.6770439  32.4925766
  40.6341324  49.0404282  31.6257286  10.9867697  59.5770302  56.0403709
  11.6122637  59.9902039  55.4451599  11.3894691  58.7386971  56.2667923
  35.0534630  42.3733025  65.6557312  35.8336678  42.5705681  65.1374664
  35.1118851  41.4336128  65.8283691  40.0886459  38.2900467   4.6219978
  39.5442352  38.6650085   5.3142815  39.5358162  38.3177681   3.8410745
  72.5965881  22.1297035  16.1909962  72.6338577  23.0538483  15.9444170
  72.2486877  21.6888351  15.4158659  17.4370346  58.1952057  69.9291687
  16.6379223  58.1048889  70.4483032  17.3170700  59.0121727  69.4450150
  34.9068718  29.0765572   6.3098350  35.6792145  29.4342308   5.8719039
  35.0658226  28.1332378   6.3432331  68.1285400  39.3230324  75.1872787
  68.1686325  38.3886948  75.3913269  67.3247910  39.6261406  75.6095886
  68.0750504  64.4244843  71.1228790  68.4531326  64.6740189  71.9661026
  67.6184387  65.2105331  70.8231125  25.2554283  58.1243553   5.1543851
  25.4051819  58.8520737   4.5508676  26.0622501  57.6108017   5.1152220
  58.7059097  38.8805237  72.1657562  58.5962448  39.5679207  71.5087204
  58.0805168  38.2025833  71.9097977   1.5938406  57.7118416  49.2682915
   2.0049214  57.3346863  50.0461082   1.3209822  56.9544373  48.7504921
   8.6647425  24.4851971  55.7161484   7.7336087  24.3596630  55.5332184
   9.0304012  23.6005917  55.7152252  32.8908310  66.6551666  15.8722887
  32.5779228  66.7191315  14.9699430  33.8021393  66.9450531  15.8308954
  79.0046158  47.5372238  78.1263199  78.2774811  46.9948349  78.4318008
  78.7376404  48.4332848  78.3313293  21.4981556  28.8614101  19.0168839
  20.7705975  29.4678326  19.1552372  21.4305954  28.6126099  18.0950565
  62.7009201  26.8140297  70.8747101  63.6098022  26.8050251  70.5745773
  62.7639923  26.8789120  71.8276215  57.6196518  24.9992142  57.5814552
  57.4781036  24.1388969  57.1864243  57.2658539  25.6174889  56.9420815
  47.1606750  53.9605370  80.0614471  47.7400818  54.1871605  79.3340149
  46.3515358  54.4391212  79.8812256  68.4944382  25.1649609  33.8356972
  67.9190216  24.4235935  33.6472740  69.1741257  25.1175346  33.1633797
  25.5852871  64.9419479  27.7354965  25.9048557  65.6038818  28.3486500
  25.1785965  65.4452896  27.0301723  53.4258766  35.8210449   2.6740210
  53.4632034  35.6340103   3.6120274  53.6273308  36.7544556   2.6077094
  53.3615913  13.1330118  14.7869520  52.5386772  13.6194448  14.7376595
  53.2307358  12.5130320  15.5044012  81.7512512  20.2661381  54.2472267
  81.3008575  19.7678490  53.5652580  81.7674789  19.6781044  55.0023346
  76.0342026  56.0391312  62.2048912  76.6250763  56.4635773  62.8269386
  76.3346863  55.1309662  62.1705818  64.1395645  27.6961002  15.6476851
  63.2997856  28.1143742  15.4578228  64.5034256  27.4879055  14.7871647
  62.4209213  38.3336716  31.5472851  61.6998291  38.2590446  30.9222355
  62.2232780  39.1254425  32.0475540  16.1934872  26.7570343   9.6635637
  16.2596474  27.3264179  10.4301519  16.1836071  25.8703251  10.0239534
  34.8288841  10.4997816  13.2373066  33.8868484  10.4616127  13.0719604
  35.2283745  10.2326851  12.4094772  43.6707993  30.6901493  82.1134567
  43.5609932  31.5813580  82.4449997  44.2990952  30.7770119  81.3965683
  21.8362122  24.6235790  61.7531853  21.5755234  23.9710236  62.4031410
  22.3953285  25.2323475  62.2359085  30.8558731  55.5309753  19.3219280
  30.3030052  55.6625824  18.5517006  31.7239265  55.3439293  18.9645329
  31.8384495  66.4040604  82.0159454  31.2226105  65.7123718  82.2578964
  32.3659706  66.0207291  81.3152237  19.5314293  59.0981064  18.0153179
  18.8548679  58.4921303  17.7131710  19.9458122  59.4141235  17.2124157
  26.2774582  23.8803043  74.8976593  26.2275219  23.3448067  75.6894836
  25.9769230  23.3010254  74.1974106  60.1531677   4.4104495  80.9666901
  59.2389450   4.5177298  80.7041702  60.2010765   3.5175538  81.3082657
  63.2897453  44.0200996  32.0069923  62.5591812  44.2166710  32.5933952
  63.5007782  44.8592300  31.5976543  70.1251221  21.0045719  21.8728046
  70.4124680  21.9106159  21.7598972  70.7716675  20.6202698  22.4648590
  20.3844147  48.7818680  75.8542557  19.8718891  48.4495468  75.1172943
  21.2905960  48.7554283  75.5470657  21.6589756   3.5841603  62.0874214
  22.0441608   2.9935863  62.7347870  21.9074860   3.2085776  61.2427826
  10.9688091  68.4496689  72.4062424  10.2940168  67.8115616  72.6379929
  11.7093401  67.9191132  72.1123734  78.1495056  50.4336052  76.1746445
  77.2238693  50.6215134  76.0193481  78.1953506  49.4786873  76.2222137
   6.7772923  13.4225550  63.7304497   5.8271904  13.5351925  63.7596245
   6.9522276  12.7050343  64.3393784  36.5566940  57.0918007  16.5784435
  35.9844170  57.4780540  15.9154673  36.7780762  57.8208199  17.1578846
  58.7489853  24.4346027  72.1224442  58.4199104  23.6032639  72.4642258
  59.7011871  24.3373814  72.1319809  64.7346191  33.6419144   9.2886467
  65.2136383  33.5667648  10.1139507  64.0087128  33.0241165   9.3759289
  15.5008831  25.4081764  86.9503174  15.3943882  25.8444099  87.7956543
  14.6894407  24.9145088  86.8316422  36.1021881  54.0909309  34.4489136
  36.7568855  53.3926849  34.4415550  35.2764091  53.6430550  34.6325722
  27.3310337  44.2202454  79.6594925  26.8868942  45.0529709  79.4996643
  27.9387703  44.4064445  80.3751907  53.1548996   3.2962916  21.5188046
  52.7866898   2.9186177  20.7200470  52.9585724   2.6534357  22.2002907
   9.4592371  14.8890009   5.4959784  10.0964613  14.1906404   5.3460793
   9.1442442  14.7385597   6.3872581  74.4632187  51.9043655  17.8402767
  73.8967819  52.5260582  18.2973080  75.3493576  52.2353706  17.9866562
  65.0140076  27.6045685  54.4252090  65.3622055  26.7311573  54.6044922
  64.1723328  27.6249924  54.8806190  75.2820358  23.3716450  56.7379303
  75.8887405  22.8913822  57.3013840  75.7170639  23.3987637  55.8857307
  81.4037704  29.8534355   3.0887530  81.3168716  29.0043316   2.6555018
  81.1683578  29.6822510   4.0006242  83.8611603  43.1981583  68.7674026
  83.0849152  43.3396797  69.3092880  84.2859268  42.4318733  69.1529160
  56.8351212  43.7266922  56.0022011  56.4067574  44.3187408  56.6204376
  57.7195549  43.6152496  56.3508987  31.7516422  43.6094589  11.9295883
  30.9523087  43.9014015  11.4913368  31.8370705  44.1915283  12.6846552
  74.2145844  17.7613831   4.1741490  73.4396973  17.2425957   4.3901124
  74.4474869  18.1967773   4.9941602   4.9141445  48.7418137  73.6374969
   4.2033234  48.3241234  74.1238098   5.1898699  49.4698677  74.1944046
  64.3277969   5.5132985  32.3300400  63.6019630   6.0286775  31.9782143
  65.0350723   6.1468940  32.4506607   5.1138582  24.4628792  11.7522297
   4.6951437  24.1284199  12.5453539   4.6049862  25.2403431  11.5223770
  16.3947392  14.1740522  27.7449913  15.5467463  14.6155739  27.7918663
  17.0326099  14.8856726  27.6906681   4.7103729  51.7470779   6.0962071
   4.0605030  51.7004395   6.7974391   4.5303159  52.5786591   5.6577063
  27.5377502  57.9349709  82.8060989  26.8117580  57.6259499  83.3480148
  28.1788654  57.2248688  82.8370056   9.7617102  39.4330826  33.9820137
   9.8884850  39.3588715  34.9278755   9.0118570  40.0202599  33.8862076
  71.4050217  18.7402496  71.8135452  70.9275589  18.8109512  70.9869461
  72.2094345  18.2738438  71.5863647  63.0047379   0.6103793  49.5958328
  62.4915924  -0.1770619  49.7770805  63.9148865   0.3156167  49.6271095
  63.9280853  19.0114956  59.0322723  63.0267525  18.7857132  59.2621651
  64.3706512  18.1676292  58.9413986  35.1065025  17.7023411  73.9005966
  34.9321709  18.4866657  73.3803329  36.0169373  17.4818573  73.7037964
  42.4028473  67.3169785  81.4866333  43.2567787  66.9062500  81.6220474
  42.0812225  66.9369354  80.6691055  67.5767975  30.5462513  84.9339523
  67.0531006  29.7979221  85.2202759  67.3583908  31.2424889  85.5534515
  64.2224274  17.6522064   9.0829220  64.9152298  17.5949688   9.7409277
  63.4690666  18.0026417   9.5581894   1.2710981  69.4295197   5.6541910
   2.0589287  69.4011917   5.1112800   1.0867606  68.5123520   5.8568282
  15.8701353  67.6332779  75.3268204  15.0788260  67.2683411  74.9307404
  15.6570578  67.7145386  76.2564621  36.4111938   3.8288903  27.5502243
  37.2990379   3.4953399  27.6794930  36.0182076   3.8083410  28.4227886
  71.1547165  25.9110680  67.2401047  70.7975311  25.7523308  68.1138611
  70.4873352  26.4380436  66.8006363  56.8162880  63.8199234  24.6818027
  55.8710403  63.6823654  24.6200542  56.9291306  64.7633209  24.5655823
  41.1601677  10.5404720  78.5891495  41.8121872  10.7324133  79.2631454
  40.3270493  10.8040276  78.9798965  71.9279404  29.2842922  15.4961681
  72.0650253  28.3425407  15.3934984  72.7662888  29.6145611  15.8191442
  72.0691681   3.1643312  55.9931984  71.5176544   2.6665885  56.5967827
  72.8141556   3.4443491  56.5250015  81.9289932  42.2935562  20.5144787
  82.3924408  42.4665756  19.6950188  81.0491257  42.0334320  20.2417164
  60.9569168  17.1851730  11.0302992  60.5093575  17.0410919  10.1965342
  60.3178444  17.6535282  11.5673838  20.1865673  45.2813187  51.9193268
  20.3157749  45.8312950  51.1466255  20.7919674  45.6365662  52.5701103
  64.0893402  46.6882515  63.8466759  63.2837105  46.4566345  63.3845711
  63.8021431  47.2654457  64.5541992   8.8410463   7.0240855  38.9532814
   8.6532946   6.1682029  39.3385658   9.7966843   7.0671878  38.9196739
  76.8863754  21.6911850  42.3174820  76.7178497  22.6182785  42.1491699
  76.0532761  21.2585068  42.1304855  73.3711777  41.3344383  59.3467407
  72.8889084  41.8094368  58.6699715  73.1462479  40.4155502  59.2008553
   0.8182529  39.5866508  78.5125656   1.2984058  38.7979660  78.7648773
   0.4617346  39.9232826  79.3346405  42.8203049  41.5437279  82.5045242
  42.6483231  40.9819260  81.7488556  43.5314217  41.1054459  82.9719086
  82.9435272  61.7378006  76.7864532  82.7808762  61.8892479  75.8554077
  82.1687393  61.2655220  77.0912247  36.9258995   4.8357315  19.3212166
  37.2028732   5.4228783  18.6178131  37.3107681   3.9896882  19.0924816
  58.5062256   7.3460612  32.0321770  59.3538208   7.7141833  32.2817879
  58.5904694   7.1639266  31.0962505  78.4124985  55.6626129  51.6091766
  78.6961899  56.1561775  52.3786850  78.0958252  56.3296967  51.0001221
   2.8675435   7.7107630  15.8575745   3.3522329   7.9989696  16.6310368
   3.4883242   7.1641464  15.3758345  47.7462120  29.6648045   9.6813841
  48.5401344  29.7408199   9.1521015  48.0545845  29.3534374  10.5323772
  41.0375481  48.7753181  63.3299065  41.1152229  48.0633812  63.9649963
  41.7883873  49.3407402  63.5109253  66.1143646  67.5095520  61.9593964
  65.7911224  68.2813263  62.4242783  67.0632629  67.6305771  61.9251175
  46.3509903  24.6243076  15.5446615  46.1684952  24.2051678  14.7036800
  46.2206192  25.5582027  15.3801174  64.4365616  63.2183952  77.8452530
  63.5397568  63.3246422  78.1625595  64.9772644  63.2708092  78.6333694
  25.4763298  23.0477142  70.2635040  25.2968082  23.1235409  69.3263474
  26.4106216  23.2393932  70.3446732  58.7820587  25.2601032  42.5545616
  58.9398918  26.0427418  43.0825729  57.9404984  25.4240227  42.1289558
  18.6608067  44.7735786  85.6175919  18.6223373  43.8177414  85.6511917
  19.4834709  44.9956512  86.0536423  79.0239182  43.8816071  25.0945511
  79.7133560  44.0272636  25.7423859  79.3426971  44.3164330  24.3036423
  80.2586594  62.8994179  10.8336592  80.3639832  62.1542549  11.4251566
  81.1019974  63.3511200  10.8649445  60.5946274  71.1500931  53.8675613
  60.4833794  71.2271347  52.9199753  59.7465630  71.4064560  54.2299118
   2.0852668  10.1984310  18.1651325   2.7233086   9.6115294  17.7593231
   2.5140450  11.0542231  18.1665440  34.3194809  46.0219574  88.4180908
  34.2581902  45.4526176  89.1851120  34.8478699  45.5256462  87.7930222
  74.0014572   6.4342184  47.9098969  74.2488480   7.3444128  48.0729218
  74.6816788   5.9196415  48.3443413   3.9943554   0.6937185  48.9854012
   3.2577946   0.6714430  49.5963135   4.1123576  -0.2181026  48.7191505
  78.6567078  25.6599998  60.9840508  78.6405792  25.4390411  60.0528450
  77.9171982  25.1800900  61.3569336  35.9187355  63.9725342  48.1335449
  36.6258278  63.9768829  48.7787056  35.6057320  63.0679779  48.1273384
  76.5626984  51.3952789  83.9690704  76.6662216  52.0138741  84.6921539
  76.2718811  50.5847511  84.3870468  78.4352951  65.3572540   3.0779498
  77.7459335  65.3741684   2.4140778  79.0998383  64.7696838   2.7182634
  39.0630836   7.0484452   9.0956926  39.3121681   7.8357582   9.5797663
  38.7270317   7.3764148   8.2615852  32.6835747  63.8686485  85.1612854
  31.8042736  63.7012367  84.8221207  32.7103920  64.8153000  85.3004532
  29.2654743  49.7285843  87.3307953  28.8380280  49.3329964  88.0904236
  30.1523972  49.9268188  87.6313019  32.5131531  24.7044220  80.1362457
  32.3972015  24.9176807  79.2103348  32.5597229  25.5544815  80.5738144
  67.3972397   6.2187443  57.0341454  67.0427017   6.9877014  57.4805069
  67.0310287   5.4744701  57.5118217  27.7529202  45.0661354  57.1192322
  28.1091309  44.5252762  57.8240852  28.4273987  45.7263336  56.9597015
  29.9547539   6.6260753  43.5143776  30.4038906   5.8769102  43.1228943
  30.6570015   7.2382860  43.7341003  30.7405853  65.3724060  37.6535568
  30.9144955  64.4771957  37.3627319  29.8520565  65.5551529  37.3480186
  70.0846634  55.3741417  16.4213715  70.3371353  55.4306717  17.3429432
  70.7713623  55.8509865  15.9552240  63.3535118   0.7319734  81.2477951
  63.1573792  -0.1994027  81.3492966  63.4769897   0.8494774  80.3058929
   6.0332894  42.4789047   6.9325929   6.6255746  42.0498810   7.5501451
   5.7391133  41.7750015   6.3544817  22.7869129  62.7136307  53.6585007
  23.1911678  62.2956429  52.8981781  22.6920433  62.0075340  54.2977676
  51.9607925  12.6076279  68.5176086  51.4004364  11.8404951  68.6348267
  51.6328163  13.0242853  67.7207031  21.4068413  36.9541397  10.3472214
  21.9338913  36.5609322  11.0428047  20.5170956  36.9684677  10.6998920
  44.2051392  36.5019493  22.9291191  43.6537971  36.7140198  23.6822987
  43.6835175  36.7617302  22.1697426  24.1736507  38.5627327  12.7640390
  24.2583580  37.6109200  12.8197699  25.0712433  38.8876266  12.8347912
  64.5969620  62.2439194  43.5623817  65.0606232  61.5678291  43.0682564
  64.0926437  61.7594643  44.2159805  67.1059570  60.1259880  59.7410851
  66.5727615  60.1538582  58.9466286  68.0087357  60.1627312  59.4250565
   0.4958041  63.3659935  19.4711380   0.4998776  64.1769257  19.9796677
  -0.1746914  62.8250427  19.8883152  21.7907734  43.5965118   6.7369366
  22.1591549  44.2977638   6.1995606  21.0092125  43.3155060   6.2610908
  44.9433250   6.0230236  20.2159901  45.3834648   5.4861665  20.8750000
  45.0178452   6.9179363  20.5473671   9.0647287  40.0305710  25.6033936
   9.3611765  40.6996613  26.2203808   9.2892361  40.3826866  24.7420902
  16.3362083   5.2217312  35.2224579  15.9425106   4.7570662  35.9609184
  15.6940651   5.1388073  34.5174713  68.9922714  18.5389748  20.1718369
  69.8912582  18.3731880  19.8879986  69.0536194  19.3248825  20.7148113
  15.7173300  63.0920105  41.6932793  16.0590973  63.7480965  42.3007164
  15.9088726  62.2536392  42.1136055  12.7542639   3.3851573  46.5172348
  13.4415426   2.7203221  46.4739571  13.2255821   4.2181559  46.5029373
   6.0696416   9.9601049  34.5367699   6.2141099  10.3647623  33.6814232
   6.9149480  10.0296068  34.9804573  30.0711346  69.8206329  88.4203186
  30.9411964  69.4899826  88.6436844  30.0391140  69.7839432  87.4643555
  29.1891842  52.5226555  83.2198868  28.8152943  53.3675575  82.9697189
  28.6708221  52.2456131  83.9753799  45.9563141  37.2892189  83.6642609
  46.5282669  37.9768257  83.3232346  45.5684090  37.6693764  84.4524536
  70.5838928  31.4401474  74.0840454  71.2148132  31.2111187  73.4016113
  70.2017517  30.6030560  74.3476334  60.3904037  29.6128197  53.2515907
  61.2530746  29.9505997  53.0108986  60.0584106  30.2398357  53.8941345
  20.4447174  28.9282131  85.3070984  20.2420788  29.3974056  86.1164398
  19.5930862  28.7822781  84.8952026  24.0668392   4.8956084  78.7437134
  23.3287849   4.8744493  78.1345673  24.6018410   4.1408453  78.4980698
  40.2270126  41.7305336  16.4521656  39.7816849  40.9151039  16.2219658
  40.9067001  41.4655495  17.0718746  78.4727097   6.3967919   0.7626696
  78.9945450   6.3766460   1.5648615  77.9028015   5.6305518   0.8283651
  82.6700439  54.5346146  79.3142166  83.0908279  55.3891258  79.4090042
  83.3962097  53.9114723  79.2895737  63.8059845   5.3281140  57.9358673
  63.2855415   6.0887184  58.1944237  63.1632996   4.6303492  57.8081589
  21.9397068  61.6617203  21.7687054  22.7371006  62.1640549  21.9362068
  21.2317524  62.2246780  22.0819263  81.9847641  11.9596205   2.5854223
  81.4975433  12.6383505   2.1183338  81.8622131  11.1705942   2.0575495
   5.6211205  38.1351776  53.4969864   6.4894876  37.8275452  53.7568550
   5.1506672  38.2499275  54.3226585  50.8603020  41.7132607  43.9992409
  51.7525940  41.6033096  43.6706734  50.7778053  42.6535416  44.1582985
  16.2022972  34.4522743  84.7790985  15.8480711  34.5853844  83.8998718
  17.1289806  34.6789017  84.7008133  35.2605820  70.2124176  51.7807312
  34.9791183  70.3818130  50.8816681  34.4460716  70.0799332  52.2657623
  10.5818739  36.9273262   0.0029022  11.4929113  37.1069870  -0.2294017
  10.5114565  37.1936417   0.9196082  43.5962372  50.4198265  13.7630405
  43.0788383  51.1379242  14.1275511  42.9732857  49.6990929  13.6697264
  48.4308968  17.2048988  44.0023041  48.9280853  17.1382236  43.1870804
  48.7602806  16.4870853  44.5431213  25.6521931  47.4278030   8.7917728
  26.0262032  47.6087074   9.6541080  26.3682690  47.0263023   8.2995682
  55.1150208  11.0014296  21.8302975  54.2740898  11.4508352  21.9145966
  55.6388626  11.5761900  21.2722034  18.2600746  61.3459206  39.6152382
  18.5161362  61.3697090  40.5372429  18.1884422  60.4136162  39.4105301
  48.5586662  10.3934278  74.2192993  48.9134369  10.7589979  73.4089127
  47.7938614  10.9357882  74.4120560  85.2963715   2.5204327  16.3742199
  84.4416351   2.3239841  16.7577038  85.8506775   2.7384038  17.1235275
  35.2933807  46.5173988  17.4580097  35.4250374  46.3971519  16.5175648
  36.0930138  46.1750298  17.8575096  73.3106155  58.5799065  51.5959854
  72.8670807  59.4155655  51.7415047  73.5271988  58.5828667  50.6636162
  -0.1108844  10.8635225  46.3554993   0.5395986  11.2237082  46.9582977
   0.2651013  10.0321522  46.0662079  30.3827820  13.6387262   7.7797375
  31.3381481  13.6473045   7.8383265  30.1925163  13.0409765   7.0567398
  21.1594887  45.7185059  25.6812344  21.7598419  46.0944557  25.0374393
  20.8193264  44.9294815  25.2593784  47.0551758  25.0430393   2.7102787
  47.6628723  25.3281517   3.3926630  46.2014847  25.3645458   3.0002310
   3.2745306  25.2997475  44.5891571   3.3898432  25.0113564  45.4945641
   4.0673909  25.7992992  44.3940849  73.8379822  69.1417694  27.4236870
  74.5968170  68.8803253  27.9452724  73.6951294  68.4089737  26.8246593
  22.0484123  68.8021164  31.1825790  21.8006439  67.9215012  31.4642792
  22.9687443  68.8835449  31.4327621  18.1469746  57.5881119  37.4590759
  17.6922054  57.9347420  36.6914406  17.6318111  56.8240089  37.7178955
  18.1544628  62.6968689  37.1668282  18.3135910  61.9824409  36.5499802
  18.1936226  62.2823257  38.0287170  85.4777832  64.5534744  27.0384617
  86.0482559  63.7941017  27.1573963  86.0481262  65.3073807  27.1886787
  58.4306488  67.4457703  54.1020546  58.4193344  68.2669067  53.6102982
  58.9390221  67.6444778  54.8883781  14.3280077   1.4645422  42.3480148
  14.5654917   0.6151248  41.9760971  14.7075434   1.4558188  43.2267113
  53.0294380  22.1221466   8.4701004  53.5174561  22.9439583   8.4182320
  52.6977310  22.0968018   9.3676310  27.5723572  29.1288681  79.9598312
  28.3252487  29.7043285  79.8247986  26.8779335  29.5135078  79.4249878
   9.7108135  31.5375862  17.3759518  10.3703041  31.9056244  17.9640427
   8.8818188  31.8990574  17.6895390  73.2094803  69.1857681  66.4043427
  73.9252777  69.0824738  65.7772827  73.3488541  68.4875107  67.0440598
   7.9394646  31.3864708  23.3410778   8.2129049  31.1349754  24.2232418
   7.9985428  30.5778122  22.8323402  53.9075012  13.6598406   4.4023147
  54.1773987  13.2202158   3.5960162  54.5339050  13.3587561   5.0604939
  26.0097980   6.1396337  73.2932587  25.1997643   6.5387340  72.9757767
  26.4456253   5.8209939  72.5028458  56.8478775  26.2602615  85.4585800
  56.2553444  25.6101456  85.8360519  57.4003906  26.5343552  86.1905899
   2.0938592   0.6454608  62.2387886   1.7230015   1.4105693  62.6784554
   1.7178886   0.6692364  61.3588371  15.7644567  30.9192944  32.5301628
  15.2703409  31.1101322  33.3274460  15.4309092  30.0706367  32.2390289
  42.0278244  55.7547264  37.3211021  41.2754440  56.2350998  36.9755592
  41.6558380  55.1694031  37.9808350  14.2882900  70.7704163   6.3961506
  14.5365257  71.3392258   5.6674070  14.6822910  69.9241486   6.1844182
  10.0257778  25.6428509  25.0018921  10.0036383  25.6863079  24.0459347
  10.9479570  25.7676716  25.2260323  73.5724869  37.3339500  61.0804138
  73.2020264  37.3390007  61.9630013  73.2971802  36.4954109  60.7098923
  26.5085106  37.9449310  87.0807800  25.6912842  38.1802902  87.5200729
  26.8845863  38.7824173  86.8098221  18.5896816  70.8178177  70.0909653
  19.5270271  70.7537384  69.9079132  18.4399929  70.1890717  70.7970123
  14.2376175  65.4172287  28.1082287  13.8562393  65.9155960  28.8310146
  15.0480213  65.0561981  28.4675827  81.4550858  49.6870193   1.2835737
  81.1221695  49.3052864   2.0957789  80.6699829  49.8915558   0.7756286
  24.8815422   7.5855341  88.1598053  24.3960400   7.2085385  87.4260483
  24.5660782   7.1073689  88.9266586  65.1724701  32.3135376  28.3707123
  64.4561920  32.6705322  28.8958187  65.8568039  32.1076813  29.0075359
  65.9133835  67.0839310   7.6269441  66.1881866  66.5149536   8.3459549
  64.9614944  67.1359787   7.7130847   3.6488111  27.2188892  25.8722572
   3.1364980  26.4159374  25.9673100   3.2675986  27.8230572  26.5093536
  17.5272007  61.3984413  74.5807953  17.2385197  62.2715683  74.3151932
  17.7248116  60.9509277  73.7580566  37.2276497  22.7165737  87.0119553
  38.0485649  22.2801800  87.2397385  36.5475693  22.1627140  87.3953094
  43.0761108  65.3017197  42.2662621  43.0047302  64.9680634  41.3719406
  43.8530922  64.8701401  42.6216125  52.3499222  43.0763016  33.6376114
  51.6400757  43.7165146  33.5878563  52.2959747  42.5942497  32.8124199
  58.8571358  47.5092201  80.4824829  59.7453346  47.1759949  80.3548279
  58.4664307  46.9115829  81.1199875  19.4053860  42.1392365  14.1923647
  19.8499622  41.4339561  14.6626472  18.8072624  42.5171661  14.8370733
  48.5136833  48.4832573  79.2157974  49.1777496  48.3179131  78.5465393
  48.7727890  49.3163109  79.6096420  44.1122894  34.6327667  69.6374130
  43.8674622  33.7377968  69.4022141  44.2000885  35.0853691  68.7985611
  49.0335732   7.8629804  13.5611258  48.2482719   7.9039760  14.1068869
  49.7568626   7.8095660  14.1858101  34.3005295  57.8604507  50.9585304
  33.8000565  57.0838585  51.2088585  34.4882698  57.7348480  50.0283661
  84.9159164  70.5678940  70.2352142  85.5737000  70.5008087  70.9273453
  84.7304688  71.5047607  70.1710358  15.2138567  10.1851339  81.1401443
  15.5160666  10.3997746  80.2576370  15.9174004  10.4875879  81.7144089
  10.7713318   0.0083257  47.7871819  10.1733599  -0.2979610  48.4689789
  11.3447981   0.6312113  48.2337036  39.8162270  49.2764244  82.9676590
  40.0810013  48.7148094  83.6961594  39.5057182  48.6682014  82.2969284
  16.0493641  48.0714760  61.8568497  15.0951052  48.1377907  61.8918419
  16.2433624  47.8912888  60.9369965  81.7754211  41.3065109  50.4163437
  81.7330475  40.3512230  50.3732338  80.8729706  41.5928802  50.2755890
   4.7478681  58.2917709  58.6571732   5.2748775  58.8741455  59.2042847
   4.0721254  57.9562073  59.2462387  -0.0328526   7.5613060   1.2424749
   0.5370415   8.1739721   0.7776170   0.5494369   7.1080976   1.8522066
  23.3799496  65.5626221  76.7232285  23.9323158  65.9710922  76.0566940
  23.6265182  65.9987946  77.5388184  35.9254646  41.3471069  50.3209305
  35.7421265  42.2220154  50.6632080  36.8756676  41.2562637  50.3923035
  56.3862343   5.8577662  73.4742050  55.6749001   6.3373828  73.0497055
  55.9862289   5.4795899  74.2572861  67.4370651  26.5584488  14.8016310
  66.8585968  26.5029678  15.5622435  68.3127060  26.6631756  15.1738043
  68.7923737  70.0619125  66.2339630  69.2279968  70.5127029  66.9573364
  69.2421951  69.2193298  66.1712265  58.0193672  64.7551041  66.2174225
  57.3132172  64.9837341  66.8218384  57.6205978  64.8155670  65.3493500
  82.8955078  50.5712090  51.3688812  82.8451157  49.8817787  52.0309830
  83.6798019  50.3600235  50.8624077  77.3720322  14.3147898  58.5367203
  76.6551590  14.9112892  58.7524071  77.2336502  14.0974922  57.6148376
  53.9466896  35.0474243  46.8668823  53.9750443  35.5420685  47.6858788
  54.0898438  34.1385651  47.1309128  83.9313431  48.0046539  32.9972878
  84.2628479  47.3685722  33.6311150  83.8540497  48.8194275  33.4936752
  81.0316086  37.5636024   2.5288188  80.7273941  38.3884468   2.1502440
  81.3712769  37.8062744   3.3901939  83.5237579  41.4635887  48.2714729
  82.8780289  41.0134048  47.7268677  83.0688934  41.6254005  49.0980034
  59.2037163  70.2422867  41.4177017  59.9704361  70.5185852  40.9156761
  58.7782822  69.5874023  40.8641968  30.6694298   5.8005633  81.2294693
  30.4722824   6.7022319  80.9757767  30.5607224   5.7900863  82.1804199
  72.5841293   4.5943375  22.1276703  73.4082794   4.1129704  22.2004166
  72.4174957   4.6430535  21.1863480  82.4832382  12.6305389  59.9655495
  82.4626160  12.3518724  59.0500450  83.1680222  12.0934029  60.3640366
   9.9839745   2.5239201  77.2054596   9.1534166   2.1434462  77.4911880
  10.6208296   2.2230220  77.8536148  71.1042328  23.4770279  37.8968124
  70.8280716  24.3242836  37.5473518  70.3211517  23.1261120  38.3209152
  66.5598907   5.8129845  39.1748505  66.5524368   6.4411831  39.8970299
  67.4736099   5.7852082  38.8909874  50.7237282  47.7797050  72.4197769
  49.7891006  47.5732384  72.4111404  50.8995743  48.1306038  71.5467453
  63.8100739  24.3331032  30.1560993  63.9896011  23.4560642  30.4949284
  64.5822830  24.8452854  30.3960743  50.6606522  15.1123905  30.8781223
  50.4747009  15.2669191  31.8042850  50.4349060  14.1926975  30.7387104
  54.3889847  29.8705654  26.4770641  54.1361160  30.7684879  26.6915932
  55.3350906  29.8474064  26.6205215  20.0610294  39.4121437  33.7575569
  19.4008636  39.5013046  34.4449158  20.8009052  38.9856949  34.1899414
  80.4681168  13.3110609  81.3184662  80.2894592  13.1396685  80.3938370
  81.3613892  13.6547890  81.3301086   0.4105042  29.7418804  31.7723923
   0.0536470  30.3283463  32.4394302   0.5013967  28.8995628  32.2178917
  11.4839888  27.6684666  29.3714561  11.3973818  28.4999580  29.8376694
  11.2112513  27.0075169  30.0078449  60.4435043  47.0416603  17.3854122
  60.3195457  47.9774361  17.2266865  60.0482826  46.6153259  16.6249714
  75.0761566  70.6416855  17.3112087  74.3015366  71.1533051  17.0778866
  74.8154755  70.1556778  18.0935612   4.0988574  50.5973282  24.9712849
   4.1421762  51.0077400  24.1076202   3.4256613  51.0923347  25.4381981
  39.2092018  32.2299271   0.3000093  39.3791122  31.3912067   0.7288560
  38.2965126  32.1737022   0.0170525  57.3941002  31.3453445  84.4448929
  58.3371353  31.5062447  84.4128265  57.3019829  30.4173660  84.2290192
  75.8286667  60.5865440  79.3831940  74.9450760  60.9546280  79.3866653
  76.2154312  60.8998337  78.5655823  58.2844391  50.3703308  73.7698517
  57.4346581  50.1641769  73.3804855  58.6402206  51.0642548  73.2147675
   1.9050369  46.7377281  52.5094070   2.7873046  46.3701057  52.5612679
   1.7606744  47.1359863  53.3677673  86.7999649  64.0160599  24.0052261
  86.9890213  63.1001587  24.2092323  85.8565521  64.0358582  23.8446007
   0.1571660   3.4924419  78.5952682  -0.0016087   4.4259448  78.4552917
   0.3858946   3.1558392  77.7288895  57.0422249  37.3936348  34.9695549
  56.5411873  36.7601128  34.4558945  57.7968864  37.6044464  34.4197540
  38.5079460   3.1783791  70.0401001  38.2759666   3.3011003  70.9606171
  37.7831650   3.5736940  69.5556870   4.4970026  28.1596794  36.0162506
   4.5300217  27.4146824  35.4161491   5.0078502  27.8785839  36.7753639
   9.5439386  49.6630363  83.5050964   9.5261898  50.5232773  83.0856934
  10.2229404  49.7374649  84.1756592  43.3299828  16.6511707  69.3129425
  43.9536362  16.7502308  70.0323029  42.8465347  15.8522816  69.5233917
   5.1493592  45.4307518  58.8225479   5.6351733  45.4763908  59.6460381
   4.8184714  44.5331879  58.7890968  20.4720592  63.4667931  40.0459709
  20.2989082  64.3513107  40.3682747  19.6699352  63.2179146  39.5867424
  60.5541649  22.3016167  59.1603165  60.1879501  21.4628124  59.4405365
  61.4797020  22.1173420  59.0001373  50.1033363   7.8290014  40.7626762
  49.6786423   7.7682586  41.6183510  51.0219688   7.6234012  40.9361000
  43.9505272  31.6939049  20.9765930  44.3182068  32.5774765  20.9950981
  44.1424637  31.3364086  21.8435364  44.8747292   7.9498024  72.1066895
  45.2078857   7.0534983  72.0633621  45.4514885   8.4479647  71.5275345
  42.2623482  16.4624538  79.6960449  42.0144539  15.6784573  79.2060089
  43.0609169  16.2120171  80.1605835  56.4967651  70.8451691  11.1746941
  56.5853920  70.6744003  12.1123590  55.5782433  70.6563339  10.9826174
  32.3066902   8.6527929   7.8292336  32.3969269   9.5542288   8.1382666
  32.2523727   8.1297140   8.6290274  48.9939194  55.6256981  35.8599854
  48.1436234  55.4322548  36.2547112  49.6065979  55.6183739  36.5953789
   6.2491784  37.0091705  60.2531815   6.7952285  36.6769142  59.5406723
   5.3874865  37.1350708  59.8558540  31.0935440  40.9601631  49.5379868
  31.3820133  41.6896515  50.0864944  31.2446213  40.1823425  50.0750237
  21.0528431  44.2967491  82.4515381  20.4646797  43.5932770  82.1769104
  21.5241013  43.9355354  83.2023163   3.1779058  24.8462448   2.9159877
   3.2703550  24.7323589   3.8618815   4.0632901  25.0444164   2.6109381
  47.0657806  42.3088112  16.0741386  47.8872795  42.7209969  15.8067961
  47.2767143  41.8649826  16.8955727  52.8550301  12.5072536  17.2789898
  51.9640274  12.8508778  17.3443375  52.7861633  11.6031618  17.5857601
  35.3226051  27.7353725   2.9291861  35.7788544  26.9647770   3.2671938
  35.9224472  28.4619999   3.0978136  26.6748276  29.8055458  63.5651131
  27.5247116  29.9394665  63.9846306  26.5957680  30.5320244  62.9468803
  64.6738358  38.3789940  15.0751324  65.5305634  38.1456413  14.7176466
  64.3482513  37.5679626  15.4655838  60.9820938  18.6889553  54.8133659
  60.3537483  18.9989071  55.4655495  60.4680901  18.5947552  54.0113945
  68.5670090  41.6705856  34.5845451  69.2005310  42.3508072  34.8129654
  69.0930405  40.9776993  34.1852646  21.5229149  58.6286774  24.2991219
  21.3439846  58.3444481  23.4027786  21.2767677  59.5536156  24.3107357
  66.9320755  45.1539955  65.5678558  66.3401871  45.7041283  65.0547638
  66.3625946  44.7116814  66.1973648  35.5399208  65.1488037  33.5007782
  35.5777779  66.1047974  33.5302887  36.4523048  64.8704147  33.5800629
  86.0538559  36.8474236  12.8171988  85.4587402  36.0985069  12.8517208
  86.3345337  36.8883705  11.9029903  34.5208778  52.2205887  48.4671059
  34.6825447  52.3902817  47.5390434  33.6164970  52.5008125  48.6078339
  33.6372414  65.7271194  48.9356689  34.0673103  66.2514648  49.6111946
  34.3315468  65.1665192  48.5894012  12.3764486  21.8698025  26.6832161
  11.6943092  21.2408276  26.9183941  12.8862705  21.4275837  26.0044270
  18.9333096  48.6708221  81.2528152  18.0327454  48.4065704  81.0646973
  19.3687439  48.6612625  80.4004440  84.0970535  62.0960655  66.5432205
  84.3599625  62.4608803  65.6982193  83.1984787  62.4018211  66.6669617
   9.1976166  47.1918068  63.0477905   8.5990648  47.8463135  62.6878052
   9.5887032  47.6184959  63.8101692  10.6052465  31.2013931  85.9346466
  10.6665821  30.2776031  86.1777039  11.5064745  31.5209274  85.9784393
   6.0658574  46.3323288  13.3695793   6.1548901  46.2444801  14.3185720
   5.1281047  46.2309151  13.2065859  30.6250954  43.5303192   8.3812122
  30.9337044  42.6844101   8.0565147  29.7416172  43.6165009   8.0230618
   8.3908377   9.8733387   0.7902040   9.0980520  10.3597269   0.3665220
   7.5900931  10.2969227   0.4809852  48.0186386  33.9784164  18.7826519
  48.6940575  33.6448898  19.3732471  47.5904198  34.6763763  19.2783413
  50.5984573  38.2057724  49.2533798  51.0416985  37.3651657  49.3680267
  50.6356544  38.3695946  48.3110352  82.8473816  16.6739082   1.5660442
  82.1212845  16.5077076   0.9648793  83.6203308  16.3504906   1.1032450
   9.1668015  47.9376831  65.9496155   9.0747490  48.5320549  66.6942520
   8.6177206  47.1863060  66.1736069  37.5855141  55.0980186  15.1226606
  37.5050468  54.2227325  15.5016489  37.1977196  55.6789742  15.7771339
  83.3717194  30.8037910  19.0774937  84.1128235  30.3905945  18.6344833
  83.7570267  31.2273102  19.8445663  25.0215340   0.4602861  14.4525223
  25.6630611   1.0958259  14.1350899  24.2203960   0.9695445  14.5752649
  10.7535515  19.9168110  27.9314098  10.2469425  19.6570797  28.7009010
  10.2499113  19.5827408  27.1891308  33.3174896  62.0336075   2.9095037
  32.5259628  62.3411980   3.3512096  33.0231934  61.7921104   2.0312672
  26.8577557  56.8495789  26.7339172  26.9855690  57.4962463  26.0398598
  26.0008755  56.4653893  26.5484829  20.8454914  62.8607597  75.3297195
  20.9558830  63.8111153  75.3002243  20.1461468  62.6812553  74.7012863
  75.8422623  69.0395050   1.4405532  75.3802490  69.8303375   1.1624207
  76.0117493  68.5628357   0.6279663   2.9790673  51.5059509  33.7889938
   2.4453175  52.0969315  34.3201141   3.8430486  51.9174309  33.7677422
   6.2597656  64.9382553  47.8700867   6.6968918  65.6587830  48.3239479
   6.1538877  65.2503738  46.9714203  58.7065201   4.1327448  32.3234215
  58.9823608   3.2434440  32.1014099  59.5062370   4.5630794  32.6259117
  37.6328621  40.1726036  64.2109146  38.2024727  40.9417763  64.2229919
  38.1506042  39.4980240  63.7714653  57.3318024  12.8807487  20.9080696
  57.1896553  13.5510435  21.5764484  58.1331711  12.4349823  21.1825314
   6.4915981  38.4194756  26.6997299   7.1857634  39.0401878  26.4781876
   6.2397513  38.0325050  25.8612423  46.6230621  30.7891254  32.6349449
  46.6968117  31.4409084  33.3320618  47.5158539  30.4658642  32.5138702
  28.6694851  48.6838493  35.8408241  27.9193497  48.4918709  35.2780838
  28.7195892  49.6396255  35.8553772  22.9442978  48.5553246  74.9233475
  22.9361420  48.3326797  73.9924316  23.8242474  48.3206482  75.2180405
  21.7447834  47.7240753  28.1766186  22.4718590  47.4473534  27.6189270
  21.0457134  47.0983810  27.9867764  12.4262848  18.0922031  14.2943869
  11.9974556  18.5741749  15.0015221  11.7575426  18.0208473  13.6132669
  57.1916542  63.9662743  84.2924118  57.9930954  63.4585381  84.4194183
  57.4110031  64.8429642  84.6079025  82.7241669  27.9701080  55.1282272
  82.1789169  27.1922321  55.2458725  83.6193314  27.6325855  55.0965996
  35.9535065  60.0225258   0.7272429  35.1402931  60.4855499   0.9285514
  35.9885902  60.0048180  -0.2291499  77.6909180  35.7650681  51.5978508
  77.4145660  34.8706589  51.7975807  78.1247025  35.6974220  50.7472725
  51.3450317  33.0297127  15.4726028  51.7243042  33.8750153  15.2320805
  51.9136314  32.3840065  15.0530949  18.0945148  17.8339825  21.9196014
  17.4553490  17.1221142  21.9502697  17.6252785  18.5923347  22.2673798
  55.3621368   3.4450250  34.5516243  55.5297928   3.8703325  35.3926010
  54.8020897   2.6994512  34.7677231  60.2249413  70.7647552  45.7972221
  59.9515114  71.5274048  45.2874832  60.3282471  70.0679855  45.1490898
  12.4296646  71.7078781  10.7883644  12.9087420  71.7135773   9.9597006
  12.5897827  70.8368683  11.1516056  19.0322247  46.7121544  19.5585384
  18.6154652  47.2901688  18.9194431  19.4199600  47.3059273  20.2014446
  11.7225752  39.1115608  71.0598679  11.5797281  40.0450630  70.9036636
  12.5393362  39.0742378  71.5576019   0.8949397   5.3819523  15.4327269
   1.0325106   4.4398208  15.5311880   0.9480566   5.7262273  16.3242893
  13.9992886  25.3817520  17.4910374  14.8046055  25.8338757  17.7425957
  14.2626400  24.4684544  17.3780670  14.9236832  46.0787048  11.0037174
  15.4376984  45.4207954  10.5355558  15.5729256  46.5929680  11.4835615
  84.8003082  48.1673927  47.4164352  84.0278015  47.6473885  47.1949615
  85.5209808  47.5374222  47.4169960  62.8011475  40.4547691  34.9018021
  62.7372093  39.5345459  35.1574135  63.7408257  40.6139069  34.8128586
  52.2559013  66.6084213  52.5368500  52.5010719  66.4773865  53.4527931
  51.9276199  65.7554550  52.2523994  78.9570389   2.4449632  68.4196014
  78.4691315   1.9669425  69.0901794  78.4821167   3.2700901  68.3203583
  74.8065643  69.9483795  71.0598145  74.2638016  69.1636353  70.9835434
  74.9965591  70.1970367  70.1552124  81.5177612  38.9009438  59.0164070
  81.7196503  39.0238152  58.0888405  81.6477890  37.9647903  59.1678619
  60.7102318  24.8095379  78.6561584  61.1877670  24.2163963  78.0761795
  60.9099655  25.6838856  78.3217163  23.2486401  16.7117996  49.9688225
  23.2859707  16.5105629  49.0337601  23.0883808  15.8670206  50.3894119
  56.3484459  64.3550568  31.0473137  56.5794525  64.0353622  30.1751537
  55.8254280  63.6505547  31.4298878  32.9125061  53.2090759  79.3542099
  33.5193520  53.9440460  79.4424744  32.0529633  53.6186523  79.2559204
  52.7137566   6.1628785  11.0229807  53.2065086   6.8874540  10.6377306
  52.6552620   5.5135965  10.3220930   3.8434100  50.7030716  79.8264313
   3.4561818  49.9301872  79.4154129   3.0947106  51.2561378  80.0495911
  61.7073898  37.8820992  82.2462769  60.8823395  37.4162407  82.1102676
  61.6820908  38.6027985  81.6168442  44.8085289   1.3566824  22.9489117
  45.0558052   1.2470872  22.0307217  44.0380096   1.9240301  22.9233742
  85.4543304  26.0970707   7.0789795  85.4732895  26.0313148   8.0337296
  85.0948792  26.9671707   6.9059148  56.1304436   3.4908595   3.2340910
  56.4391899   2.9378276   3.9517715  56.9297180   3.8406935   2.8403764
  14.7085295  42.5509949  69.0392227  14.9933939  41.7327652  69.4461441
  14.6108818  42.3358803  68.1116333  49.4872780  66.1988373  68.8951492
  49.7698402  65.5052795  69.4912796  49.3987961  65.7642517  68.0468903
  75.6567917  56.3248596  55.3094559  75.3912277  56.1813087  54.4011078
  74.9699326  56.8827133  55.6744995  34.8945351  40.7282333  79.6799774
  35.5156593  41.2457275  80.1924591  35.0681534  39.8225937  79.9366989
  17.4118862  64.4455109  43.2717247  17.5706539  64.2423019  44.1935310
  18.2838860  64.4668350  42.8775253  58.8800354  22.3121052  37.9164734
  59.6816406  22.5494003  37.4502640  59.0039635  21.3930359  38.1535110
  36.4106674   1.2054335  17.4883194  35.8758278   0.5540081  17.0346413
  35.8704796   1.4865541  18.2268295  78.1647873  59.3566628   9.1509914
  77.8226929  60.0194740   9.7508917  79.1113815  59.4987755   9.1516056
  15.9594707  50.3567696  42.4416809  16.1345596  50.9223328  41.6895447
  15.2622862  49.7720718  42.1445389  14.9864893  39.2219276   2.7538342
  15.8996048  39.2333031   3.0407534  15.0351458  39.2575226   1.7985344
  72.7893982  33.7273560  79.7698288  72.5781174  34.3361855  79.0620728
  73.2838440  33.0271606  79.3438187  63.1925430  67.5387497  85.0221939
  62.4933205  66.9624939  84.7135696  62.9130745  68.4159775  84.7602768
  58.1514397  19.4579296  19.2976055  57.2294922  19.5879154  19.0754662
  58.1654625  18.6383400  19.7918797  72.4732590  10.2348690  30.0962219
  71.8965988  10.8038921  30.6060333  73.3537750  10.5662003  30.2726879
  33.7704582  -0.0719879  41.3055115  33.5130806   0.6642786  41.8603973
  33.2718544   0.0510968  40.4977531  64.5823669  61.2101936  47.3353386
  63.8466072  60.8810577  47.8516350  65.3555603  60.9993248  47.8587227
  56.0943336  61.1039734  66.3757324  55.6087036  61.9250183  66.2964935
  56.9570732  61.2997589  66.0102386  72.4505463  45.8861465  41.2784462
  72.9362793  45.2249336  40.7854042  73.0497131  46.6304398  41.3355560
  85.2835159  35.5526962   9.5523224  85.5931168  36.2435684  10.1380482
  84.3293610  35.5941238   9.6163931  71.7863922  40.5729256  36.5954514
  72.2707214  39.9010582  36.1156120  72.4020538  40.8840103  37.2590904
  73.8832703   8.9660816  24.9028950  73.8930511   8.0224848  24.7423878
  73.8060074   9.3563375  24.0322857  53.7623520  18.1112442  18.7367802
  54.2957420  17.7519760  18.0277977  52.8961639  18.2314816  18.3475552
   2.9688711  48.3805351  86.5972824   3.4939749  49.1806221  86.6161957
   2.1295519  48.6357918  86.9801941  47.1168327  60.0488701  32.3535881
  46.2282066  59.7127953  32.2368584  47.5479774  59.3984833  32.9079704
  51.5906754  -0.1583370  81.3564758  51.2128448   0.0613511  80.5048752
  51.6711693   0.6824344  81.8068695  62.1006775  17.5827217  74.6537704
  62.5173225  17.4255810  73.8064499  61.3227348  17.0250778  74.6452332
  24.0159035  61.0095825  24.6888676  24.3267136  60.8716850  23.7940979
  24.6170940  61.6588821  25.0538540  51.8120842  27.0747318  80.2609100
  51.0441170  27.2608204  79.7207031  52.2447472  27.9225292  80.3622742
  77.1756058  11.9958143  77.2547073  76.3072891  11.8049517  77.6094360
  77.2483978  11.4330864  76.4838181  64.1790085  58.0060539  20.9585037
  63.6556473  58.1452713  21.7477703  65.0758591  57.9116211  21.2793884
  78.2817459  59.2326889  61.0376282  78.5265427  58.3556366  60.7425385
  77.9801254  59.6765785  60.2450256  68.1014938  39.6099014  17.4396782
  68.9262238  39.9650154  17.1080971  68.3639755  38.8881073  18.0109463
   0.6392283  59.3256111  31.1414700   0.5522377  60.0592422  31.7501125
   1.0187683  59.7126236  30.3525467  69.5506973  33.2638664  16.7236862
  70.1788406  32.9060936  16.0962543  69.4246826  34.1710739  16.4456177
  12.1600266   4.2546124  20.6360588  11.5704908   3.5610356  20.3400326
  13.0099983   4.0222731  20.2621651  27.8335457  39.3842354  65.4894867
  28.1427994  38.9053307  64.7205582  26.9440441  39.6545334  65.2615509
  61.2322464  46.1088104  11.4788361  60.6688995  46.3370705  12.2182751
  61.9276352  46.7663727  11.4955940  16.1778069  62.1060333  84.2749863
  16.3690414  63.0290337  84.1084595  15.3057375  61.9714012  83.9040375
  52.3108139  35.1791420  26.2081413  52.7393150  35.4893265  25.4103909
  52.7899590  35.6055222  26.9186726   1.0388850  16.4715595  88.4794159
   1.7696898  17.0833511  88.3907166   1.0765340  16.1841183  89.3916626
  62.3867645  60.7803192  49.0070457  61.6652336  60.4327087  48.4828415
  62.2680817  60.3843040  49.8703613  62.8337593  62.2118454  74.3799362
  62.4002876  61.8572464  75.1562042  63.3360519  61.4764061  74.0291367
   5.1296997  44.5562248  87.9962921   5.5446248  44.1569099  88.7608871
   4.1974640  44.5758362  88.2125854  50.5775909  38.4941711  23.1571960
  50.0843086  38.0261650  23.8308983  50.8270950  39.3194962  23.5729141
  25.5905914  50.9444389  20.8729553  24.9384613  50.2661247  21.0485764
  26.4056377  50.5911522  21.2294941  70.1177673  48.2538338  66.8328781
  69.7562714  48.6460648  66.0380783  69.9752960  47.3137856  66.7222137
  12.8007412   9.4907188  74.6126099  12.8930779   9.3536053  75.5554276
  13.5352364   9.0124054  74.2279434  71.9080429   0.4698263  45.8055000
  70.9865875   0.3965257  46.0540581  72.3415375   0.8068051  46.5895691
  56.9260292  63.5038605  40.2987823  57.6813660  63.0465775  40.6683655
  56.3601189  62.8051338  39.9705162  68.0651627  46.2730675  41.3304825
  68.3585129  46.7604141  40.5606308  68.5528412  46.6587410  42.0582581
  65.2698441  65.0989075  55.0912933  65.7950974  65.8631210  55.3285942
  64.6835175  64.9703751  55.8369064  30.3921738  61.2819099  24.9362774
  29.8438339  61.9206200  24.4806385  31.0704365  61.0521660  24.3011341
  69.8672562  13.5388765  17.5196247  70.7290344  13.4423885  17.9249268
  69.2517090  13.4892292  18.2509670   9.4725924  17.7811317  61.7624702
   8.9011011  17.5900116  61.0187645   9.5056925  16.9615879  62.2559128
  53.1328735   9.9078865  54.8676147  52.5270233   9.2938185  54.4527702
  53.1487732   9.6440363  55.7875938  26.2273216  12.8242321   0.1166598
  26.2939663  13.7786312   0.1468879  26.4243717  12.5419693   1.0098171
  52.3730011  17.2308731  76.4019928  52.5812759  17.8889542  77.0651550
  51.4890671  16.9383907  76.6241379  61.9750938  68.9506989  64.0407639
  61.2540894  68.9630356  64.6702347  61.7608070  69.6448593  63.4174957
  57.3842888  17.0272846  28.6926880  57.2142487  16.5508900  29.5053177
  57.1717339  16.4021969  27.9996395  80.8738480  58.3507767   2.5350521
  80.1557236  58.0196609   3.0743940  81.3228226  57.5643311   2.2249582
  29.0959663  24.2086887  18.0713520  29.5194550  24.3290176  18.9212990
  28.1742496  24.4106102  18.2322788  39.8532677  54.4888649  53.1612053
  40.1307983  54.1929588  54.0281830  39.1165695  55.0754318  53.3327980
  52.0976868  17.0725861  86.5907059  52.7509041  17.7710953  86.6309662
  51.5249825  17.2367630  87.3398972  34.3654709   3.7125175  81.7544403
  34.0657234   4.6085782  81.9076004  35.0432243   3.7979929  81.0839386
  24.9451847  61.4349747  15.5525694  24.2612057  61.2718887  14.9031029
  24.8569508  60.7165298  16.1788960   2.3899515  22.4061966  48.7117538
   1.8145303  22.6919384  49.4213142   1.7935771  22.1486454  48.0087357
  53.9660759  34.6553268  12.0948229  53.3609123  35.1588631  11.5503407
  54.5190201  35.3158607  12.5121727  46.2110100  64.1998062  35.3644829
  46.3667793  64.6366806  34.5271606  46.6376457  63.3478279  35.2731361
  78.4664154  69.5738449  46.8339577  78.5786896  68.9165878  47.5207176
  77.5278625  69.7618637  46.8335114  15.2683058  37.5599365   6.2128911
  15.8993835  37.0156631   6.6837816  14.5307875  37.6483421   6.8166151
   7.6907310  15.6171942  88.4776077   8.2155962  16.1875229  89.0392761
   7.8240838  15.9620104  87.5946808  31.5385876  56.4120789  78.5537567
  30.9215889  55.7064323  78.3598251  31.0350800  57.2146683  78.4175186
  84.8002319  15.2289257  79.1220016  85.5135345  15.3148422  79.7545013
  85.1328583  15.6467705  78.3276520  25.2747002  70.8548508  75.5076141
  26.1393490  71.2007370  75.7289276  25.1392097  71.1139145  74.5961533
  66.3500671   8.8759794  58.0074730  66.9987640   9.2936516  58.5740242
  65.6320419   8.6435995  58.5962563  19.4193420   3.5647342  14.4487734
  19.6767998   3.1160572  15.2541523  18.7217178   4.1615582  14.7196140
  39.9212914  70.5228577  84.6851730  40.3434830  70.1331100  83.9196167
  40.5743637  70.4511642  85.3813019  79.5451584  53.3349304  11.5151358
  78.9673462  52.6227798  11.2409000  78.9513626  54.0229683  11.8155355
   7.1048284  45.9234009  65.9410400   6.2735620  46.1149254  66.3752594
   6.8656192  45.7540359  65.0298233  59.8337326  31.2311325  81.1747894
  59.4348946  30.6214314  80.5539703  59.1516380  31.8809986  81.3440552
  77.9141769  56.6850967  15.6193008  78.4580994  55.9132080  15.4625626
  77.4386749  56.8136978  14.7985735  18.7566395  60.4680328  80.8571701
  19.3878212  60.8183708  80.2285995  17.9694786  60.9966469  80.7260971
  35.0890388  69.4369583  13.5654716  35.5450172  70.0647583  14.1259890
  35.6126747  69.4063263  12.7647858  14.7004032  36.3133163  72.1753387
  13.7936201  36.0323792  72.0526505  14.6948814  37.2443085  71.9529495
  21.2829800  51.0271988  69.3099823  21.8571911  50.2705421  69.4282379
  20.4304848  50.6494446  69.0936813  49.6850166  13.9265308   8.7543364
  49.4627304  14.0964108   7.8389344  48.8551178  14.0158138   9.2228775
  20.9838390  10.8887300  85.2158737  20.2325954  11.2037725  85.7184830
  21.7326641  11.3561707  85.5859985  68.1604309  54.2221718  59.4512405
  68.1744537  55.1633835  59.6249008  68.5122604  53.8262405  60.2485390
  57.9637337  17.9898701  48.5697441  58.2852859  17.6268215  47.7444954
  58.2899094  18.8897343  48.5787735  67.2587814  20.0272369  87.5702438
  67.6424255  19.4689274  88.2465134  66.4109116  20.2895355  87.9287796
  83.3219986  58.6450768  37.5848656  83.7808914  59.4762840  37.7062721
  83.2335434  58.5567055  36.6358643  61.1702728   4.1010709  24.9731712
  61.3736229   4.5988674  24.1812878  60.2142105   4.1050768  25.0196915
  28.0125751   6.6442065  15.7919035  27.9695568   7.0445595  14.9235153
  28.7391224   7.0912957  16.2260399  21.6716003  68.7835312  22.9274311
  21.3227730  68.1898499  23.5923367  22.6183357  68.7708893  23.0680237
  68.9522324  29.5079861  88.1460037  68.7966843  29.5495319  89.0895615
  68.0786362  29.5508747  87.7571259  18.5464439  49.3328629  15.1657209
  18.6258812  48.7033997  14.4489927  18.1093197  50.0886536  14.7733755
   6.6689992  26.6550350  81.4864197   7.4345593  26.5739384  82.0552597
   6.3258953  27.5296059  81.6698303  57.8352928  45.0150566  17.9141216
  57.4908562  44.1220818  17.9002018  58.5343895  45.0123329  17.2602959
   1.8399945  16.6090851  28.2690353   1.8489571  16.3433056  29.1885529
   2.5825887  17.2072353  28.1853619  62.8552704  33.9163780  82.2862396
  62.1469345  34.1553307  81.6884079  62.9274483  34.6619301  82.8822021
  48.7383194  50.0656204  14.1752911  48.6776810  50.5880890  13.3755531
  49.3806038  49.3863831  13.9695168  64.5224228   7.4642930  77.2532806
  63.7172165   7.9814544  77.2328796  64.6064453   7.1167865  76.3653564
   9.2580328  29.6462116  34.6730003  10.0267000  29.1193466  34.4543762
   9.5746145  30.5494194  34.6580811  82.2878571  33.7409668  22.7841911
  82.9339981  33.5194283  23.4547577  81.4897537  33.2920647  23.0630226
  85.6790924  67.1310349  16.2692909  86.1797333  67.8793182  16.5943565
  84.7988739  67.4773102  16.1225529  77.2684708  52.8510056  79.3629837
  78.0129776  52.9665527  78.7725677  76.5000076  52.9898605  78.8094330
  80.0838318  61.1218452  60.3836937  80.0946198  60.1690483  60.4747238
  80.8432693  61.4189491  60.8849068  32.7966118  36.2745171   8.3452492
  33.0530739  35.7970695   9.1342373  33.1864967  35.7766609   7.6266675
  25.3642521  36.3949356  65.7392578  24.9797325  35.6010361  66.1108780
  26.0291824  36.6592712  66.3750458  24.0741100   3.8669982  17.5367088
  24.7890568   4.5032640  17.5524445  24.2286282   3.3141072  18.3026524
  16.4833527  27.5350800  26.8005314  17.3627605  27.9108181  26.8416977
  16.6074638  26.6794338  26.3898048  54.3407211   2.5452380  67.5266724
  54.4841385   1.9043217  66.8303375  54.2482567   2.0192180  68.3210220
   4.2633677  26.8328400  64.6729584   4.2455792  27.1359043  63.7651749
   4.0489564  27.6098995  65.1891327  70.2669449   9.1291437  55.7956772
  69.9574127   8.7539005  54.9712906  71.0793381   9.5791807  55.5639000
  47.3616371  60.2746162  85.7690353  46.7536469  61.0133324  85.7394791
  48.1124458  60.6020241  86.2643356  37.9042473  37.8034096  62.4237366
  38.1336555  36.9806404  62.8557739  38.5082550  37.8617516  61.6834641
  76.5747452  24.6054459  38.4888916  77.0313492  23.7641850  38.4840775
  77.2510147  25.2462769  38.2692719  36.7760887  39.9733582  32.6627922
  36.6914177  40.0312958  31.7111073  37.4769669  40.5884590  32.8787804
  40.2923660  68.4792709  64.7919006  40.5503159  69.3215942  64.4174881
  39.5109177  68.2276230  64.2997131  57.4354286  53.2556572  61.9350395
  57.9375458  54.0030479  61.6102028  57.4993362  52.6029434  61.2378197
   5.0820694  27.3497276  44.1052246   4.3622875  27.9527187  44.2910957
   5.5784221  27.7771606  43.4072495  67.3563538  50.5757217  23.1578178
  66.7115555  51.1016426  23.6309662  67.9922256  50.3186874  23.8255291
  48.2665710  67.7963257  63.1732025  48.0448036  68.4975281  63.7858734
  49.0194855  67.3595505  63.5714226  68.3164139  20.0152035  72.5727844
  68.2939224  20.8692455  72.1411133  69.1206894  20.0301666  73.0915833
  20.2625465  67.1446228  72.1344681  19.7823715  67.2481384  71.3129196
  20.9682007  66.5330658  71.9240417  53.2920227  35.3182602  73.0784988
  53.9701691  35.0995789  73.7176590  52.9963036  36.1924362  73.3326569
  86.4096756  48.6734314  63.6254349  86.3536606  49.1091805  64.4758530
  85.5505295  48.8136673  63.2274017  61.8025970  28.2794151   6.9821458
  61.2092705  27.7107182   7.4728374  62.6368141  28.2131424   7.4468217
  39.9690666  38.5951042  83.1752701  40.7703362  38.4446411  83.6768265
  40.2704010  38.9796677  82.3521347  48.9490776   8.6571140   4.9052215
  49.4327316   7.8331957   4.9641247  49.5709229   9.3216105   5.2018437
  56.6755829  12.7912340  29.2424431  57.3627663  12.5345917  28.6275063
  56.4972000  11.9976816  29.7471085  50.3881683  67.8256454  47.7027130
  50.7606697  68.6286240  48.0669975  50.3731613  67.2133713  48.4383240
   6.8222528  23.9352608  86.7043991   7.6225839  23.4574089  86.4867706
   6.4428182  24.1657429  85.8563766   4.7301321  44.8169060   7.2176237
   4.8357434  44.9464531   8.1601181   5.2847071  44.0632782   7.0158181
  81.8317947  15.8495817   4.0296440  81.1681061  15.2712593   3.6537635
  82.3753891  16.1063004   3.2847707  64.8082199  13.0774393  55.6815453
  65.5486603  13.6112566  55.9696770  64.0364685  13.5502872  55.9930687
   3.5073211  39.3964119  75.3905487   3.8003097  38.4853935  75.4112854
   4.1686606  39.8721924  75.8930435  65.0491486  68.9990768  68.2315674
  64.9630661  69.1195068  69.1772537  64.5972748  68.1743546  68.0530396
  75.6186829  48.1346321  79.9626389  74.6670074  48.2332230  79.9911423
  75.7925262  47.7334595  79.1111221  23.6277447  58.4850769  28.5331078
  23.8688526  59.2635231  29.0352249  23.2394218  58.8295784  27.7288971
  72.9628677  40.5333481  50.1453552  72.2974548  40.9540405  49.6008682
  72.9540329  41.0319099  50.9624176  55.5413055  28.6091480   5.8426118
  55.7453880  27.6848621   5.7002058  55.5435486  28.9927979   4.9656625
  85.4939575  17.5809288  38.4327660  84.5462723  17.5512791  38.5640831
  85.6064301  17.5176086  37.4843063  25.5957623  70.3371887   0.8635932
  25.6023216  71.2867355   0.9842126  25.9075146  70.2073669  -0.0320571
  37.0913277  56.9117126  71.5718307  37.0681610  56.1819725  70.9528198
  37.7465439  57.5098839  71.2125015  17.0086594  31.3458195  83.4022827
  16.6296387  32.2237053  83.3587418  17.9507313  31.4953613  83.4821014
  43.0055542  54.5048294  82.2700958  43.0686340  54.6442909  83.2149811
  42.1316643  54.1365013  82.1401672   9.4842854  68.8374405  12.6278467
   9.3365765  69.7513657  12.8710594   9.1312199  68.3342590  13.3615961
  83.2345886  43.3323822  51.7819939  82.4021606  43.7575760  51.9881477
  82.9887924  42.4569168  51.4830360   7.4268427  22.9269695  37.1004486
   7.7366447  22.7641487  36.2095261   6.5354691  22.5783119  37.1115379
  28.4602242  50.0702362  17.7724152  28.6269474  49.7095604  16.9015827
  28.7812290  49.3993568  18.3750000  18.9348087  50.1003380  52.9921150
  19.5812225  49.4887733  53.3447685  18.5136909  49.6193047  52.2797241
  65.1847229  11.5636473  58.5902901  64.9186707  11.4344721  57.6799240
  64.8627243  12.4373093  58.8122559   8.9258986  61.0992508  69.1440048
   9.1563721  60.1950493  69.3573914   8.0383005  61.0430412  68.7901077
  53.9888268  58.4210472  87.7759094  53.4203186  58.8845558  88.3908844
  53.6581879  57.5227661  87.7744980  66.7305908  35.0158272  73.9646225
  66.6775284  35.8045502  74.5043640  66.0113220  34.4651413  74.2738571
  60.2066460  38.6829147  30.2548466  59.5603561  39.0247879  30.8726425
  59.7203293  38.0519638  29.7241611  60.0150032  18.4447803   3.2723763
  59.5628777  17.6933670   3.6560340  60.5920525  18.0645161   2.6100721
  64.7499542  43.8261948  66.5129318  63.8537788  44.1520615  66.5960464
  64.7832336  43.4370537  65.6390381  12.3834829  36.9837151  75.3194580
  11.8282118  36.7411194  74.5784836  12.4081469  36.1991425  75.8672485
   4.0648613  30.9232769  42.7112160   4.8298907  30.4456444  43.0318832
   3.8809412  31.5676041  43.3947678  69.4528275  67.1570435  28.1067715
  69.9556046  67.9694824  28.0485649  69.1564560  66.9941101  27.2113132
  67.4810257  65.3841248  26.3226032  66.7023544  65.1530304  25.8161526
  67.4414978  64.8188171  27.0940247  48.7231369  47.8514557  49.1572762
  48.0377846  47.8676338  48.4892464  48.4130592  48.4541512  49.8331757
  47.0636177  63.8371086  74.1541138  46.9164162  62.9174118  74.3748398
  47.9980965  63.9741554  74.3096848  76.3256683  14.5965843   0.6213039
  75.6019745  14.8520088   1.1933613  76.9947662  15.2650671   0.7685207
   2.8719537  24.5935822  41.5740280   2.1136644  25.0549660  41.9322929
   3.4999306  25.2867527  41.3705788  15.3220787  50.6558075   5.5321860
  14.6767035  50.7597923   6.2314072  16.1627808  50.8338699   5.9537849
  38.0514259  69.3983307  77.0324402  38.7346420  69.9441605  77.4216843
  38.0241432  68.6177979  77.5858459  76.2664719  27.7008686  78.3282242
  75.9903641  28.1627655  77.5366135  76.6050415  26.8635597  78.0111923
   1.4107693   0.9038221  38.8047485   1.2305152   0.4194564  37.9990616
   2.1296682   1.4924232  38.5746040  63.6493988  70.5510941  12.2236891
  64.3362045  71.1982803  12.0634527  63.3176804  70.7647934  13.0957727
  21.7331982  32.9251823  75.3314590  21.1520424  33.4020691  74.7389526
  21.1445274  32.3971252  75.8707657  10.9500294  30.3139362  10.1659718
  11.2288561  31.2289677  10.2006721  10.7978811  30.0750751  11.0803175
  31.5414944   2.0057819  88.2062836  31.2001781   2.3387916  89.0362473
  32.0871391   1.2593431  88.4539413  65.3789673  51.7254333  13.8849373
  66.0578384  51.2963142  13.3641472  64.6192245  51.7629318  13.3038940
  85.3122864  70.4105835  50.2462959  85.4222183  71.3354568  50.4671135
  84.9623642  70.4170074  49.3553734  55.1722527  52.1334648  56.8801918
  56.0229187  52.2890778  57.2905388  54.6184883  52.8460617  57.1992340
  62.4209900   0.6972813  22.7156887  62.3616333  -0.2404528  22.8983459
  61.5204964   1.0132343  22.7899761  20.8261566  43.1590919  31.9209824
  21.0066013  43.1978760  32.8602219  20.5123272  42.2668190  31.7740288
  12.9398670  37.0521545  60.2807121  13.3933201  36.2302399  60.4679832
  12.0103836  36.8259888  60.3144989  12.6188116  35.7526321  65.9523087
  12.5051441  35.7003670  65.0033188  12.0237112  36.4503212  66.2267456
  79.0531311  26.2234344  19.2685890  78.6788712  26.8358097  19.9019604
  79.9383392  26.5521679  19.1118584  59.6707764  41.4110184  88.4103546
  59.0452499  41.5001907  89.1293869  59.6995087  42.2794418  88.0088043
  48.2452126  47.1528854  32.9755898  48.0588112  46.8622475  32.0828285
  47.4015656  47.4582443  33.3091278  33.6575890  25.5876942  84.0074692
  33.4069366  25.7895794  84.9089432  34.5485497  25.2449150  84.0776520
  11.3781881  64.4353180  77.9368134  10.8614397  63.8140068  78.4498138
  11.5727901  65.1464767  78.5472336  43.0000572   7.4725347  85.2474823
  43.4228439   6.6577439  84.9761887  42.7272186   7.8851800  84.4280167
  22.4218407  23.0825367  19.0463696  21.9608440  22.6056099  19.7364807
  21.8144703  23.7755375  18.7873631  48.5576019   1.0534070  40.3723526
  49.1733093   1.6148268  40.8434601  49.0928116   0.6108659  39.7136078
  31.4906483  42.5019760  67.5810776  32.0052872  41.7065582  67.7177963
  30.5965652  42.1883545  67.4450989  80.0111313  19.6833916  85.5022507
  80.9020157  19.9173260  85.2417984  79.9268036  18.7599850  85.2646713
  48.9715919  50.1065025  67.8650360  48.9160500  50.1273041  66.9096756
  49.0381927  49.1763382  68.0808792  47.1851234  35.4909134  81.8715668
  46.4226875  35.9205971  82.2592468  47.0037308  34.5552711  81.9604797
  29.1027908  -0.1921431  83.6329193  28.7431889   0.6874747  83.5180588
  29.2970066  -0.4894458  82.7440262  77.9871826  12.9991827  49.7166672
  77.9013824  13.2791691  48.8053589  77.8138504  12.0580473  49.6954079
  67.2749481  59.5462189  29.8810673  67.6093521  59.2230644  29.0444221
  67.7015686  60.3951111  29.9977283  61.5956497  52.6383934  51.7173691
  60.6501236  52.4909515  51.6957092  61.8516655  52.6868172  50.7963142
  28.0424366  57.1626740   4.7989488  28.6819401  57.8452034   5.0024772
  27.7998352  56.8000259   5.6509247  61.5928001  46.4948235  80.0992508
  62.2568550  46.5648880  80.7850800  61.9131012  45.7984009  79.5259857
  49.9050255  38.4472275  28.2867184  49.7030792  38.3113708  29.2124557
  50.1653900  39.3666382  28.2307911  57.9952850   2.8818142  12.8509140
  57.1794777   2.6445591  13.2918177  58.2577820   3.7062786  13.2602873
  53.3906708  43.5291786  74.4287567  52.5292778  43.5956078  74.8408508
  53.7610435  44.4085312  74.5048599  54.5890694  63.0400925  46.6188927
  54.5708389  62.8087959  45.6902351  54.0349007  63.8179283  46.6829147
  73.8089523  41.7980652  74.2885742  73.2384644  42.1827621  74.9539948
  73.2463226  41.6954193  73.5210114  18.7956772  24.3141727  82.1673431
  18.6777916  24.4709702  81.2304611  18.1660309  24.8988686  82.5891266
  33.9664307  60.3204918  31.5866165  33.8779907  60.6252441  32.4896851
  33.1404076  60.5650215  31.1693363  83.8635483  57.8651657  51.0246582
  83.9091797  58.5857735  51.6530495  84.6167221  58.0007095  50.4496918
  81.2832336  15.9749146  69.2980652  82.0647736  15.5172262  69.6078186
  81.3566895  16.8535061  69.6707764  68.2021637  27.3242531  56.4120140
  68.8866425  27.0152225  55.8185349  68.5274124  27.1081810  57.2859459
  40.7222939  62.9892426  16.9927692  40.4224358  62.8155174  16.1005058
  40.9808578  63.9108124  16.9833870  20.3855896  19.5941811  77.2496338
  19.8382149  20.1941681  76.7430496  21.2113686  20.0639706  77.3663330
  20.8740406  54.9971733  46.3109360  21.2923927  54.9272766  47.1690331
  21.5637264  54.7661209  45.6886978  75.1850662  62.4124641  76.4972458
  75.3063660  61.5222282  76.1670914  75.0427094  62.9416504  75.7124329
   2.5188956  11.4380150   1.5680611   3.4580147  11.6212702   1.5946122
   2.2584591  11.3883572   2.4878104  16.9445782  15.2080307  73.1051254
  16.4524593  15.8928862  72.6523285  16.9441566  15.4797840  74.0229416
  67.6209106  34.1144447  44.8643684  67.1004257  34.1083717  45.6676674
  68.3061752  34.7624435  45.0278778  71.4285049  17.0478783  18.8271866
  72.0793762  17.5682755  18.3562489  71.8392029  16.1898174  18.9334450
  57.6014023   0.5821986  67.1125488  56.6572456   0.5613844  66.9564514
  57.7630653  -0.1547012  67.7016754  69.6894073   3.8109062  42.3360634
  70.1227112   3.2761693  41.6708336  70.0567474   3.5054448  43.1655121
  48.7436142   5.5286436   0.4457058  48.4589310   5.7209139  -0.4477251
  48.6094131   4.5858202   0.5421745  29.8038368   3.0670187  34.6236267
  30.3264141   3.8424079  34.8283653  29.1084061   3.3911521  34.0513115
  67.6052780  69.7573929  32.0116539  68.4338455  69.7742996  31.5326729
  67.8115921  69.3081894  32.8313370   6.4864688  49.6595993  14.0839443
   6.2986283  49.2988510  14.9504356   6.2542939  50.5855293  14.1545258
  12.0511360  54.4003181  85.7494736  11.7532959  54.1648521  86.6281509
  11.4689550  53.9183884  85.1620712  53.9838524  48.0631409  85.0472336
  54.4044991  47.6486931  84.2938919  53.1017570  48.2754860  84.7421951
  43.0419273  58.2861137  12.1284695  43.4858208  57.5346184  11.7354727
  43.5406647  59.0445824  11.8247948  24.2611561  14.4121418  30.4802036
  24.5363140  13.5801668  30.8653507  24.6396656  15.0784273  31.0538139
  40.3596802  19.0521603   6.4699144  40.8496323  18.5714626   5.8027496
  40.8025589  18.8401070   7.2915740  34.8192940  40.9755363  11.9716806
  35.4496269  40.2636566  11.8614969  33.9967918  40.5359344  12.1872673
  50.5522346  69.2826309  10.7045412  51.0748062  69.9189606  10.2164469
  50.7866554  69.4323654  11.6204338  79.6039124  35.0642509  67.4144897
  80.0568085  34.6724739  66.6677475  80.2434311  35.0325699  68.1259918
  33.4907188  67.5645905  77.8782349  33.9268112  68.4161911  77.9071579
  33.1188507  67.5157166  76.9975815  27.7850266  38.3136330  42.1221695
  27.6287842  38.7271805  42.9711685  28.5837440  37.8014793  42.2485924
  85.8288269   7.3143616  54.5999832  85.4235458   6.4533257  54.7029152
  85.2903671   7.7555285  53.9429703  72.5862122  39.7792473  87.9050293
  73.5165710  39.9373474  88.0652618  72.4809036  38.8345680  88.0178070
  18.6205425  45.9881325  55.0298119  18.0648994  45.2112465  55.0925446
  18.4217281  46.3558960  54.1687355  81.9385300  42.4877968  60.6510925
  82.6428986  41.9151306  60.3475227  81.1430740  42.1070290  60.2789383
  29.9369011   5.7125483   2.6546986  29.1878166   5.1358871   2.8049242
  30.6022453   5.1446033   2.2661300  86.5139160  47.6499748  76.8423004
  85.8191833  47.6611900  77.5006790  87.2830582  47.3262825  77.3112106
  13.3183727  35.4642601  54.9457817  13.1865845  35.6030350  54.0079117
  12.4691191  35.1584206  55.2643127  47.1612587   0.3868707  74.4090958
  47.5910263   1.2416068  74.3781357  46.9232140   0.2054027  73.4999008
  62.3892593   6.2551012  67.0433960  63.3463516   6.2407584  67.0423660
  62.1359787   5.3338313  67.1012039  66.6389923  48.6293716  39.5624580
  66.6076813  48.1506767  38.7341461  65.9515610  48.2303696  40.0958138
   9.8436775  50.0889397  48.9322052   8.9895544  49.8708534  49.3052292
  10.1024675  50.8939400  49.3807983  33.2346497  46.1462593  57.0524635
  33.2062683  46.1135864  58.0086861  32.9313583  45.2820816  56.7741776
  19.2238293  52.9352379  45.6043663  19.6407909  53.7627754  45.8442650
  18.2962627  53.1525116  45.5113945  69.4820023  51.0663528  57.2515602
  69.9831772  51.6946526  56.7316666  69.4892578  50.2639122  56.7297668
   1.4465095  69.6528397  18.3844566   0.6287603  69.4726715  18.8481979
   2.1328111  69.4086914  19.0054321  32.2751808  24.8410206  74.2165985
  32.1932755  25.6452332  73.7039948  31.7456875  25.0000763  74.9979858
   1.9942553  71.1831741  43.8395271   2.3399844  71.5362549  43.0197487
   2.7626355  71.0883636  44.4024086  75.5414581  14.5219040  63.6931763
  75.2013931  15.2674704  64.1878662  76.4645004  14.4707260  63.9413834
  18.4003105  46.6067657  35.9754677  18.1152401  45.7034149  35.8378868
  17.8370209  47.1257477  35.4013634  11.0428572  56.1212120  73.4696960
  11.1679649  57.0685768  73.4141617  11.8817739  55.7522354  73.1934586
  48.2267876  67.3666077  24.7882690  48.4766769  67.4801025  23.8712597
  48.6213112  66.5323868  25.0425396  15.6715031  50.4594650  10.7665119
  14.9167070  49.9448395  10.4807243  16.4268055  49.9035378  10.5749502
  86.1496964  57.7585449  55.0706177  86.9100113  57.6561661  55.6430550
  86.4502411  58.3441658  54.3756714   0.5172931  34.1044197  86.5452576
   1.3965256  33.7263412  86.5298386   0.1397736  33.8674240  85.6981812
  16.9993286   2.0665677  20.8079357  17.8862057   1.7080952  20.8422623
  16.4496975   1.3226957  20.5613728  44.1869240  30.4932098   1.0471621
  45.1269989  30.5148754   1.2261024  44.1238327  30.2285671   0.1294392
  22.3854256  51.9751854  50.7830620  22.6753922  51.0969810  50.5362587
  23.0951557  52.3179283  51.3262405  81.2304001  22.0831432  56.3006516
  82.1844406  22.0294800  56.2443504  80.9199066  21.6921482  55.4839821
  32.2475662  33.2913132   1.8041905  32.9019356  33.4217682   2.4904945
  32.7532158  33.0111122   1.0412774  72.9750824   1.0493344  16.8965111
  73.0235214   1.9982058  16.7801971  72.3142929   0.9249606  17.5777721
  85.1206360  18.0940018  57.8439102  84.8874435  17.8801174  56.9405251
  84.7757721  17.3648739  58.3593407  38.8850365   1.6022344  25.4333172
  38.4878578   2.3315144  24.9572582  38.6111259   0.8229614  24.9496441
  72.5208588  59.9669151  60.0242920  72.6526566  60.0003891  59.0768013
  73.0319824  60.7017899  60.3633194  62.5823898  53.1021690  65.0470657
  62.8633957  53.0003967  65.9564133  61.6298714  53.1817131  65.0981979
  19.5435066  23.5135880   1.7528247  20.3751926  23.0841026   1.9530076
  19.7106552  24.4432659   1.9077184  83.9357376  45.3024712  18.9662228
  83.6618042  44.4636650  18.5952892  84.3821793  45.7483101  18.2463989
  22.5561352  48.3421021  11.6557465  22.1220226  48.1780434  12.4929228
  23.4894695  48.3524590  11.8678999  13.2887707  63.2924385  72.8324585
  12.9753275  63.1688728  73.7284012  12.7261410  62.7283211  72.3019409
  11.3609505  28.5375843   4.7159767  11.5906382  27.8151760   5.3004441
  10.4241438  28.4261246   4.5541058  55.7889900  61.0972290  28.0756741
  54.8378754  60.9900780  28.0641747  55.9271049  62.0291023  27.9060669
  84.5462723  23.5431728  72.8784256  84.5889053  24.2985191  72.2920303
  85.4121094  23.1402798  72.8133698  16.1197281  58.7270279  51.5328941
  16.2825184  59.5535851  51.0784302  16.9430370  58.2449493  51.4554825
  64.7852173  25.3838615  77.3159332  64.5800552  25.8384132  78.1329575
  65.2525406  24.5952320  77.5914383   2.5710096  43.7244835  65.7029724
   2.6114256  43.6829681  66.6584167   2.2541587  44.6079025  65.5148087
  58.2576408  58.7109795  71.9942703  57.5971031  58.4307365  71.3607178
  58.0269127  58.2498016  72.8006897  47.0223999  70.1924057  76.5936890
  47.2761574  70.5234756  75.7321625  46.2586594  70.7160339  76.8360672
  46.7281532  61.7717133  30.0102749  46.9696274  61.4570580  30.8814316
  47.5550041  62.0556030  29.6204548  85.6130524  68.3126297  69.0917435
  86.4276199  68.1804352  69.5767593  85.1498489  68.9917679  69.5820923
  36.5684280   0.8910109  52.7883263  37.0136414   1.3348131  52.0664825
  36.1107826   0.1595234  52.3739357  12.7039118  62.1867561  24.9565639
  12.1158791  61.6285362  25.4653244  13.5773706  61.8360901  25.1307373
  74.7334824   5.4089241  10.8587255  74.9732666   5.5849919   9.9489260
  73.8164597   5.6762290  10.9207573   5.2150788  23.1750317  20.7445469
   5.6041808  23.0790138  19.8752880   5.6263266  22.4874516  21.2683220
  37.7910767  36.7096558  68.2610626  37.9279289  35.9691887  68.8520050
  37.8216515  36.3256187  67.3848114  21.9782505  59.0290146  31.7981071
  21.5271988  58.6411896  32.5480270  21.3460789  59.6475487  31.4320431
  22.6641369  50.7716255  79.7475891  22.4524288  50.9909134  78.8402176
  22.8587685  49.8346176  79.7283936  74.7800293  49.4302063  44.3287048
  75.7124634  49.4237480  44.1124649  74.7535629  49.3127899  45.2783089
  64.0121536  69.8461685  20.3899899  64.3922501  69.4317551  21.1645966
  63.1742477  69.4001694  20.2665615  19.6474075  66.6805954   2.3807521
  19.7752399  66.9028091   1.4585204  20.4675941  66.2620468   2.6421802
  69.2967987  15.0055752  84.3706207  69.3133774  15.9091034  84.0550385
  70.2096939  14.7206974  84.3294296  46.6832504  57.8691216  73.5845566
  46.1252747  57.1443787  73.8667526  46.0757141  58.5081215  73.2119827
  66.3723755  54.2714996  44.2457008  67.2979202  54.1147079  44.4328232
  66.1480331  53.6183701  43.5828857  80.6401825  62.2994995  31.2413845
  79.8882828  62.8011703  31.5563488  80.2987518  61.4155083  31.1064091
  27.7408772   2.2629800  23.7877178  28.0886993   1.9964217  24.6387157
  26.8434963   1.9299765  23.7807884   8.0652781  40.7431374  58.1119766
   7.8843684  40.1880951  57.3534050   8.5571804  40.1796112  58.7092209
  33.5176849  57.2048492   1.7208159  33.2872276  56.2827873   1.8344946
  33.6988907  57.2928314   0.7850514  70.1849213  20.0574665  43.4003143
  69.3382721  19.7208958  43.1068382  70.1504593  20.9942284  43.2066116
  72.2382889  13.1421661   8.0379906  71.7565460  12.4788198   8.5320902
  71.5662994  13.5988255   7.5319028  32.2542343  49.4751549  25.5009174
  32.3828468  49.8485832  26.3728371  31.3614540  49.1303253  25.5173512
  73.5054932  51.4013481  38.9556236  73.0583649  50.5933075  39.2073631
  73.4941483  51.9382172  39.7480087  17.2660847  43.8283005  74.9139175
  16.5017281  43.2868996  75.1110916  17.0701218  44.2181396  74.0619507
  20.8252163  49.1020470  25.2669163  20.0618172  49.6663513  25.3894672
  20.5168457  48.2272644  25.5033302  72.8597183  35.1229668  34.1480980
  73.8057556  34.9774857  34.1390228  72.6973572  35.6900787  33.3942719
  24.7757187  26.2305336  87.9751358  24.2024918  26.9967937  87.9530487
  24.2598133  25.5582256  88.4201889  40.8595734  15.2889147   6.9882579
  41.3642273  15.3881168   6.1809697  41.2573166  14.5378237   7.4285898
  54.0201912   3.9517140  26.6749458  54.9162407   4.2523665  26.8263874
  53.6433563   3.8709228  27.5511322  80.0271149  48.5796852   3.3203709
  79.8390808  48.0147820   4.0698776  79.1672516  48.8767052   3.0226331
  70.8589859   2.9071381  25.0810852  71.6407394   3.3814962  25.3640728
  70.1362915   3.3488295  25.5270061   8.3041763   9.0046978  13.3322515
   8.4321661   9.4651909  12.5029163   7.3669686   9.0858717  13.5091257
  70.5831070  16.9549866  23.3028278  70.9936905  17.8190594  23.3349190
  69.7034683  17.0946198  23.6534939  23.5013008  34.1143875  14.1015272
  23.2839203  34.4025688  14.9880533  23.0566254  33.2719536  14.0077343
  56.6993980  68.1203232  67.0349579  57.5798874  68.4867249  66.9529877
  56.1629295  68.8520203  67.3400040  52.3939972  51.5527420  13.0721931
  52.9059563  52.0287895  12.4183521  51.5037079  51.5457878  12.7206678
  43.1451721  69.9559021  10.5159082  42.7508659  70.6720886  10.0180807
  43.5364532  70.3815079  11.2787952  29.1268005  40.8609695  67.5359573
  29.4024525  40.1486626  68.1128998  28.8309498  40.4222717  66.7383041
   1.5840052  22.0238037  87.7550964   1.1843771  22.8788948  87.5958786
   1.7270230  21.6598530  86.8814163  64.2358322  57.1603165  48.0512047
  64.6492691  56.4344978  47.5837746  63.6154327  57.5280952  47.4218636
  84.8498764  68.5332870  66.4108582  85.0182800  68.2926483  67.3218842
  85.7162933  68.5539169  66.0045090  36.5953217  61.8479309  67.6292877
  37.0531693  61.1901436  68.1526642  36.8159065  62.6811867  68.0455322
  13.2555656  63.1917305  11.8647385  14.0874720  63.6443672  11.7258663
  12.8597126  63.6417542  12.6110706  55.3624001  67.1346207   2.9792025
  56.1522331  66.8136978   2.5440013  54.6415100  66.7371292   2.4907851
  62.3227272  61.3035088  44.9660149  62.5717049  60.5833282  45.5453072
  61.4889259  61.6160622  45.3171806  71.8918457  49.4399643  33.5638847
  72.8126373  49.6414642  33.3972092  71.4936295  49.4026031  32.6942558
  62.9413376  42.1460571  75.0813904  62.2736778  42.5947456  74.5625992
  62.5292091  41.3220596  75.3410416  54.3465233  18.2340240  74.8202209
  54.2715607  17.7871189  73.9770737  53.5108757  18.0657139  75.2556381
  20.4759064  61.8220558   0.1656314  19.5755234  61.5028305   0.1053045
  20.3883629  62.7360115   0.4362791   5.5112648  38.3854103  78.4764175
   5.9776683  38.0918465  79.2590561   4.5937867  38.1763840  78.6518402
   1.0211153  60.0794258   2.4570274   0.3251843  60.3493004   3.0562601
   0.7517821  60.4250259   1.6059961  43.7289467  47.5157585  23.6865788
  43.8021317  46.6042252  23.9693851  44.6109428  47.7479439  23.3960438
  30.6876869   7.1236973  71.5454636  30.0754242   6.3912206  71.6150742
  31.5396729   6.7110658  71.4037476  12.3027353  14.8786583  77.7205811
  11.9225044  15.6166878  77.2441635  11.7058496  14.7344999  78.4548645
  32.2654991  17.5373650   6.2848573  31.4503441  17.0811596   6.4937377
  32.0695114  18.4612923   6.4403491  30.5932693  31.5938797   9.9645882
  29.9191933  32.2090340  10.2534418  31.3676701  32.1376190   9.8200817
  73.4819946  12.0632915  24.7168999  72.9949875  12.8630009  24.5181065
  72.8899384  11.5535326  25.2699337  70.2768097  47.2523956  35.1779785
  71.0681763  47.2674713  35.7162590  70.0269928  48.1725540  35.0935669
  23.8086357  61.0116997  59.9560318  22.9644394  61.2920761  59.6025429
  24.2023945  61.8134308  60.3001404  73.5929413  54.1890030  19.4389629
  73.4869919  54.7704582  18.6860237  74.1722870  54.6678200  20.0316906
  70.3770065  65.6284866   3.9066911  69.4242935  65.6081009   3.9969587
  70.5520401  65.1380463   3.1035361  64.4496689  34.6820717  23.9415245
  63.5966072  34.6913300  24.3756161  65.0751114  34.5128593  24.6460972
  15.9637642  65.7715912  87.6109467  15.1358261  65.4325027  87.2706985
  15.8353291  65.8102951  88.5587006  41.8381767  49.6927719  60.5270882
  42.7885628  49.6301193  60.6223526  41.5055809  49.6711655  61.4243889
  37.9716911   3.5944495  72.6458664  37.3952904   4.3577728  72.6823654
  38.8514519   3.9528060  72.7634735  40.4103966  41.3035011  26.0801392
  39.8776894  41.7837296  26.7140446  40.1339531  41.6430321  25.2289467
  63.7025986  51.2774658  87.9099884  63.6181107  50.3681526  88.1967697
  63.1154671  51.3467293  87.1571884  22.4556828  65.4175339  71.7593002
  23.4021416  65.5563583  71.7249985  22.3544025  64.4665833  71.7999725
  33.8159027  46.2014427  40.2906380  33.1732101  46.8441162  39.9903870
  34.6619682  46.5769310  40.0468903   3.6829908  27.8838406  22.4444065
   4.2234192  27.8047199  21.6583347   2.7888186  27.9665852  22.1129837
  44.2135696  24.0736961   1.2687514  44.2335434  23.1178589   1.3157318
  44.7930489  24.2897472   0.5381630  14.6869898  13.2462845  31.0713329
  14.9135513  12.9532022  31.9539452  13.8519325  13.7020140  31.1772652
  39.5760002  40.6398544   1.8717893  39.3254890  40.2590408   2.7134886
  40.1589966  39.9901924   1.4789948   0.6517964  19.0713291   6.7582383
   1.2607570  18.3374214   6.6759057   0.5374220  19.3892784   5.8626618
  74.1686478   7.4077740  45.0462532  74.5071182   6.9877234  44.2555389
  74.8544998   7.2745543  45.7005463  79.5590897  30.5757275  46.2743034
  80.4573593  30.7418633  46.5602036  79.0160141  31.0543480  46.9005814
  41.3552628  59.3169670  14.4946642  41.4655418  60.0956993  15.0402298
  42.0730629  59.3633614  13.8631239  37.9783630  16.9064732  83.4438095
  38.7166977  16.3077469  83.3314514  38.0829582  17.5499039  82.7428894
  57.3105812  63.4075623  58.0617409  57.0846443  63.2043533  58.9694252
  57.4103546  62.5527954  57.6426392  22.1752548  61.0314369   2.4489293
  21.7139931  61.1943321   1.6261694  21.4804974  60.8423843   3.0796468
  62.7553101   5.2268844   2.1320760  62.7383232   5.5163674   1.2198573
  63.6637001   4.9659700   2.2836812  -0.1212687   3.4820299   7.6882706
   0.8246272   3.3367295   7.6682539  -0.4923557   2.6188946   7.8713646
  62.4432602  58.2439537  15.3923893  62.8972816  58.0673256  16.2163429
  63.0070992  58.8696289  14.9375811  72.0039749  64.1449814  25.4449902
  72.4824295  64.9729004  25.4881840  72.6597900  63.5032997  25.1722622
  75.7250977  57.7278061  27.4241734  76.3130112  58.1849174  28.0255356
  76.1486816  56.8832512  27.2707863  61.8315353  69.5112991  39.6679955
  62.6077805  70.0506973  39.8187370  61.3514366  69.9698715  38.9784660
  55.2290955   0.9600200  24.8259239  55.4335899   1.1727041  25.7365170
  54.9396057   0.0480229  24.8521767  53.6938171  45.4017220  18.2422333
  54.0730247  45.6853065  17.4103603  53.4712982  44.4812737  18.1026173
  30.4972992  20.9792595  78.4402618  31.2341061  20.6181908  77.9473343
  30.3454819  21.8393002  78.0484619   1.5742090   3.4158392  43.1563072
   2.3446884   3.6965532  43.6500587   0.8315173   3.7113602  43.6829071
  18.7274990  69.0302811  14.6876230  19.5086384  69.5824280  14.7220554
  19.0065632  68.2501526  14.2082891  25.9378910  48.5552063  30.0259476
  26.3831215  49.2385025  30.5270538  25.5686760  49.0137672  29.2712059
  33.0403175  18.1768990   1.5995477  33.0652390  17.7067795   2.4329739
  32.4791908  17.6410503   1.0389827  59.3187561   0.7421601  84.1806946
  58.4282036   0.6063747  84.5042877  59.8626785   0.7402421  84.9683380
  37.4473381  71.0894089  44.1464958  37.5320015  71.9778366  44.4925652
  38.3358803  70.8489151  43.8840370  31.6994228  53.4065781  63.4606438
  31.8907490  52.6969185  64.0738373  31.8944283  54.2054825  63.9505043
  83.2203369  52.5198708  56.3207779  83.7919769  52.9309578  55.6723404
  82.3495255  52.5478020  55.9243736  47.0311203   2.8584695   5.9885340
  47.4763489   2.1328666   6.4261441  46.1318550   2.5520866   5.8715501
  19.3868427  22.3117924  26.0787525  18.6728535  22.9348431  26.2138729
  19.1820946  21.5823326  26.6637268  66.5488739   8.6968298   0.5379336
  66.4450531   8.5003500  -0.3931131  66.0294266   8.0274935   0.9833494
  51.4872055   4.1799479  47.2868004  52.1489372   4.8705144  47.3249741
  50.7490654   4.5806584  46.8276520  20.7772827   2.4180565  65.7933807
  21.2887707   1.8662012  66.3850479  21.2636490   2.4005833  64.9691391
  43.4059448  27.0984364  80.4670563  43.2954521  26.2423058  80.0534592
  44.1124725  26.9693489  81.0998230  83.7241211  32.4727783  25.2381725
  83.0507965  32.5929604  25.9078121  84.5466843  32.6648369  25.6884327
  23.8140068  43.3648720  77.5612793  23.7485313  43.4352112  78.5136490
  24.7388229  43.5238304  77.3723984  85.3209229  22.5387821  67.5298843
  84.8704910  23.3620110  67.3410950  85.3669662  22.0916786  66.6847763
  77.1763153  28.7080574  80.8294449  76.6491699  28.4196892  80.0843277
  77.2676086  29.6529732  80.7068481  69.4813766  50.4611931  85.9654770
  70.3562775  50.2712402  86.3041306  69.4147339  49.9375877  85.1669617
  81.1618652   2.8027904  43.0482903  81.4108887   1.8956594  43.2252922
  80.2173920   2.8262508  43.2020950  61.4748802  70.7873230  10.5133018
  62.3640366  70.6072769  10.8186235  60.9183235  70.5893784  11.2664919
   7.7504234  10.6647940  75.8848267   8.6106758  10.3229523  76.1284256
   7.8189645  11.6089554  76.0265732  30.1399670  44.3467293  77.7693253
  30.6062775  44.5788765  76.9662704  30.5572929  44.8749161  78.4498291
  81.1610641  21.6139088  34.1569099  80.8128967  21.9179192  34.9951172
  82.1107712  21.6872807  34.2512703  78.4416504  26.2266941  37.5118103
  79.3871078  26.0859509  37.5621758  78.3124161  27.1105747  37.8557358
  68.3868256  69.6522980  76.3706894  68.9575348  69.3890762  75.6487274
  67.5025864  69.6019211  76.0076218  59.4038239  48.2199860  61.7745399
  58.4767303  48.1856422  61.5388527  59.4370079  47.8754158  62.6669540
  63.5074883  58.4023933  56.4371223  62.7965736  58.9569664  56.7584991
  64.0903320  59.0043411  55.9743271   6.9400816  57.6919556  39.3345871
   6.9523716  58.1162758  40.1925087   6.6661372  56.7929039  39.5159454
  62.7184525   6.8811989  13.3991547  62.7200966   5.9447064  13.5971708
  61.7918472   7.1073475  13.3186016  84.9441223  45.6446266  34.5548286
  85.0386276  45.1833954  35.3882332  85.8030853  45.5673561  34.1395721
  15.4933653  56.2503090  46.1311684  15.6722307  56.3975334  47.0599098
  15.6155710  57.1082954  45.7247734  75.7991180  58.5647545  53.0613861
  75.9701233  57.7166519  52.6518593  75.0077438  58.8846664  52.6282349
  38.5177345  43.4866943  70.5729141  39.0014229  42.6806641  70.3923874
  37.7050934  43.1914825  70.9836426  13.2577658  10.0569715  83.0349579
  13.6550655  10.2378874  82.1831055  12.6549749  10.7866535  83.1779251
  21.8337040  17.1132469  25.7458858  21.5214710  18.0033417  25.5831795
  21.4587917  16.8793774  26.5949898  51.5791321  34.4463768  85.8090439
  51.0446701  34.3418999  85.0218582  51.0315895  34.9586220  86.4040527
  44.1726456  15.6317015  81.5202179  44.6972885  14.9481173  81.9369812
  44.8018761  16.3215694  81.3095474  69.3260040  36.0607033  81.7204819
  69.5417099  36.0942650  82.6524506  69.8376389  35.3256836  81.3825378
  85.8928909  22.0220699  54.9066620  86.2780914  21.1712685  54.6969223
  85.0217361  21.8138924  55.2442627  55.7693138  34.9442978  29.8663712
  56.6054268  34.8444595  30.3215408  55.8991928  34.5025177  29.0272102
  31.0965691  37.1050110  75.1396408  30.8939991  37.0154037  76.0708542
  31.9680061  37.5005913  75.1210785  62.3990135  64.7410889  22.0845394
  61.6207809  64.8289261  22.6348763  62.3526840  63.8472900  21.7451019
  73.6152115  16.6239643  56.7129440  73.3254395  15.7134523  56.7697716
  73.3373260  16.9098816  55.8427353  64.9280319  17.5624428  18.7609787
  64.4417953  18.3370609  19.0434189  65.7554321  17.9079990  18.4259663
  18.4187450   6.0743213  66.8651123  17.5607910   6.0978942  67.2888870
  19.0310097   6.3469801  67.5485001  74.1901627  51.5396233  36.3511009
  74.0543823  51.7921104  37.2643623  75.1393127  51.4495049  36.2660942
  86.0255127  63.5604095  35.9617195  86.9072876  63.6530266  36.3224564
  86.1550598  63.5451164  35.0134506  68.3540649  34.7404137  13.7296715
  67.9168472  34.9836540  12.9136419  68.2235184  35.4940376  14.3052044
  27.6973705  51.3791466  67.9743576  28.6490040  51.2764587  67.9833145
  27.5586796  52.3262444  67.9722748  78.8321304  17.7469578   3.6570621
  78.4420013  17.0299568   4.1570034  78.0934906  18.3138599   3.4351206
  41.2571411  59.9218330  21.7962532  42.1918526  60.1179581  21.8601742
  41.2213669  59.0556488  21.3904457  19.2320671  70.1270599  11.1097431
  18.8572159  70.7528610  11.7294931  20.1765938  70.2723846  11.1643620
  80.1044769  47.7412605  26.5123482  79.9952469  48.5240974  27.0522232
  79.4543686  47.1250153  26.8497334  54.5016174  46.7926712  64.7823410
  55.1074829  47.2253227  65.3839874  53.8659477  46.3601151  65.3524780
  32.8119392  35.0978546  73.8771286  33.5133324  35.5185585  73.3798447
  32.0824661  35.7159805  73.8321991  15.5314560  13.7206335  23.3783951
  16.0636635  13.4555702  24.1285477  15.1965179  12.8986940  23.0199757
  71.0927124  41.9650345  87.9474258  71.7412796  41.2611122  87.9568787
  70.4199677  41.6791801  88.5654373   2.0838435  29.5894260  35.5737000
   1.2582304  29.1070385  35.6172676   2.7565527  28.9279327  35.7353210
   3.2576554  40.3780518  19.4736252   2.7409501  39.5896645  19.3072224
   2.7027173  41.0965729  19.1703053  79.7502975  18.7252235  88.2739639
  80.3646164  17.9963932  88.1864929  79.7996063  19.1821117  87.4342880
  54.8977318  35.4936180  56.9388847  53.9938087  35.6554756  56.6687737
  55.2926636  35.0400467  56.1942139  79.4308319  59.4608421  24.2790337
  80.2981339  59.8433838  24.4119930  79.5890961  58.6941490  23.7282467
  13.9013472  42.6118202  50.7395096  13.5768528  42.8394432  51.6107864
  13.1530809  42.7555695  50.1601448   7.1509724  63.9839287  18.7245579
   7.6814966  63.8230095  19.5048656   6.2959857  64.2458496  19.0660610
  51.3884735  39.3416100  20.5678730  51.2967987  39.2345810  21.5146427
  51.5774345  38.4607468  20.2444420  52.0487213  35.5111122  58.3116074
  51.9615707  35.8256035  57.4117546  52.1778374  34.5667305  58.2238235
  54.8029251  61.8087654  19.2977390  54.5907173  61.3862114  20.1299934
  54.5875473  62.7311630  19.4356747  18.0544834   3.7838461  18.3365021
  18.8007011   3.2405233  18.5898590  17.4900150   3.1962836  17.8341312
  22.0509930  55.1492233   3.5828955  22.3502140  54.2450600   3.6787665
  22.8466225  55.6457977   3.3915336  40.9067802  42.7275314  45.0624390
  40.4748535  41.8734283  45.0489655  41.8052330  42.5459480  44.7866821
  10.4975977  61.3365974  11.7259302  10.7320156  62.2513504  11.5693693
  10.1966515  61.0174828  10.8751497  74.0780334  62.9524612  41.6614113
  74.0110855  63.4785652  42.4582596  74.0072937  63.5873604  40.9485779
  54.1955872  10.5719423   6.6059971  53.7033691   9.9081764   7.0890789
  53.9954376  11.3929520   7.0555701  75.3387680  45.3038101  81.8842926
  75.6490784  45.5508461  81.0131378  74.3885574  45.2370949  81.7900696
  77.2494659  43.5961609  62.2932930  78.0347824  43.9127464  61.8468781
  77.5272064  43.4604607  63.1992035  80.3224716  33.5247269  45.8713646
  79.4535751  33.5865860  45.4745941  80.1516418  33.4280014  46.8082161
  79.2792206  39.3840675  79.5952301  79.5944977  38.6213379  79.1103897
  78.4131393  39.1260529  79.9107895   0.5750301  15.2528429  42.5972977
   0.5809706  15.4525347  41.6611786   1.3916686  15.6275673  42.9273186
  50.4390450  67.4372635  88.8759155  50.1948662  66.9007187  89.6300583
  50.9192543  66.8399658  88.3024445  11.0376921   3.9662519  48.6534691
  11.1812897   3.6079795  47.7775383  10.6057816   3.2596197  49.1334229
  71.1384964   4.8896751   7.5290623  70.5880966   5.6678553   7.6169605
  71.9533310   5.2146478   7.1460824  79.5473480   8.3102303  39.8933678
  79.3718109   7.9473338  39.0251961  78.8308868   7.9847822  40.4383392
  19.9852581  66.7550964  88.5498810  20.4831448  67.5660553  88.6532516
  19.1717548  67.0260773  88.1244202  48.0664635  71.4093475  85.9582062
  48.4624672  72.0242538  86.5757065  48.0319366  70.5800247  86.4349289
  65.1460190   9.9449730  62.2502708  65.8749542   9.3303289  62.3345642
  64.7782974   9.7632694  61.3854027  31.6522694  66.6409302  85.7140121
  30.7506542  66.4976196  86.0017395  32.1736755  66.5646667  86.5131073
  70.7524033  48.9546242  69.5590973  71.7012711  48.9927368  69.4389496
  70.4117737  48.7085152  68.6990738  42.7122574  16.0813942  72.4604492
  42.6958199  15.3782454  73.1097107  43.6411552  16.2061558  72.2659760
  25.2195435   1.6931943   4.5037904  25.5735149   1.3016884   3.7052546
  25.7964821   1.3797597   5.2003050   4.8908482  33.6175728  12.4238415
   4.2346430  33.9468079  11.8096504   5.7158880  33.9938812  12.1173544
  61.3438034  41.4350395  10.2618294  61.7392807  41.3733406   9.3923330
  60.7114792  42.1497612  10.1871824  35.4759445  55.4135399  41.8532677
  34.8599892  56.0965080  41.5879669  35.8271790  55.0747528  41.0298080
  40.4198189  41.3654137  69.9018326  41.2462273  41.2363815  70.3672714
  40.1639862  40.4871407  69.6200256  24.5042934  46.1190910   0.2701888
  24.0137863  46.8262711  -0.1487730  24.3828545  46.2663612   1.2081629
  72.0393219  36.9136124  25.3499737  72.4779053  37.3716125  26.0669880
  71.1186295  36.8869476  25.6104393  64.9382248  39.9713974  19.8884087
  65.6999893  39.4022865  19.9982281  64.6366806  40.1427803  20.7805595
  29.6796417  59.7418594  87.0998077  28.7549877  59.4945335  87.1087112
  29.7781029  60.2722549  86.3090973  34.7492104  51.6371193  56.7272072
  35.5740471  51.6266060  56.2416573  34.4288292  52.5344582  56.6356888
  78.8007812  11.1321468  33.8258133  78.5796127  11.6169052  33.0306244
  78.5115662  11.6995096  34.5404396  17.7622795  13.9663410  60.4762917
  18.0462856  13.3807163  59.7744255  17.4592037  13.3800001  61.1695290
   6.7885118   4.0189838  12.7234459   7.0958905   4.8095803  13.1669626
   6.2815046   4.3435969  11.9792671  78.1547318  59.3463821  84.8373337
  78.0111160  58.7073364  84.1393204  77.6963120  58.9814262  85.5942307
  64.1024780  16.7908916  36.6472816  64.5194550  15.9400387  36.5115929
  64.8093643  17.4255047  36.5297356  64.7277679  27.9589195  43.4009514
  64.2014771  27.7657795  42.6250954  64.1030579  28.3187561  44.0306244
  72.0227509  49.4268417  39.7075386  71.1387787  49.2073402  40.0018921
  71.9859619  49.3418579  38.7548294   2.9215124  17.4275570  36.7304878
   3.3800714  17.3747635  37.5690384   2.2849412  16.7133274  36.7602272
  38.7755394  40.8037949  73.5149612  39.6845207  41.1004448  73.5594406
  38.3805504  41.1193886  74.3277435  32.7577248  49.6980858  68.2787323
  32.0691261  49.7207489  68.9432220  32.6683350  50.5293961  67.8127213
  72.4197311  63.2048149  29.7744942  72.6210938  63.6692772  30.5868740
  71.7942734  63.7717056  29.3232059  21.7044220  51.5209007  85.1696243
  21.0229797  51.5172348  84.4974289  22.5250530  51.5614319  84.6785507
  31.6882839  34.6116562  64.9765320  31.0917282  35.3419418  65.1409607
  31.9481430  34.3137169  65.8482742  69.5720291  61.4857559  73.0147018
  70.1763687  62.1891937  72.7776642  68.8039856  61.6337662  72.4629517
   0.7126692  50.2430763  10.8626862   0.5591781  49.8192062  10.0182896
   1.0806066  49.5524788  11.4139805  16.8892326  47.7755089  34.0940132
  16.1099987  48.2864113  33.8749237  17.2393894  47.4978409  33.2475395
  14.7495852  34.1336594  70.1178360  14.8551817  34.1066628  71.0688095
  14.6720581  35.0652046  69.9118042  41.0046082   5.8721271  10.7955046
  40.2623215   6.2986369  10.3673325  40.7857971   5.8891153  11.7272043
  62.3415451   1.7726032  71.3520432  61.8901443   2.4567227  71.8464661
  61.9847641   0.9536116  71.6958389  65.2763138  63.6849365  69.4076920
  64.8943710  62.8274307  69.5948639  64.9014435  64.2640991  70.0712280
  66.1378632   5.2115932  79.4079590  66.5545807   5.8431859  79.9941864
  65.2534714   5.5535865  79.2770920  76.8122406   1.4288931  47.5109291
  76.9387054   0.5253577  47.2213440  76.6196747   1.9130335  46.7079620
  59.9550400   0.7499287  17.1868057  60.5244980  -0.0184006  17.2270584
  59.5592003   0.7093282  16.3162346  54.2268524  10.1456556  48.2056465
  54.3818855   9.2279158  48.4291420  54.7878609  10.6364756  48.8061447
  11.5322351  71.2048645  42.0406494  11.4054432  71.0698776  41.1015358
  12.4520741  71.4560623  42.1244774  78.7677612  45.6427879  33.4003944
  79.4237213  45.1792107  33.9210091  78.3920593  44.9691505  32.8335648
  84.4479141  21.7146397  70.4935226  83.8950806  22.4693432  70.2909851
  84.8041992  21.4446945  69.6471100  45.4492569  24.6937714  77.6305161
  45.4429092  23.7369022  77.6548691  45.5725937  24.9090233  76.7060242
  33.6974487  29.1507683  11.1137676  33.9138069  28.2293358  11.2565327
  33.8521805  29.2911797  10.1796503  39.8772163  48.7883530  13.8501453
  40.5186310  48.6039009  13.1639996  40.3520546  48.6402740  14.6679659
  61.8910446  36.6455193  52.8905716  61.8255272  37.5998878  52.9240189
  62.5838776  36.4309692  53.5152168  83.5035095  44.1011238   2.5426905
  84.4041748  44.3170967   2.3010502  83.0017929  44.2315750   1.7380179
  60.3262253  10.0297308  40.2679977  60.7616920  10.8109550  39.9269829
  61.0422592   9.4579725  40.5448074  54.5166588  65.7583389  87.4409027
  54.4980392  64.8397598  87.1723938  54.9790878  65.7535706  88.2789764
  32.7281914  30.6804676  82.3077850  33.0297279  30.1369343  83.0357132
  32.0881844  31.2737865  82.7009659  23.6408653  57.2166595  68.0915222
  23.5379143  56.2747192  67.9559555  23.2619133  57.3770866  68.9557495
  62.7235832  17.9150982  13.4362574  62.5643463  18.3468513  12.5969324
  63.1134682  18.5953312  13.9853516  26.1473007  65.7409058  24.8850288
  26.2436657  65.2933426  24.0444145  26.1966591  66.6718216  24.6677780
   0.2112442  24.7534313  47.8787460   0.5147336  24.1207523  47.2277145
  -0.1422777  24.2164688  48.5879211  84.1827545   0.3742050   6.1366754
  84.7319183   0.7919816   5.4732656  84.6968384   0.4289049   6.9422545
  61.9020042  57.3501167  30.2959137  62.5261536  57.4376221  29.5754890
  61.0640678  57.6214867  29.9211464  71.8035660  20.0103874  14.2943830
  72.0267181  19.2106895  13.8180246  70.8730927  20.1446686  14.1143475
  54.9360466  31.8721313  59.2842216  55.6434822  32.4297867  59.6079330
  55.2797012  31.4952469  58.4742279  58.7353935  59.9513321  42.1010475
  58.2334328  59.8446045  41.2930374  59.0571404  59.0722847  42.3010139
  37.8700829  49.7159996  26.9994545  36.9183807  49.8092270  26.9570236
  38.1081505  49.3081665  26.1668510   5.7007618  41.3495178  19.8220444
   6.2045641  40.8375549  20.4547443   4.8359737  40.9392242  19.8163013
  55.6042099  16.5907631   1.3399242  55.9045830  17.0823669   2.1043413
  54.6905136  16.3813725   1.5337008  83.3374557  53.5394630  13.1159000
  82.7021790  53.8592224  12.4752722  83.9509125  54.2656593  13.2279110
  56.0178070  45.7704353  88.2089310  56.0702400  45.7668953  87.2531738
  55.1411896  46.1042976  88.3994827  41.0472565  38.2426529  10.0072680
  40.2422066  38.6212997  10.3604660  41.3912239  38.9160004   9.4203091
  64.9362411  15.0050573  87.7175140  65.0760803  15.7180300  88.3406830
  65.3351974  14.2411566  88.1340714  57.8895836  12.0119886  42.0899811
  57.8560524  11.6663456  42.9819679  58.2178612  12.9053869  42.1914902
  44.8691025  48.1830215  18.4279060  44.7621613  47.4069023  18.9778481
  45.6073265  48.6521759  18.8166828  36.9268074  49.6823235   4.8709421
  36.9386673  48.9534187   4.2506313  37.1379890  50.4510994   4.3412066
  28.7075348  57.1205368   2.1628423  28.2235069  57.0731277   2.9872825
  28.1953697  57.7185020   1.6184571  48.0833588  63.0329361  79.7049255
  47.1335831  63.0952263  79.6035614  48.2762985  62.1027946  79.5872803
  77.2479782  18.3897476  83.5569992  78.1306839  18.4417572  83.9235458
  76.9427185  19.2967663  83.5379562  79.9449768  31.9442215  31.0614929
  79.6817551  32.5884666  31.7186756  80.8947144  31.8763218  31.1596031
  64.6094666   0.3303936  70.4542694  64.1591034   0.9563470  71.0213547
  64.1165771  -0.4836777  70.5571289  38.1079140  24.6203613  -0.0990555
  37.7353134  23.8199043  -0.4687415  38.7192230  24.3130569   0.5703486
  19.2533894  12.8045149   9.5756121  20.1959629  12.8285141   9.7405663
  18.9249992  12.1224813  10.1614647  42.5244522  67.3659668  46.9988251
  42.6490402  66.4194336  46.9297180  41.6016808  67.4697647  47.2310982
  37.1001205  62.4715042  87.4553070  37.5082741  62.8682327  86.6857300
  37.7478218  61.8419838  87.7722015   4.1861076   3.4728246  61.0181999
   4.3811460   4.2503910  60.4951477   3.3080561   3.6313655  61.3647881
  36.5009270  51.5097618  67.1529236  36.1738815  52.3970261  67.0044937
  36.0583763  51.2218170  67.9513397  25.4108257  41.0394096  59.2745399
  26.2847881  41.2355347  59.6121140  25.1588326  40.2295876  59.7182961
  41.9770393  35.9362144  81.6050262  41.7768745  36.6750679  81.0303421
  42.9074554  35.7647972  81.4595108  78.8589172   8.3398714  63.3242760
  79.3634033   7.8932095  62.6444092  77.9616089   8.3468380  62.9910774
   5.4168687  58.3201065  25.6227036   5.5694981  59.0005493  26.2783985
   6.2185349  57.7971153  25.6291790  53.4522705   3.3203993   3.3819599
  53.2124329   4.2270436   3.1903708  54.3977280   3.3486543   3.5287483
  25.2865009  35.5129013  28.6713924  25.8413887  34.7756767  28.9260120
  25.7832432  36.2881432  28.9330750  41.4553032  46.2941971  45.1803856
  41.2238426  45.7524681  44.4259377  42.0854759  46.9272537  44.8363647
  42.2437706  61.1394196  63.8665390  42.7316093  60.5947380  63.2488289
  41.4372902  61.3642120  63.4025459   4.0051804  61.8272934  59.0857849
   4.7815247  62.3830719  59.0177193   3.3594513  62.3719177  59.5359535
  20.8924770  67.2157364  79.0394821  21.4821262  67.9194717  78.7687302
  20.8980103  67.2532959  79.9959259  83.8954239  40.4320488  41.4852600
  83.4068832  39.9324226  42.1394272  84.7221909  39.9589844  41.3909378
  31.1444778  61.0302773  80.2157898  30.6414757  61.7750168  80.5453110
  31.7592812  61.4142799  79.5906601  61.2802391  17.7873535  17.2394142
  61.9370232  17.3895378  16.6679173  60.5463295  17.1730309  17.2247677
  40.8016510  51.4889717  58.7300262  41.0950928  50.9179764  59.4400177
  40.1500511  52.0605774  59.1361275  25.9139748  14.2887087  73.4867554
  26.2990646  13.4584675  73.7671738  25.8037262  14.7871904  74.2964401
  52.6482124  52.6102448  78.0656662  52.1962967  52.5794945  78.9089050
  52.4816780  51.7531967  77.6732788  56.2098389  39.5315895  48.3846664
  56.1402550  39.1207161  49.2463951  57.1233864  39.8111992  48.3257065
  21.8963547   8.7475681  50.8619728  22.0592899   7.8109617  50.7503853
  22.7509022   9.1571054  50.7268486  54.5896797  41.6305695  53.2633324
  53.7112350  41.5147972  53.6254959  54.5563469  42.4785194  52.8205032
  23.0026894  51.9694023  58.1199875  22.7111092  52.8588562  57.9197807
  23.5049000  52.0585976  58.9299622  74.6954269  21.4642906  54.0679016
  75.1064911  20.6503639  53.7767296  75.4265060  22.0677738  54.2004318
  36.8707886  65.9175491  39.3625259  36.5775223  66.6093445  39.9555321
  36.7017136  65.1052856  39.8398819  85.1769180   6.0620809  27.6742306
  84.4611664   5.4270186  27.6992474  85.3678131   6.1712384  26.7426319
  79.3177948  49.3806419  68.0945129  79.5606842  49.0123634  67.2450333
  79.2081528  48.6186790  68.6633911  36.9614754  47.7457047  82.5164413
  37.2489548  47.7821388  83.4287186  37.7611542  47.5713654  82.0201035
  25.7087822  59.7150650  51.2436562  26.2781677  60.4829178  51.2929649
  26.0511036  59.2100105  50.5061150  65.9546814  69.6803360  18.4158592
  65.4638290  69.2900391  17.6926994  65.3461227  69.6644592  19.1545277
  74.2059021  29.3738003   5.0387740  74.8014679  28.9108315   5.6280031
  74.4986115  29.1284733   4.1610689  28.5973797  29.8860531  13.0556488
  28.1457329  30.7299938  13.0589495  29.4391899  30.0665417  12.6373043
  82.8991623   0.1951417  79.8529816  83.5011063  -0.2178736  80.4721069
  82.7681046   1.0779339  80.1990128  70.0298767   2.4195704  68.3905792
  70.0874252   1.4792070  68.5598068  69.1652069   2.6691291  68.7166214
  40.3637123  65.0141754  25.1067696  40.7095947  65.4058914  24.3048000
  39.7761421  65.6798477  25.4643707  22.7034435  23.6493053  56.7387428
  22.8960018  23.4413147  57.6530113  22.1437702  24.4246159  56.7822380
   9.2931376   6.9802389  31.6857433   9.0193968   6.0771055  31.8458939
   9.3579626   7.0454874  30.7329731  14.9049149  20.9899540  84.9436798
  14.3353720  21.3810062  85.6062012  14.4369202  20.2051544  84.6585541
  68.5736694  71.2733307  87.9575882  69.4762344  71.2399902  88.2745895
  68.3691864  70.3685455  87.7214203  77.2989502  21.1739674   0.0870280
  76.3526688  21.1799545   0.2310767  77.6586685  20.7674656   0.8754370
  42.7388840  60.8773384  82.8836975  43.5311127  61.3602409  82.6483002
  42.1667404  60.9698639  82.1219101  32.0236397  23.7606907   2.6127048
  31.7767143  24.1690521   1.7829452  32.2724495  24.4937248   3.1757197
   2.9816284  28.6667728  66.2532730   3.4775481  28.4063015  67.0294495
   2.2458441  28.0552788  66.2228088   0.4847880  26.4055214  34.1643105
   1.2030065  26.6061020  33.5641747   0.2790357  25.4865379  33.9929390
  30.2459183  19.0645657  14.0469131  30.4036102  18.1616268  14.3227148
  29.5493870  19.3737469  14.6261225  36.3906097  50.9153481  83.4985886
  35.4345474  50.8828278  83.4651184  36.6632538  49.9990540  83.4505539
  58.0197868   2.8806999  86.5355682  57.4500427   3.6307921  86.7058105
  58.7862167   3.2556760  86.1017303  83.1056824  57.4171600  32.9859428
  83.8408432  57.4474449  32.3736916  83.2506104  56.6195946  33.4949760
  18.7763309  44.4970169  26.9557266  18.9732113  43.5664902  26.8480625
  19.6243134  44.9016533  27.1385555  11.0816278  51.5893898  69.5918579
  10.5519495  52.3027420  69.2357559  11.9214458  51.9971237  69.8032608
  76.1124802  61.1735878   0.1013659  75.7082367  62.0379753   0.0261739
  76.9088593  61.3250771   0.6103462  38.3584747  16.0769348  15.2382927
  38.5703964  16.9845238  15.4564781  39.0349731  15.5609407  15.6768522
  13.2955971  55.3230858   7.6569414  13.2557936  55.6163940   8.5672264
  14.2031450  55.0445099   7.5345306  44.4980202  45.8882675  53.1655502
  43.9097672  45.6452637  53.8804893  44.1575356  45.4176331  52.4047585
  20.4893379  65.1782837  65.3183136  19.9820766  64.7721405  64.6154861
  21.3900051  64.8972931  65.1568375  72.5699997   2.4827895  43.8066940
  71.9707947   1.9929966  44.3699837  72.7147598   1.9087420  43.0545311
  71.8930054  29.8799801  36.5533218  72.4843750  29.6656380  37.2748299
  72.3681412  30.5336723  36.0403290   0.1953032  61.1640930  58.6486588
   0.4767734  60.8978195  59.5239334   0.3551337  62.1074867  58.6223297
  31.2311497  56.6405411  50.1863861  30.5348148  56.1380577  50.6093025
  30.9038925  57.5399780  50.1741142  43.7878838  45.6474380  85.3233643
  44.0901222  45.7688141  84.4232864  43.2995453  46.4464188  85.5218430
   2.8990378  18.9047947  56.8634872   1.9839814  19.0684338  57.0917969
   2.9784045  17.9508934  56.8611145  58.5164108  31.9104309  39.3608093
  57.9592247  32.6378784  39.0840454  59.1405144  32.3050423  39.9699173
  50.5863953  43.5310555  66.2811661  50.7187271  43.9085693  65.4115601
  50.3338356  42.6233482  66.1123123  63.0842209  23.1783123   3.5333843
  62.6570740  23.7992916   2.9433315  63.2850685  23.6911545   4.3162537
  74.4345551  48.3209305  36.4412346  74.2458572  47.8643265  35.6213951
  75.3353119  48.6291428  36.3419037  62.5877113  23.5979385  87.6546555
  61.8527756  23.1682720  87.2170563  62.2559280  24.4662094  87.8832474
  43.9617996  59.9925117  80.0988770  43.0785370  60.2275543  79.8145676
  43.8398094  59.2113647  80.6384659  27.5380650  53.0125008  28.1026001
  27.8870449  53.6399574  28.7356434  28.2633057  52.8531837  27.4985504
  39.2857819  28.4470253  82.0406113  38.7737846  28.8904324  82.7169800
  40.1969070  28.6025314  82.2894135  79.2397995  40.4964409  40.1323891
  78.9053879  40.5033646  39.2355309  79.3641129  39.5691185  40.3345032
  85.4665375  18.1524010  87.9076233  86.2482300  17.6071358  87.9963455
  85.7670975  19.0373745  88.1143112  85.7589645  64.2476501   5.0700955
  84.9623718  63.8461914   4.7229600  86.4272232  64.0635300   4.4099708
  17.8866558  63.9477654  60.8787956  18.0605011  63.0967331  60.4766083
  16.9414253  63.9527969  61.0296059  45.8976974  52.2632675  34.6204529
  45.3750992  51.9170036  33.8971138  45.7862549  53.2122612  34.5636292
  46.5475693  33.2338905  16.3398609  47.2953758  33.5024300  16.8736248
  45.8668060  33.8760109  16.5410442  57.0241966  44.7405891  40.7933350
  57.0453339  45.6435585  40.4764214  56.6480675  44.8036232  41.6712761
  71.0555191  56.0228233  18.9134293  71.2453842  55.6262398  19.7636662
  71.5348282  56.8513145  18.9231911  70.1247101  33.1823349  65.4165344
  69.6065216  32.6431770  64.8190231  69.6225739  33.1870575  66.2314377
  76.0187836  14.7380743  85.6995697  75.6908569  15.6369991  85.7246246
  75.4979782  14.2747641  86.3555756  41.8049049   1.5447701  46.3203964
  41.6137962   1.3994205  45.3937988  41.7617722   2.4949622  46.4276619
  46.7189751   8.1096449  38.1600952  47.0837555   7.2463183  38.3546104
  45.9419937   8.1720743  38.7156410   0.6782127  19.4881840  58.7159348
  -0.1798562  19.0913601  58.5660019   0.9529059  19.1499271  59.5682030
  50.5128365  19.7751846  67.1670151  50.3439255  18.8645401  67.4087372
  51.1080933  19.7181339  66.4195862  23.0521641  17.6942406  53.5687141
  23.2119102  16.7634697  53.4125748  22.1084671  17.7536278  53.7175102
  78.6609192  40.9539413  75.8484268  77.8287506  40.6894989  76.2405853
  79.3185654  40.7256432  76.5053940  28.8136806  71.2520142  72.2815933
  28.7409058  70.4507828  71.7629776  28.5687885  71.9520798  71.6764679
  32.6695404   6.9089246   1.7707399  33.1749382   6.1057348   1.8960134
  31.8401432   6.7423267   2.2185943  22.1095982  67.4070282  85.6233902
  21.4944916  66.7905426  85.2261200  22.5550690  66.8979950  86.3006439
  78.3066711  14.8764038  80.9211731  77.6169434  14.2168026  80.9948959
  79.0984726  14.4294510  81.2203598  47.4745102  11.5719175  85.3452530
  48.3370934  11.1814680  85.2047882  47.1112061  11.0893459  86.0877991
  44.1890068  17.1559849  87.5840530  43.7392502  17.5148849  86.8191147
  44.5754776  16.3375530  87.2725372  22.4115810  67.2954407   8.5651226
  22.2520943  66.5127258   8.0377216  23.3125801  67.5439529   8.3585405
  56.0621109  16.0567513  13.1847134  55.8409042  15.5989141  13.9956903
  55.3283539  16.6539097  13.0389977  23.2757473  35.1593933  85.4147797
  23.3123226  36.0631561  85.7279968  22.4489670  34.8202896  85.7578201
  31.4030075  29.2796783   2.0147963  31.2363453  29.0421085   1.1026473
  31.0018158  30.1429958   2.1145885  74.7172089  64.7249146   3.1084247
  74.1605988  64.2088547   2.5252488  74.3695221  65.6145630   3.0461409
  51.8337479  53.3408775  52.3915176  52.4523277  52.9851646  53.0295296
  51.3948212  52.5714684  52.0287704   5.2894306  44.6742668  28.0385838
   6.1970606  44.4172897  28.2010727   4.9901056  45.0365067  28.8725014
  74.9965210  42.1253510   1.9494140  74.1326981  42.1714287   2.3592038
  74.8182449  41.8786049   1.0419084  22.0456371  30.5247993   3.1202013
  22.3364735  29.8444786   3.7275002  21.2355824  30.1800575   2.7444382
  20.3671951  48.6587105  85.7382431  19.8017349  49.2609596  86.2217484
  20.3228264  48.9638824  84.8320770  54.2580528  69.9561234  25.2207050
  54.3679085  70.0483704  26.1670952  54.0235977  69.0365906  25.0953026
  49.8696442  40.7586174  24.9745178  50.6317940  41.1178436  24.5203018
  50.1761475  40.5987396  25.8671131  60.8236275  22.9412537  72.6525803
  61.1456108  22.6773205  71.7906647  60.5251312  22.1264381  73.0565720
  24.5542030  35.4992409  80.9984436  24.2993412  34.5814285  81.0927734
  25.5081062  35.4763374  80.9224396  12.2088671  54.6225777  47.0314560
  11.3456173  55.0357704  47.0140877  12.5944014  54.8374939  46.1820984
  40.1277657  43.1889343  67.6441422  39.2119598  43.2188721  67.9209824
  40.5108986  42.4795914  68.1601562  51.8956146  43.7103119  26.5013466
  51.8897629  42.7589493  26.6067352  52.8227158  43.9377785  26.4308281
  75.9035721  65.2057037  26.1609707  76.2937851  64.6713409  26.8526535
  75.6888046  64.5811157  25.4681511  41.1780739  60.0662270   6.0635657
  40.4973793  60.1076012   6.7352600  40.8817253  59.3813438   5.4641123
  12.2088451  66.9936829  78.5043106  11.4701052  67.3498764  78.0107269
  12.9826069  67.2948914  78.0280762  24.0766468   1.5500286  48.0290947
  24.5686073   1.1820253  47.2950783  24.7439613   1.9430525  48.5916405
  51.0360413  59.6323090  32.8433266  51.7167816  60.0834503  33.3426247
  51.4735222  59.3548088  32.0384407  44.5367851   8.9845772  12.7233896
  45.0252838   9.2852602  13.4896727  45.1776733   8.9926977  12.0124550
  61.3538399  35.3485413  24.1969624  61.3169136  35.3890457  25.1525936
  61.2670937  34.4173203  23.9931736  69.9131699  15.5065508  13.1519241
  69.1041183  15.9363976  13.4292316  70.1621552  14.9606752  13.8977518
  59.8839188  47.0005455  13.6539783  59.0574760  47.4292030  13.8764153
  59.8841629  46.1965981  14.1734962  32.6308250   5.3293152  21.6792049
  33.0958672   5.8744893  21.0445766  32.2670670   5.9518986  22.3087273
  24.2862911  38.8735085  27.1547832  23.6444149  39.4326515  27.5924873
  24.8122540  38.5097351  27.8670063  29.0764103  65.8583603  86.1920013
  28.8415508  64.9465027  86.3640137  28.9425278  66.3022385  87.0294266
  62.1408539   5.7292900  79.7581635  62.4123421   6.5667686  80.1338730
  61.7192841   5.2671604  80.4826965   0.4651954  44.3541183  74.8662491
   0.4070688  43.6722374  74.1969986  -0.4425672  44.6146469  75.0222092
  85.8572388  38.8069725   8.1705761  85.0446777  39.1069107   8.5780249
  85.6662064  37.9137268   7.8844795  19.5413227  14.8844976  12.1109638
  19.6275539  14.7120628  13.0485468  18.6655254  14.5684566  11.8888645
  54.1114731  36.1678352  19.2532215  53.3280487  36.6668167  19.0219307
  53.8172035  35.2572975  19.2768307   4.9524655  55.3505020   8.1268387
   5.1384521  54.6191368   8.7156897   5.4402032  55.1457024   7.3290906
  80.0818939  29.8407555  22.7543926  79.9339066  28.9130268  22.9378452
  80.9861832  29.8821144  22.4432907  52.5565224  54.5622864  68.8432388
  53.1204414  55.2129745  69.2613602  52.5847244  54.7836494  67.9124146
   6.2345243  31.0909691  77.0562897   6.5950975  31.8831558  77.4546127
   6.6591458  30.3725567  77.5251312  26.5987434  30.2390518  85.0959091
  25.7414055  29.8393383  85.2423019  26.7312393  30.1818657  84.1496506
   3.2677736   7.6643128  11.9811792   2.4971185   7.4913731  12.5219326
   2.9546835   8.2618828  11.3021240  46.3539391  13.6081648  23.9231396
  46.4363594  13.1885815  24.7795200  47.0010910  13.1638107  23.3754368
  39.2476463  42.6489029  28.4931087  39.5679779  43.5269470  28.2865791
  38.9089737  42.7212486  29.3854637  55.7084045  55.1034851   2.4035933
  54.8406677  55.1515808   2.8047817  55.8045731  54.1854591   2.1501966
  81.0968018  67.5391693  47.0311623  80.7061386  66.7221680  47.3411980
  80.9984512  68.1454163  47.7653465  78.9735794  11.2816105  82.6313248
  78.8525620  10.6980400  81.8823090  79.6095963  11.9301071  82.3293915
  39.9331055  63.8338356  80.4212036  39.2030525  64.4113770  80.6441422
  40.5732002  63.9768791  81.1183777   1.0232515  14.7018347  74.8757172
   0.5264571  15.1206083  75.5786133   1.6050284  15.3891983  74.5512238
  56.9307442  30.3054962  44.8115845  56.1781502  30.7545471  44.4266357
  57.4562798  30.0314064  44.0599747  56.7970047  46.2574539  58.1288414
  57.5120125  46.2580299  57.4924431  56.6800423  47.1793022  58.3585091
  11.1704407  46.5255203   3.3442931  10.4224625  45.9360123   3.2481728
  11.9011087  45.9503326   3.5712593  50.3453293  15.0384521  45.4089775
  49.5505600  14.8306627  45.9002953  50.7004089  14.1862144  45.1563110
  58.0289307  35.6363487  36.8311043  58.0953827  34.9842148  36.1335793
  57.8142471  36.4513626  36.3773460  68.8660202  25.0440235  20.5237236
  68.8817673  25.9973145  20.4387531  68.0295029  24.8552494  20.9489670
  59.7216988  63.1426392  28.3280773  60.6338882  63.0535278  28.6041145
  59.3541908  63.7962685  28.9230042  18.0675831  49.2367096   1.6588103
  18.1533165  50.1885681   1.6054865  17.1747894  49.0596657   1.3624902
  16.6843891  18.7476082  86.6578674  17.1273785  19.5302544  86.3300552
  15.8758993  19.0767822  87.0505753  26.7833519  41.8627167  61.8489380
  26.0372925  41.7686729  62.4412079  26.5809517  42.6415329  61.3305588
  50.2429771  34.4426460   3.4692621  50.8484268  34.0863800   4.1194439
  49.3979416  34.0500793   3.6884422  79.2623901  56.5937958  60.2709389
  78.8725281  55.8474503  59.8157387  79.4912567  57.2072678  59.5727234
  84.7768707  55.2147522  35.6933479  84.4303131  54.5711823  36.3113670
  84.1688614  55.1888885  34.9545059  71.2902832  20.9696236  88.3568954
  71.0935745  20.4376392  87.5858383  70.5715256  21.6001301  88.4025803
   3.3423927  38.0254707  12.2152653   3.6942673  38.8834724  12.4524422
   3.9242828  37.7108803  11.5234070  80.7430954  13.8497620  63.3983765
  80.1785355  14.3809862  62.8368607  81.6324768  14.1106882  63.1593094
  85.1834869  19.0979195  52.4126053  84.4660110  18.5561543  52.0840454
  85.9723129  18.5877056  52.2291183  45.0904160  61.8685265  60.8920479
  45.0982323  60.9326363  61.0927391  45.9602814  62.1755562  61.1475945
  53.6398468  58.9551659   4.2190266  52.9623032  59.2191086   3.5965323
  53.1938972  58.9389877   5.0658450  46.6147232  43.3602066  32.1738930
  46.3255844  44.2681808  32.2645111  46.1197205  43.0246696  31.4264851
  69.8397446  57.8316078  53.2993164  69.1639709  57.2715988  53.6813393
  70.5237961  57.8714905  53.9676895  48.0727959   3.8030963  14.9663677
  48.0327225   4.1440682  15.8598795  47.5143166   4.3927197  14.4597321
  70.9679947  68.1810989  72.6717529  70.1442108  67.7524796  72.9039078
  71.0987701  68.8360367  73.3574524  29.0587349   7.8411236  69.5095520
  29.6556263   7.9146552  70.2542343  29.0960083   6.9169559  69.2630692
  65.0395432  49.2024117  27.8402290  64.4403000  49.4724998  28.5360661
  64.5026550  48.6666222  27.2563553  79.5626221  10.7116890  66.5536270
  79.9420090  10.0761127  65.9467163  80.0419998  11.5222664  66.3821793
  86.7231674  31.2761402  89.2327423  86.5167618  30.4738960  88.7531204
  86.0964737  31.9202156  88.9031219  56.3521843  15.2268095  68.8220520
  57.1228752  15.5269632  68.3402100  56.4331055  14.2731018  68.8331985
  15.0813322  49.7581825  16.2070923  15.6830873  50.4517746  16.4773769
  15.3779144  48.9839287  16.6854267  21.5909081  60.5023041  26.4435329
  20.7644043  60.3924446  25.9733715  22.2651615  60.3569183  25.7798481
  53.9609871  34.6461258  64.9299088  54.7046547  35.2135696  65.1328812
  54.1142311  34.3638153  64.0282135  82.1980667  46.0135689  75.5281830
  82.2682495  46.9496155  75.3407669  81.3241119  45.7726593  75.2209549
  68.0397720  26.2742710  80.7785492  67.3379288  26.0067310  81.3718948
  68.1233444  25.5462322  80.1627502  69.3404617  28.8749104  74.7004242
  68.6876373  29.3813267  75.1837311  69.5874023  28.1696301  75.2986145
  28.9870644  25.9780579   4.1855540  28.9796963  26.3012905   5.0864973
  29.6114025  26.5450115   3.7327867   0.6078945  59.8093033  19.0053215
   0.0116131  59.9970512  18.2804546   0.0391259  59.4946442  19.7079754
  10.5122185  57.9865150  36.2406197  11.1642981  57.3261337  36.4749680
  10.5942574  58.0778084  35.2913208  16.8955250  69.6225586  27.7212582
  17.2785778  69.3461609  28.5537891  16.9762421  70.5763474  27.7253990
  39.9802017  21.6126633   6.3462005  40.8323898  21.9806767   6.5797997
  40.1114998  20.6650658   6.3786244  39.4223862  46.9694939  87.4331818
  38.6649933  47.5382423  87.5714417  39.0794106  46.0827370  87.5439377
  80.2960358  63.1527863  84.3440170  80.2386627  62.3480110  84.8590698
  80.0818024  62.8816452  83.4513702  34.9163208  70.8812790  48.6161003
  34.0569839  71.0892563  48.2493401  35.4925232  70.8166809  47.8544922
  53.6196976  57.1396255  70.4551544  53.8089294  56.5695381  71.2004242
  54.4721870  57.4936943  70.2019196  68.2607498   7.2802582  20.4374733
  68.8315430   7.9612427  20.0815392  67.3744125   7.5846472  20.2425785
  63.8804436   4.0146065  55.1116791  64.4780350   4.3636465  54.4504013
  64.0481720   4.5456133  55.8902245  79.3779755  32.3440628  70.5086288
  79.9761047  32.6390572  69.8220062  79.0497971  33.1518173  70.9036789
  58.9488945  54.8074875  56.8177795  58.2332191  54.3640099  57.2731590
  59.6546478  54.8481941  57.4631386  31.1656971  32.3503723  83.6607666
  30.9462833  33.1812553  83.2391968  31.7321568  32.5952797  84.3924561
  47.7164917  24.3274574  68.0080261  48.0984917  24.2934246  67.1310120
  47.4944000  25.2495708  68.1369171  61.5657730  55.1993675  54.1506653
  60.9828491  54.6323929  53.6457253  62.2659874  55.4281616  53.5394478
  19.2652969  30.9233227  59.9884796  19.1714439  31.6848946  60.5606956
  18.9890079  31.2356167  59.1268730  76.7608185  30.0117588  88.7376480
  77.3143082  29.2314396  88.7062988  76.0359802  29.8152676  88.1441574
  46.7072906  66.4872437  43.7997208  47.5613632  66.1040344  43.9995842
  46.7479439  66.6885071  42.8647995  38.4066620  39.6298370  78.6664734
  38.6236267  39.1058311  77.8953857  37.4678116  39.4926529  78.7928467
  64.0034943   8.2757225  51.6495399  64.6336975   8.3511953  52.3660469
  63.1483116   8.3087578  52.0782661  64.9580307  51.6576996  40.6216965
  64.2881470  50.9809761  40.5240669  65.4616165  51.6152534  39.8087845
  81.6727219  48.3806229  38.9719543  82.0644455  47.8530159  38.2759552
  80.8409119  47.9468193  39.1620445  85.6532669  33.9441338  55.8457909
  85.7604523  34.8550034  55.5718193  84.9201126  33.9637146  56.4608765
  20.8804779  71.3285141  75.0409775  20.3555946  70.5685806  75.2924347
  20.4272823  72.0737152  75.4353485  39.0179367  52.9690857  60.2328262
  38.9714851  53.9225044  60.1616440  39.0154266  52.7988243  61.1747589
  39.9259644  35.5186844  60.2520981  39.8657532  36.4555779  60.0654678
  40.8206558  35.3945847  60.5688896  64.8521347  54.9468384  27.5744286
  64.5678864  54.0595207  27.3551178  65.7926254  54.9479446  27.3963318
  19.8500004  63.9100914  62.8543015  20.2302628  63.0887451  63.1657867
  19.1487770  63.6397514  62.2614822  27.8552933  42.4184647  69.4092484
  27.1860046  41.8087959  69.7200394  28.3285332  41.9311905  68.7348328
  68.3483429  30.5612144  76.4879761  68.0234375  31.3011589  75.9749985
  69.0971832  30.9136086  76.9689102  26.5750046  36.4283714  14.1050606
  26.7823257  35.7380295  13.4752369  26.7270927  36.0260010  14.9601631
  79.7596741  22.4517097  20.8477783  79.0493927  21.9091816  21.1904163
  79.9502411  22.0806828  19.9862366  59.6074791  47.1334496  76.9763260
  58.9563713  47.8350792  76.9740524  59.2084846  46.4381218  77.4993591
   9.2260904  50.4148941  72.3319931   9.0824680  50.6207466  73.2556915
   8.7271843  51.0801849  71.8579559  56.2520142   4.7173553  28.4114132
  55.9523010   4.1498265  29.1215649  56.1802635   5.6033988  28.7663937
  55.0050774  24.8867455  86.8044128  54.0511818  24.8615913  86.7290497
  55.1719208  24.8519344  87.7463150  75.0483932  15.4166317   6.1999516
  74.1579742  15.3842211   5.8501940  75.2097855  14.5314779   6.5265813
   0.1876281  50.2929802  85.7970123   1.1389906  50.2415085  85.7048569
   0.0080302  49.8991013  86.6507263  77.8612518  64.5031586  65.5332642
  78.8152313  64.4736176  65.6058884  77.6983414  64.8105316  64.6415100
   0.8050183  67.9090729  56.3688469   0.4096066  68.0172806  55.5038757
   0.4652778  68.6428986  56.8810081  62.1161804  62.9531593  32.9417953
  62.3252869  62.0231438  33.0288467  61.6399422  63.1676712  33.7439232
   8.9800358  50.6532860  18.5311985   8.0885344  50.9216309  18.3088284
   9.0155706  50.7083282  19.4861526  79.0296707  14.3607473  26.9125061
  78.6746521  15.2434444  26.8074169  79.9287949  14.4242926  26.5903854
  73.1662827  32.2552910  59.3879128  74.1220169  32.2161598  59.3523102
  72.8782654  31.7987404  58.5974464  71.2540741  32.9543114  55.8707542
  71.7365723  32.2413750  56.2892685  70.6603546  33.2731171  56.5505257
  69.4080353   0.3893909   6.1043501  69.5913010   0.8960270   5.3131700
  70.2715836   0.1505959   6.4412336  23.2827225   2.4801757   1.4047167
  22.7724972   2.4615948   0.5950526  22.6590099   2.2307861   2.0866401
  12.6206036  15.8290930  10.1639862  12.6924524  15.7599411   9.2119951
  13.3293600  16.4213314  10.4152794   8.9295120  14.4012547  70.3880386
   9.1450710  14.2783842  71.3125229   8.0646791  14.8114109  70.3962173
  50.0959740  68.4499512  22.5328522  50.8905716  68.7619705  22.9658508
  49.4967194  69.1956329  22.5657310   3.4247909  68.8899231  20.3263702
   3.5622566  67.9544525  20.4754829   3.6212256  69.2982635  21.1695194
  18.6709328  41.5402641  49.8977623  18.9353828  40.6711693  50.1993752
  17.9036331  41.3799324  49.3484154  67.4479599  50.6951561  66.4335480
  68.1988831  50.6232681  65.8443298  67.8329620  50.8737488  67.2915192
  71.0839157  69.5857697  28.1615810  71.9280396  69.1729507  27.9791889
  71.0322723  70.3107376  27.5386944  71.5708542  28.0742245  22.3356113
  71.5035019  28.8745346  22.8563786  70.6874924  27.7057610  22.3473797
   2.4231589  30.7152405  55.0429115   2.7901001  31.5979176  55.0925636
   2.7710083  30.3568344  54.2263451  47.8430061   4.1021962  71.2290726
  48.7287560   3.8452559  71.4853210  47.9636841   4.6107454  70.4271774
  14.7178402  23.2113781  31.2734852  14.8974838  23.3367596  32.2052803
  13.7682896  23.1005821  31.2254181  55.7312050  65.6066437  35.1928940
  56.2605820  66.4023438  35.1395226  56.2135048  64.9628448  34.6740990
   8.2390280  51.5343208  64.5372620   9.0402184  51.0625000  64.3098602
   8.3678484  51.8001595  65.4477386   4.7057099  30.0356445  50.4166374
   4.6524496  30.9843330  50.3009415   4.9467440  29.7021217  49.5524025
  42.0191002  51.5951920  39.1608925  42.7210770  51.7016754  38.5189247
  42.0235100  50.6606369  39.3678246  39.9747124  44.7815361  50.8247375
  39.0746727  44.6142120  51.1043053  39.9211807  45.5911522  50.3169060
  18.4883862  47.7303352  66.8296814  19.0207958  46.9358635  66.8695145
  18.9565372  48.3021317  66.2213135  69.4942169  65.1133957  63.4336205
  69.1628189  64.2614136  63.1498413  68.8126221  65.4547958  64.0125046
  49.8599243  56.7682533  58.7972183  50.4545364  57.3040085  58.2722054
  49.5524025  57.3570290  59.4864235  74.0644836  13.9736824  75.8887711
  74.0759048  14.9195385  76.0352554  74.7134857  13.8301306  75.1999893
  44.3575096  71.2021561   0.6720789  43.6841812  70.9914017   1.3189509
  44.3420601  72.1573944   0.6127968  55.8911285  62.4738579  53.0833244
  55.8009377  63.4110565  53.2558365  56.2810974  62.1196594  53.8825111
  66.5347214  30.8126144  65.8614044  66.7326889  31.6642227  65.4717865
  66.0335541  30.3520088  65.1884232  60.8534355  47.0714836  87.1518555
  60.3660736  46.9932709  87.9719696  61.6139641  46.5023842  87.2699890
  49.8744469   1.6315835  79.5920486  49.6031456   1.4421966  78.6938477
  49.8789253   2.5873394  79.6444168  56.8033371   8.3402128  21.0084171
  56.2713203   8.4636183  21.7945213  56.4409943   8.9590578  20.3744049
  34.4690056  58.3914070  63.3023415  35.2875214  58.7677383  62.9788589
  34.5345840  58.4584084  64.2549438  22.9337559  46.8403320   8.9548006
  22.9266090  47.1742401   9.8518438  23.8236046  47.0073509   8.6441469
  50.4458771  47.2123566  58.6246376  50.9086647  46.4272461  58.3319588
  50.1021729  47.6015396  57.8204956  37.1993561  60.5034943   9.7616816
  36.5174446  60.0714874   9.2472925  36.7240753  61.1162186  10.3228483
  75.7504196  38.3797798  84.9751740  75.0682755  38.3156052  84.3067474
  76.4805298  37.8714943  84.6218719  63.9651070  10.8551283  27.7483788
  64.3712769  10.3671541  27.0320377  64.1645050  10.3416967  28.5312328
   4.4752359   9.6399250  30.1559105   3.9696791   9.5715523  30.9658298
   4.6009102   8.7336111  29.8747807  57.5024147   6.4398456  17.8673592
  58.2014351   6.4401507  18.5212727  57.7372894   7.1460018  17.2653542
  60.3078423  51.6078949  33.9963989  60.3912354  52.4490509  33.5472527
  59.9331017  51.8279037  34.8492775  74.1962433  65.7569199  17.4187107
  73.6168365  65.9946136  16.6948166  73.8025589  66.1712189  18.1865616
  54.4952126  20.0735588  42.2019539  55.2556152  20.1746979  41.6294250
  54.8678436  19.9209080  43.0703278  60.7127151  16.0754223  44.5577393
  61.2391968  15.3131647  44.3168678  60.5082130  16.4984608  43.7238045
  78.0410538  57.9468613  55.6064682  78.2338486  58.0076942  54.6708603
  77.2628326  57.3916626  55.6550484  52.6973076  32.2478104   6.2010412
  52.8473663  31.4636192   5.6730638  51.9398727  32.0295982   6.7440934
  56.6106606  30.0129375  23.5323086  56.4620743  29.2532387  22.9692707
  55.8543396  30.5784435  23.3760529  36.8139458  28.6070576  83.7323151
  37.4156380  29.3091850  83.9797287  36.6337433  28.1462269  84.5516968
  74.1573486  59.4191551  20.1195431  74.2371140  59.1242142  21.0266685
  73.2252197  59.3315430  19.9202881  78.1705093  16.3540287   1.5382415
  78.3912888  16.9420738   2.2605228  77.7818298  16.9245358   0.8751580
  12.8317757  24.9629860  79.0257263  13.7419672  24.6671104  79.0102005
  12.8908062  25.9156742  79.0973816  36.8109894  66.5274124  72.5473404
  37.4420776  66.6590271  71.8397827  36.4622955  67.4013748  72.7229233
  29.7053242  50.0179977  63.6893883  29.5657616  49.7268066  62.7882996
  29.4084263  49.2838249  64.2270508  54.1265717   6.9389458  72.5118408
  53.4901047   6.2240448  72.5196915  53.6122742   7.7197571  72.7169342
  33.3109894  23.3974228  17.1764240  33.1426544  23.9514351  17.9386330
  32.9352608  23.8813019  16.4409504  28.2072182  32.0729523  65.8566971
  28.4493103  31.3630772  66.4514313  28.6811466  32.8355293  66.1885071
  86.1743774  64.2914886  16.2699108  86.1728821  65.2437744  16.3668098
  87.1000214  64.0599518  16.1937160  25.4260082  37.2652321  18.0548038
  26.2389774  37.3706741  18.5489655  25.6162415  37.6447983  17.1969147
  84.7896805  38.3283577  83.2305527  85.2948914  37.5178528  83.1667328
  84.2458649  38.3342667  82.4428558   0.8354065  55.1486130  48.1153069
   0.7078155  55.5536041  47.2574425  -0.0464438  55.0795174  48.4810905
  22.1385365  19.8389111  85.9350357  22.2805405  18.9883652  86.3505249
  23.0190678  20.1876888  85.7962875  53.6665764   0.2843896   7.0531425
  54.5865707   0.4401956   7.2666025  53.6253395   0.3622524   6.1000066
  18.1834927  54.6994247  61.3955498  18.1974735  54.1195984  60.6340752
  18.7603855  54.2748566  62.0305061  75.3538055   5.8319149  77.4322128
  74.4737549   5.5788975  77.1534271  75.6581802   5.0952945  77.9622955
  34.7532959  45.9049721  33.3105507  35.0340652  45.3036270  34.0003204
  33.8092079  45.9945526  33.4405632  20.9409180  32.2493172  18.4807205
  20.8793583  31.9330883  19.3820744  20.0958500  32.6673279  18.3153076
  39.2220993   8.0579834  75.6242828  38.9090462   8.0185776  76.5279922
  40.1571999   7.8630366  75.6860199  11.8809805  49.1809998  46.2030144
  12.0997915  49.8915443  45.6001205  10.9243488  49.1484451  46.1977196
  61.9152641  67.4178314   0.6604940  61.0551338  67.5583420   0.2646867
  62.5009041  67.9968033   0.1725907  80.0108719   1.3846151  37.8780060
  80.3529053   1.9194690  37.1616440  79.4035492   0.7776746  37.4549103
  22.4896374  19.7525787  72.9667664  22.8246098  18.8579102  72.9068298
  22.8780136  20.1004677  73.7694931  73.7613068  44.4506035   5.4156332
  72.8422546  44.2013779   5.5129209  73.7851181  44.9686127   4.6110644
  55.5660095  56.0378685  42.2405891  55.7905006  56.9654770  42.3138885
  54.6403847  56.0339966  41.9967918  18.3376789  34.1006927   9.0641499
  18.7011318  33.9819374   9.9416637  17.4274750  33.8146324   9.1411695
  18.4320068   2.0095022  72.3267136  17.9198170   2.1594639  71.5321045
  18.2762394   1.0899485  72.5420990  41.4718361  37.5911255  57.6952286
  41.2062187  38.2886047  58.2945671  42.4212646  37.6876984  57.6210899
  20.1189613   4.8746977  78.5392685  20.3058319   5.0869641  79.4537354
  20.7561359   4.1962280  78.3158417  14.0646420  62.2635269  56.1804504
  14.4587927  62.2891045  55.3085442  13.1436367  62.0572357  56.0209961
  66.9159851  24.2995510  36.8652496  67.6455841  23.6930084  36.7386589
  67.3206253  25.1669254  36.8524933  27.5826550  45.3591652  10.9039688
  27.3301010  45.5970001  11.7960911  28.4639740  45.7181358  10.8007793
   2.9027967  17.4385929  63.3832741   2.2184448  16.7773094  63.4862175
   3.6919072  16.9368286  63.1788979  35.8795166  21.3142147  20.4350300
  35.5132332  21.1035557  19.5761395  35.5674896  22.2005138  20.6176395
  32.0334167  28.7231731   6.9510875  31.8207550  28.7823982   7.8824830
  32.9530029  28.9835911   6.8983474  17.6139755   6.6098590  73.5350113
  17.3558636   5.7087483  73.7289429  18.5671577   6.6101055  73.6226196
  61.8722610  50.9392319   6.8631992  61.7272110  51.8289719   6.5413990
  61.6844444  50.9899139   7.8004231  84.9170380  41.3717766  16.9954739
  84.6754379  40.7127724  16.3446484  85.7462387  41.7292862  16.6779099
  57.3539925  66.8983078  51.3789558  57.3289108  65.9463882  51.2817650
  58.1365967  67.0648880  51.9043236   2.4004216  11.5055342   4.8307652
   2.5401649  11.3787155   5.7691789   2.2235577  12.4417982   4.7393246
  62.4565277  11.2200298  56.9855309  61.8281631  11.6453695  56.4020271
  62.5370064  10.3298836  56.6429024  11.9557838  62.6392899  86.4274139
  11.4744263  62.3020897  85.6718903  12.4786453  61.8964958  86.7292557
  12.3279886  49.0720482  26.7591324  12.3348455  49.9704285  27.0894337
  12.8860655  48.5886269  27.3683014  48.6247673  45.3338890  42.6106491
  49.3036842  44.9097633  43.1354599  49.0496292  46.1144104  42.2549629
  23.0787220  49.1915283  50.1600037  22.4096470  48.7219124  49.6619759
  22.7785130  49.1448097  51.0677071  17.7427769  20.7160301   3.6505861
  17.9513378  20.1832447   2.8832042  17.3096066  21.4912682   3.2933757
   6.0334306  55.3764153  27.6419067   6.8055997  55.3508110  28.2070007
   6.3875589  55.4491119  26.7556000  33.1478500  48.7443085  55.9418297
  32.9665527  49.2350006  56.7434425  33.0130997  47.8286057  56.1858864
  60.0702934  28.2710171  51.0205612  60.0633507  28.7760487  51.8336563
  60.3647728  28.8927097  50.3549690  25.8179607  10.3999901  76.6667938
  26.1831779  10.0664501  77.4863052  24.9828072   9.9418325  76.5727615
  70.8208542   8.7223921  10.3682699  69.8774490   8.7416115  10.2074747
  71.2110138   8.6545725   9.4968309  12.5357494   5.7192745  28.0137730
  12.0197029   6.5217729  27.9368000  12.7566366   5.4890728  27.1113052
  60.5651474  51.1477661   9.3261032  60.2778931  51.6342888  10.0987682
  60.9673920  50.3539925   9.6787453  42.3685493  40.1231728  46.1656647
  42.9432259  39.9345741  45.4237671  42.6706505  39.5353928  46.8581085
  15.0203419  46.9150620  76.6100235  14.4423771  46.8287163  77.3681335
  15.7721796  46.3601875  76.8175964  43.4776535  33.7877998  75.9105453
  42.5360222  33.6986580  75.7635193  43.7216682  32.9948006  76.3878708
   9.2062283  59.7727356  80.3524551  10.0275936  60.1062813  80.7134781
   9.1283913  58.8887367  80.7112274  38.4720726   8.1841831  70.8073578
  37.6847763   7.7742953  70.4490433  38.2105598   9.0868273  70.9892273
  13.9529457  55.4036179  27.6787186  13.3085804  55.5634575  28.3682652
  14.2189484  54.4929581  27.8059044  57.0272903  53.0318947  11.8118134
  56.9627037  52.4498291  12.5689554  56.8489265  53.9038429  12.1641254
  85.4372787  59.2247429  28.4813137  85.6503906  58.6669769  27.7331753
  86.1351624  59.8796501  28.4982948  43.5265160  12.0853558  72.3457565
  43.7808990  12.3637972  71.4659882  43.7262573  12.8380613  72.9023285
  64.7878113  61.4619942  11.2358551  65.5049896  61.0578232  10.7474537
  64.4998779  62.1876259  10.6819706  56.0960960   1.3467004  81.8808136
  55.9244957   1.5619292  82.7975769  55.3266602   1.6685832  81.4111404
  71.4630890   7.4143710  42.1248207  71.7957916   8.3015890  41.9892311
  71.3552170   7.3413439  43.0731163  50.0154457  67.1079636  38.5895805
  50.5487518  67.8448868  38.8875122  50.2944107  66.9603195  37.6859169
  32.1168900  57.5840454  20.9356270  31.5444679  56.9712296  20.4740810
  32.9608574  57.5046501  20.4910545  82.9098206  46.8676529  82.6118088
  83.8556519  46.9896584  82.5296555  82.6483765  46.4595108  81.7864075
   2.2916591  37.7165833   6.4569368   1.6798533  38.0034370   5.7789698
   3.0406971  37.3696518   5.9723635  51.2302742  49.1082687  40.4936523
  51.6899948  48.8763771  41.3005714  51.8825073  48.9881744  39.8034325
  61.9610329  71.0833817  76.5028534  61.2907944  71.3861923  75.8902283
  61.7936859  70.1455994  76.5966415  55.0477676  12.1597862  76.5786438
  55.5869141  11.5981131  76.0218048  54.9127769  12.9527645  76.0598068
   7.0418272  30.2107353  33.1807327   7.7639031  29.7424030  33.5996628
   7.4447651  31.0022392  32.8238106  33.9476089  55.6107941  30.5576477
  34.3430519  56.4591713  30.7579250  33.2130356  55.5390701  31.1671448
  17.1349144   7.7686419  79.5810013  16.9113026   7.8709106  80.5060806
  17.0617199   8.6512718  79.2179031  28.4693127  53.1195717   6.1817913
  27.9667759  53.5470505   6.8752961  27.8171310  52.8910713   5.5194650
   0.2977565  70.5603714   2.6228793   1.1937940  70.8670731   2.4840069
  -0.1220784  70.6521530   1.7675742  44.3837204  44.9277115  23.3209343
  45.2543259  44.5424156  23.4200420  43.7957153  44.3034782  23.7461605
   4.3209147  17.0380058  38.8538284   5.1063356  17.0516796  38.3068733
   4.6459694  17.1776314  39.7432518   8.3580675  24.3542271  60.4499397
   7.9805074  23.4883060  60.6044121   8.0753260  24.8762188  61.2008133
  12.0677176  42.7040787   2.1848087  11.2753239  42.3275833   2.5676830
  12.2251644  43.4992790   2.6938283  45.1051559   9.9890003   6.4072680
  45.5768433   9.1645126   6.2891126  44.9774666  10.0584307   7.3533688
  66.1606445  49.6748657  51.6850052  66.9179916  49.7748070  51.1082268
  66.5370026  49.5760422  52.5595436  77.6444702  46.8887253  53.5082932
  76.8359528  47.3890266  53.6189346  78.1499252  47.3890076  52.8676224
   6.6962409  22.4920082  61.7469673   6.7767596  21.6326447  62.1607780
   6.8649259  23.1149807  62.4538498  57.7467537  47.3292999  41.8487701
  58.1909065  47.8466339  41.1769600  58.4092789  47.1981926  42.5270805
  29.1355934  46.9691849  63.0499191  29.3582230  46.4989357  63.8533707
  29.8884659  46.8311234  62.4751549  24.9140034  65.1161499  60.4156189
  25.5599880  64.7212753  59.8299484  25.3448277  65.9016724  60.7526398
  68.6419144  68.1471558   0.3358397  67.9851761  67.5102921   0.6175086
  69.4599380  67.6509171   0.3072051  21.7872009  55.6512566  17.8804188
  21.1577415  54.9504051  18.0501766  21.9318104  55.6194344  16.9347401
  79.3126373   5.6740379  28.8536491  79.3217468   6.5643358  29.2051010
  80.2002640   5.5383377  28.5220776  17.9185238  42.4256363   0.6785821
  17.7309742  42.9182281   1.4775877  18.4896259  43.0017776   0.1705100
  22.3427925  38.5691223  73.9401474  22.3566360  37.6855431  73.5722733
  23.2073555  38.6771126  74.3365021  40.3496208  28.8423977  75.3233337
  41.0862350  28.2886467  75.0644989  39.6934013  28.2289600  75.6539383
  73.7418289  66.3566360  86.8051529  73.5574417  67.1523666  87.3041992
  74.3730698  66.6317749  86.1402740  63.3150444  44.0877190  49.0112419
  63.9611549  43.4762230  48.6579132  62.6087723  44.0896873  48.3651733
  65.7969055  40.2831192  34.7747307  65.9006042  39.8129387  33.9474411
  66.6718750  40.6178246  34.9713058   0.8279405  16.2609215   2.3776836
   0.2398477  17.0097008   2.2791526   1.5118126  16.5700378   2.9718194
   3.0951338  65.7112885  74.9583969   2.2157536  65.5528030  75.3016281
   3.6191986  64.9859543  75.2982330   7.6671596   8.5115709  78.6985779
   8.2350864   9.2534246  78.9067688   7.9243069   7.8310828  79.3207092
   5.5242901  29.1866722  48.0464745   5.8272576  29.7232208  47.3139725
   6.1451921  28.4591064  48.0833359   2.1774526  35.2702522  75.9588623
   1.6899173  36.0938873  75.9717484   1.5073612  34.5971107  75.8401718
  84.0837479   5.6331744   4.7871008  83.4535294   5.4873405   5.4926438
  83.7827530   6.4346290   4.3589592  31.7623100  66.3996811  66.9446640
  32.6325798  66.3460693  67.3396072  31.4647465  65.4911804  66.8965378
  48.4555626  30.6588535  77.6786346  49.2894135  30.6732483  78.1484451
  48.5840950  30.0148296  76.9822540  81.6654892  34.3175240  15.0590477
  81.4484940  34.9020119  15.7853537  80.8415298  33.8764763  14.8521605
  56.2997437  36.0435448  66.4348373  56.7597351  35.2706795  66.7624359
  56.8731117  36.3920822  65.7521973  43.1393738   4.4976091  53.8805122
  42.4871597   5.1889639  53.7670517  42.8190041   3.9856374  54.6231308
  32.8677254  51.4871292  61.3480606  32.7580566  52.1766243  60.6932297
  32.3297577  51.7709846  62.0871468  58.2378960  30.3158817  37.3614578
  58.3790092  30.8072090  38.1707268  58.5982475  29.4477558  37.5423889
   2.1284268  40.3460312  25.7701817   2.9578104  39.9682159  26.0627747
   1.5398203  39.5958595  25.6864243  33.0692291   9.0870180  84.7505264
  33.6805191   9.8224974  84.7908249  32.5816193   9.2250690  83.9384842
  40.2153511  64.3115616  32.0210533  40.4566650  63.7028732  32.7192612
  41.0238533  64.7856064  31.8265285  24.3347664  42.1525993  40.9421349
  24.7829666  42.9093056  40.5643234  24.8014297  41.3959923  40.5871658
  66.3546371  33.9193344  37.6610451  66.3705826  33.9788170  38.6162605
  65.5277481  33.4800797  37.4621964  81.8038635  19.3361416  49.4535561
  81.8959656  20.2793484  49.5881348  81.6704865  19.2406540  48.5105171
   0.2418602  40.2310944  10.4050932  -0.5584604  40.0393829   9.9162512
   0.8854322  40.4547005   9.7327490  49.1097031  26.3109417   4.7485185
  49.3697281  25.5579929   5.2792583  48.7892570  26.9520073   5.3830147
  62.6091766  23.2282906  41.2682190  61.7016220  23.1922626  40.9660988
  62.5419312  23.3035965  42.2200813  46.6207924  62.8852119  82.9598541
  47.4604836  62.4369507  82.8587875  46.1668587  62.7332230  82.1309509
  60.0069580  35.7424431  75.4494247  59.6315689  35.7972412  74.5706100
  59.6385155  36.4935570  75.9145203  78.7621384   2.2063739  40.2249451
  78.7876968   3.1465085  40.0468292  79.0134506   1.7986650  39.3961830
  47.7954559  14.2410011   6.6330256  46.9429283  14.6734228   6.5836039
  47.6071663  13.3193655   6.4559183  28.3301220  66.6629944  76.5044632
  29.0955143  66.4437408  75.9731140  28.4095211  67.6037827  76.6620941
  63.9883156  12.7709255  22.2831879  63.3318748  13.4452419  22.1082230
  63.8526840  12.5371580  23.2014408  47.6325684   6.0208068  60.0257912
  48.0682297   6.8507295  60.2198486  48.2986145   5.4998055  59.5772667
  16.0803185  55.0508804   7.5450621  16.6764107  54.5817528   8.1288643
  16.6171188  55.2760658   6.7852139  16.7945652  61.0016251  50.3030624
  17.7256832  60.7823372  50.3371849  16.6999893  61.7392845  50.9056816
  52.5683365  42.3202324  17.9262753  53.0489845  41.5702896  18.2766972
  51.9785347  41.9429436  17.2735748   7.9028211  47.9479523  73.0832748
   8.5429125  48.3830490  72.5200653   7.2561250  48.6259346  73.2791214
  76.6898727  28.7666550  23.6096764  76.4605331  28.3346596  22.7868671
  76.1727753  29.5721588  23.6095314  85.5849915  18.3398571  41.4745255
  85.6488419  19.1678371  40.9984970  86.2180328  17.7660446  41.0429878
   5.5954633  45.4077721  63.3090172   5.1523333  46.0191422  62.7207222
   4.9575357  44.7087708  63.4528160  13.0553532   4.0407958  75.7585220
  13.2088089   3.1243603  75.9883728  12.3233843   4.0138440  75.1423035
  71.3713531  34.8601913  47.1940422  70.7028122  35.3971596  47.6194229
  71.9667740  34.6138344  47.9018631  32.4333305  64.1566391  46.5645943
  31.5705051  63.7446632  46.6097145  32.6378326  64.3841629  47.4715919
   5.7990255  14.3466578  67.1068344   6.7472301  14.3083897  67.2320404
   5.4610062  14.6806831  67.9377365  11.9259892  12.4122791  29.6270905
  12.4689121  13.1644802  29.8630123  11.1028595  12.7963266  29.3250999
  67.1907425  66.5497131  29.8098774  67.9499512  66.8330002  29.3003864
  66.4519424  67.0151596  29.4177475  83.6486359  26.9931946  80.7179565
  82.8299637  26.8903275  81.2031708  84.2908707  27.2434750  81.3821335
  52.1808739  32.2220459  32.3893929  51.4993057  31.9962311  31.7563820
  52.5812378  33.0168610  32.0369606   1.6691587   4.0853801   0.9628350
   1.0307130   3.3937747   1.1369070   1.6317960   4.6463466   1.7375300
  57.5706100  41.3622856  27.9183197  57.3462486  42.2877884  28.0149651
  58.0465088  41.3165321  27.0890656  47.6973648  65.6779938  10.9484930
  47.5022888  66.2950516  10.2432165  47.9264145  64.8647156  10.4986563
   8.1677227  71.3203812  53.4217567   8.6696320  71.5093079  54.2146149
   8.2821722  70.3800583  53.2842140  75.5697021  39.7800560  49.0609283
  74.7621689  39.8158875  49.5736046  76.1963120  39.3354530  49.6318169
  34.0835037  10.3139715  77.6979599  33.1758423  10.2211428  77.9873810
  34.0313187  10.3140631  76.7421875  80.8727112   8.8593254  44.0201874
  81.5900650   9.2975035  44.4780464  80.8921432   9.2273817  43.1367912
  67.4414673  30.9151783  72.8808365  66.7596817  31.0824738  72.2301254
  68.2613831  30.9833984  72.3916321   4.1053944  24.0830879  50.8460884
   3.4738081  24.3429298  50.1754074   4.6653814  23.4399071  50.4113922
  65.2688751  45.7014618  16.4167061  64.8407135  45.8101845  15.5675364
  64.6027679  45.2940712  16.9703865  22.6566601  21.8419247  77.2319260
  22.1925163  22.6496010  77.0117874  22.6827698  21.8338566  78.1887360
  85.4719543   6.1755323  24.8974590  86.2767639   5.6678500  25.0012341
  85.6301041   6.7202225  24.1264000  12.4849863  59.2971039  11.5444794
  12.1602325  58.6090012  12.1252403  11.8301325  59.9924049  11.6073484
  46.9096184  32.6028709  25.8464851  47.3235550  33.4541740  25.9885120
  46.0807724  32.6572227  26.3221836  34.2472878  23.2502289  69.4675064
  34.2388992  24.1938534  69.3070831  35.0868187  22.9548321  69.1151428
  65.1653214  55.3430519  36.3336792  65.9396744  55.4689026  36.8821068
  65.5119019  55.0301018  35.4981079   3.6842020  12.5786743  18.0640717
   3.6636016  13.4643354  18.4265785   3.1877639  12.6422329  17.2481422
  31.9927998  35.5237007  18.6726055  32.0984001  34.5723610  18.6787853
  31.0533581  35.6596069  18.5492725  63.6753769  25.8629570  49.8055344
  64.2256088  25.1193466  50.0515404  64.2949371  26.5696468  49.6239777
  71.9564667  43.5634460  25.9564571  71.5922852  42.7506752  25.6057339
  72.8990479  43.4032745  26.0025711  68.7425003   4.9582262  46.8082886
  69.1675644   4.1669016  47.1389885  68.3975372   5.3893938  47.5901604
  20.5301991  35.2994118  83.0284424  19.7141590  35.3617554  83.5248489
  21.0443020  36.0535011  83.3170242  32.2111893  48.8434258  44.4798698
  32.4191132  49.3627167  43.7031212  31.9198647  49.4860764  45.1266823
   0.6364536  29.3921413  49.1943665   0.1578116  30.1173553  48.7928772
   1.2774905  29.1327057  48.5325546  52.2868347   2.3756430  82.4135437
  52.9567833   2.4060116  83.0965424  51.9082603   3.2547910  82.4101334
  38.8153992  31.5744705  75.9254837  39.2933693  30.7463589  75.8806305
  38.6153793  31.6855297  76.8549347  37.1870308   5.6145225  10.4979048
  36.5224953   6.0055137   9.9306746  38.0194817   5.9197259  10.1372013
  11.1848745  44.2102470  71.9718018  10.4975634  44.2914314  71.3105545
  11.1702690  45.0469894  72.4364243  32.3738251   6.5047917  13.1535187
  32.0958557   5.7738538  13.7055101  32.6056786   7.1974502  13.7721472
  37.5018921  56.3275490  12.7040367  37.7269592  57.2472572  12.8444300
  37.6042862  55.9218025  13.5649185  60.3143845  -0.2300112  13.1780577
  59.3955803  -0.1618447  13.4376421  60.6269913   0.6745909  13.1638098
  77.3146286  22.0879784  58.3277054  78.1402054  21.6497231  58.1213379
  76.8600769  21.4801807  58.9109726  74.2031937  28.1644535  87.6867981
  73.9599075  28.9717140  87.2336197  73.3763962  27.8218784  88.0263290
  27.2107754  58.7939453  86.6796341  26.8818760  57.8986015  86.5995178
  26.6840115  59.2989388  86.0601730  13.2651968  56.5071297  78.2489166
  13.1247702  57.4535217  78.2197266  14.0861454  56.3720970  77.7755814
  47.4331627  66.7305984  74.9635696  47.0562210  65.8967972  74.6826172
  48.1294136  66.9042511  74.3300781  31.6474285  64.0883026  49.7535477
  32.0957680  64.9179077  49.5892715  30.7289371  64.3313675  49.8698616
  50.4190445   3.4855289  70.4147415  50.1587868   2.5672007  70.3428268
  50.8327484   3.6837192  69.5746155  69.6018829  43.8979683  10.0958672
  69.3348541  43.8235970  11.0120516  70.1658020  44.6710739  10.0727510
  77.8933868  52.6589699  40.5851631  77.4668961  53.0159111  39.8061028
  78.4455948  51.9512367  40.2528801  84.2194214  36.7021255  37.9676094
  83.7893143  37.4745483  38.3344917  84.9473038  37.0540161  37.4551697
  42.5548592  24.8881664  20.3020573  43.3233910  25.4576073  20.2656651
  42.9143410  24.0011024  20.3131657  55.3207397  40.2636185  24.7278728
  55.5546112  39.5820808  24.0977573  56.1330948  40.4400215  25.2024193
  52.6754112  52.4452171  85.5630264  51.7738419  52.4489822  85.8845673
  53.0358162  51.6133995  85.8703003  61.7314110  14.2276669  21.6638107
  61.2667198  15.0473795  21.8322296  62.0678596  14.3218136  20.7726498
  25.1452751   1.6130832  59.7246017  24.2487679   1.2963324  59.6142616
  25.0848179   2.2646310  60.4232140  68.2097397  63.1592827  17.7416840
  68.8071976  62.5374069  17.3262978  68.6899185  63.9873238  17.7445831
  59.7917557  58.3076096  50.8825264  59.9508820  58.1803131  51.8177834
  60.2389717  57.5735283  50.4613876  78.6170883  23.9460335   5.3452334
  78.9378586  23.5794029   6.1692014  78.9090729  23.3256817   4.6772957
  16.2215538  56.9148674  26.6906319  17.0540543  56.6443748  27.0779438
  15.5639782  56.3867073  27.1432590  73.2314987  48.6787338  88.1648636
  73.2794800  47.7429657  87.9692535  73.7907181  48.7917442  88.9334488
  42.0058861  57.4534836  76.5151138  42.0935516  57.1326332  75.6175613
  42.1492538  56.6803284  77.0609283  28.6808949  48.1740303  27.5778446
  27.8926353  48.4486961  27.1094017  28.5657864  47.2328873  27.7091217
  85.0317383  26.5930138  46.4355736  85.6450882  26.3306007  47.1219940
  84.9034119  25.8010578  45.9134941  79.4424438  18.6465759  44.8355484
  80.1251984  18.6941147  45.5047417  79.4408188  17.7299805  44.5597229
  55.6569519   8.9041348  23.4167576  55.6094780   9.8539543  23.3080330
  55.2118454   8.7355785  24.2472401  77.6005478  45.3080635   5.1828995
  78.2322159  44.7088051   4.7852578  77.0662231  45.6137924   4.4499192
  61.4157715  43.1772423  59.9192619  61.1181412  42.4250832  60.4310265
  61.8090057  43.7652245  60.5641479  47.7823601  21.7139282  13.7476959
  46.9169312  22.0722256  13.5504847  48.3871536  22.4318562  13.5605173
  73.2993240   5.5177007   5.7816777  73.8841400   5.1898184   5.0985126
  73.8016968   6.2066441   6.2166605   0.7878108  31.8480225  36.6870956
   1.5747215  31.3216496  36.5459061   0.1592880  31.2396812  37.0758286
  85.1095734  45.0804977  78.7704391  84.9659576  46.0169678  78.9069290
  84.3632278  44.7982941  78.2416992   3.1400812  16.2502518  66.4145737
   3.7560127  16.3003178  67.1455688   3.1835349  17.1143780  66.0051422
  26.0768471  15.5187292  38.5313454  26.4054852  15.4777660  37.6332626
  26.2710743  16.4114342  38.8169823   1.8018763  16.8833103   6.4815025
   1.0948189  16.2446270   6.5730786   2.5159762  16.5275555   7.0103989
  11.9715633  44.7617531  75.2920227  12.4003019  45.4305153  74.7580032
  12.0249128  45.0988388  76.1863098  79.8253098  28.1803360  80.4818802
  80.0744247  27.6548138  79.7216110  78.8965530  28.3695488  80.3483124
  52.9343491  24.8000984  61.3274384  52.6465378  24.5755291  60.4425888
  52.1551132  24.6805649  61.8703308  49.3444672  30.3549156  22.0040054
  49.4769783  30.6614532  22.9010601  48.6286049  29.7229385  22.0701351
  70.9586182  52.2798042  76.6903839  70.2486725  52.1820717  76.0558319
  70.7615967  53.0982018  77.1460571  27.2019997  20.7433701  73.8881531
  26.8547535  19.8839474  74.1269989  27.8413448  20.9419365  74.5722885
  84.0107269  52.4121704  41.6160126  83.6363754  53.0050735  42.2675896
  83.3052139  51.7957802  41.4196930   8.9957409  67.9800110  33.3387146
   8.0806465  68.2546387  33.3971481   9.3641748  68.5214157  32.6405983
  16.6005936  41.9197311  83.1715775  16.1846085  42.6097755  83.6883240
  16.3662395  42.1241417  82.2663040  56.3108673  36.8762207  15.5278139
  56.3472672  36.2944336  16.2870445  57.2057953  37.2022743  15.4327965
  58.4112854  43.8132172  13.4294157  58.3720932  44.3376350  12.6296167
  58.6350021  42.9327583  13.1277943   2.5925839  38.9383202  62.3566513
   2.9629774  38.5787849  61.5505676   3.2753294  39.5165367  62.6968842
   8.2678776   1.5024978  36.7443886   7.6530824   1.0948716  37.3543892
   8.2582350   2.4304662  36.9789391  58.4834213  28.9103336  31.5374813
  58.3388557  29.8519955  31.4447136  58.4743919  28.7585869  32.4825325
  58.0270615  33.1875305  82.3979187  58.2424355  33.9589233  82.9221344
  57.3024864  32.7738304  82.8670425  43.7480469  45.3837204  60.4835739
  43.6265907  44.7100983  59.8144608  42.9019966  45.4348145  60.9283409
  43.8046570  65.1207657  66.0847473  42.8697510  65.0186157  65.9065704
  44.2320480  64.5224991  65.4718475   4.4204612  26.9612484  51.3387375
   3.5154679  27.2105865  51.1515236   4.5273957  26.1104774  50.9133148
  68.7933197  27.4931068  22.9764462  67.8790359  27.6042080  22.7157249
  68.7742691  26.7858906  23.6212044  14.0277109  18.9984913  87.8673859
  13.5333433  18.8764019  87.0568771  13.4944105  19.6020641  88.3846130
  66.0739975  51.3300056  47.4256172  65.8338470  50.8341255  48.2083435
  66.7009964  51.9821968  47.7382736   7.4911957  16.3552055  85.6581573
   7.0983534  17.1530552  85.3041229   8.1486673  16.1037521  85.0095215
  70.1036072  18.0942574  49.4147339  69.2690353  18.1440086  48.9486389
  69.8586121  18.0028496  50.3355255  28.1455975   0.1778485  68.5354385
  28.7929802   0.5825905  67.9581070  28.0683155   0.7849073  69.2714691
  21.5771332  43.2952499  40.2859955  21.0697556  43.0900574  39.5006943
  22.3622856  42.7527084  40.2124138  85.6204224  31.0742455  73.8861160
  86.2611923  30.6068535  73.3502197  85.5490799  31.9364777  73.4766083
  86.0123978  28.7076931  34.6138039  86.4998550  27.9096851  34.4093475
  85.2471619  28.4026604  35.1012459  15.0663109  70.3775711  44.7644386
  14.8906221  69.6425476  44.1769791  14.5472727  70.1887131  45.5462112
  27.7215614   5.1664329   7.5289817  28.0729465   5.9439244   7.9628787
  27.0248070   5.5014305   6.9645872  54.4712410  58.5040169  58.7248001
  54.8161316  59.0444756  59.4355659  53.8052559  59.0515900  58.3090401
  39.8103065  35.2312431  13.7684469  39.4063301  34.6801071  14.4387331
  40.4733925  34.6708717  13.3652935   2.0082681  63.4564209  44.1164474
   2.4225187  63.5201759  43.2558861   1.8781637  62.5176506  44.2506752
  17.6769428   6.8028598  10.6892080  17.3989487   5.9005184  10.8464680
  16.8815823   7.2521253  10.4032116   3.2098501  51.5902634  62.7855453
   3.3337622  52.1477737  62.0173912   4.0960631  51.4264793  63.1080856
  54.9999084  70.2153854  18.8305359  55.8240509  70.7016220  18.8548965
  54.8821068  69.9897842  17.9077911  72.8888092  21.6679058  78.3892059
  73.0505066  21.4082508  79.2962189  72.5655365  20.8723526  77.9663315
  77.2131424  29.6121426  41.8285751  77.8553772  29.7076740  42.5318794
  76.3653717  29.6884995  42.2663841  23.9532490   8.7871132  19.6418362
  23.5763035   8.6756105  18.7690735  23.2088356   9.0213461  20.1961060
  26.7433853  62.9881516  83.3621674  27.1719189  62.6888580  82.5602875
  26.2312260  63.7496796  83.0901337  62.2004395  52.2610703  73.3432465
  62.0562172  52.3910789  74.2805405  62.4474411  51.3396492  73.2644577
  10.9224701  45.0890388  86.1052094  11.4011745  44.4358215  86.6154861
  11.4657803  45.2328987  85.3303909  81.6586838  57.1019669  48.2386627
  81.6815720  56.2133064  47.8837051  80.7570648  57.3920403  48.1001854
  56.1250496  48.9103889  82.3486786  55.3312111  49.4175529  82.1788635
  55.8059273  48.0595894  82.6495743  78.3046341  68.0576019  36.1458626
  77.4782486  67.6974411  36.4677429  78.9445953  67.3623962  36.2987328
  62.9862137  13.4822884  86.6310883  63.5953903  12.7734213  86.4245834
  63.5485992  14.2234383  86.8561554  53.4266930  13.1735973  20.7729549
  54.1858521  13.7014399  20.5253868  53.1435776  13.5394745  21.6109352
  16.1524467   6.1579928  68.4711075  16.3992233   6.5126100  69.3252640
  15.2093763   6.0081329  68.5373840  18.1576481   1.0651146  52.3328590
  18.4230690   1.5982332  53.0822372  18.9304085   0.5388616  52.1276054
  51.9094849  63.8078575  56.8432999  52.7469406  64.0361633  57.2467537
  52.1484413  63.3821182  56.0199661  84.3090515  51.0066338  47.3827019
  84.6850433  51.4616966  48.1362114  84.4041061  50.0774803  47.5921555
  77.8434448  63.4234581   9.3701677  78.5025482  63.0435486   9.9510984
  77.6761932  64.2929230   9.7338772  34.5301399  39.8623734  76.9776382
  34.9640808  39.0098228  77.0105667  34.5966759  40.1996613  77.8709717
  68.8975677  50.0938797  36.5624886  69.2107620  50.0925293  37.4669991
  69.5622482  50.5850563  36.0796089  83.0826111  45.7779312  41.8025322
  83.8844452  46.2814445  41.9431229  83.2861862  45.2047844  41.0634232
  37.6375237   6.1287031  44.5312614  36.9194870   5.6009364  44.1818047
  38.0205154   5.5857854  45.2203102  45.1028214  34.1867371  21.6207237
  45.9095993  34.4424591  21.1735668  44.9034538  34.9252815  22.1960812
  74.9675140   3.6490109  35.1226158  74.3645172   3.6246262  35.8656044
  75.3528595   2.7731469  35.0980453  67.1209793  68.5519028  86.5496445
  67.6327744  68.2253418  87.2896805  67.3185577  67.9456940  85.8357010
  52.8765106  44.0997772   0.5142031  53.1226883  43.4085159   1.1288474
  53.0489044  43.7248650  -0.3494838  80.8202744  15.1829929  13.7615385
  80.1682205  14.9096565  13.1162920  81.0958481  16.0521317  13.4701834
  72.4514084  60.6302795  67.7169189  73.0003815  60.5449638  68.4963989
  72.4973526  59.7715950  67.2964630  74.5384521  21.3951340  21.6248016
  74.2608871  21.2492981  20.7204113  75.4197769  21.0240936  21.6676464
  13.9141884   5.4899106  60.8302765  13.6618519   6.1632490  60.1984749
  14.7184401   5.8237500  61.2277184  10.1729650  34.7841530  83.4608459
  11.1160908  34.7605057  83.6226654   9.8581791  35.5197754  83.9861984
   4.5133691   5.0661979  57.9906960   4.4734087   5.9065223  57.5340881
   3.7546608   4.5810413  57.6663246  73.1277313  18.9315510  28.9876518
  73.2015228  18.3796959  29.7662697  73.3499985  18.3504124  28.2602539
  37.4861145   2.4204047  76.8525848  38.2881737   2.7542832  76.4507675
  36.8471680   2.4109614  76.1399231  22.3873539  60.0786057  62.4784279
  23.2769833  59.7522087  62.6135368  22.4615555  60.6747780  61.7332382
  76.4320831   6.6096354  74.8441620  76.2547073   6.1488853  75.6642075
  77.3829727   6.5637026  74.7444611  17.1242294   8.2964134  65.7327499
  17.7532463   7.5764208  65.7794418  16.4105968   7.9563689  65.1930008
  24.0646782  34.9998207  17.9334164  24.5959969  35.7924309  18.0089264
  24.6522179  34.2916107  18.1969776  32.2404938  61.6611137  48.8936882
  31.9927139  61.1822586  49.6845970  31.9130802  62.5488091  49.0387001
  52.8355217  41.2934113  88.6407547  52.3009529  41.2631226  89.4341965
  53.5581169  40.6904984  88.8156281  22.4470654  23.0725727  85.0442963
  23.0796833  22.3608990  85.1420135  22.9220371  23.8552742  85.3236008
  25.2529373  49.8350792   6.9994001  25.1265945  49.2327614   7.7325320
  24.3950958  50.2400436   6.8715549   0.1329912  23.4335480   1.1116321
  -0.0480927  24.1518269   0.5054007   0.6251100  23.8403339   1.8247776
  53.8704529  63.1069107  23.2874680  53.0170059  63.3174973  22.9086361
  54.1540184  62.3225403  22.8178024  83.0548096  62.2323799  83.3853455
  82.1613846  61.9521255  83.1866608  83.3809357  61.5750313  83.9999695
  36.7871094  38.7860718  74.5902939  36.9872055  39.6575050  74.9320526
  36.0233421  38.5015182  75.0922089  10.8422718   0.4751390   7.6838851
  10.9604025   0.7137770   8.6033030  10.9669189  -0.4737185   7.6647949
  61.1121254  38.2107697  27.1484299  61.2210083  38.0018082  26.2206841
  61.3000832  39.1475296  27.2066135  41.6308823   0.6775996   5.5230241
  42.2324600   0.1307928   6.0283346  41.5253410   1.4688687   6.0512156
   5.0471182  12.6829081  54.2625351   4.6151581  12.5337982  53.4214592
   4.9539995  13.6230831  54.4162636   6.5463161  45.7822571  31.3719406
   7.2482495  45.6198883  32.0021477   6.9968224  45.8912048  30.5344410
  60.8408012  51.4013062  17.6356125  60.9614449  52.3060112  17.9240303
  61.4859009  50.9021721  18.1365585  10.8675909   9.0975008  14.3511181
  11.0874815   9.5653353  15.1567307   9.9140491   9.0169659  14.3735752
  80.8053665  39.2839355  55.7955627  79.9743347  39.6689034  56.0737915
  80.6526566  39.0130081  54.8902969  53.5621414  23.1719780  79.1025848
  52.9721527  23.3302402  78.3656311  52.9835091  22.9241562  79.8237000
  61.6321793  52.2263985  76.0593033  60.8477554  52.7255287  76.2868500
  61.4511147  51.3399963  76.3719330  19.6353283  66.0112305   6.9416676
  20.5464249  65.8283997   7.1712523  19.1601734  65.2213745   7.1997128
  54.9091568  20.9551620  72.4485321  54.6685333  21.4674911  73.2204514
  54.0908241  20.5449867  72.1686783  78.5028763  62.7526283  62.0384521
  78.9002151  62.3007278  61.2940445  78.3252563  62.0583992  62.6730614
  85.9851913  41.4818344  31.7494431  86.5773468  40.7313805  31.7004414
  86.5639877  42.2442131  31.7467575  45.8208199  69.0260468  34.5203094
  46.4616203  68.9321060  35.2251396  44.9795837  68.8328400  34.9341049
  23.7621727  31.1437531  69.7260284  24.3035374  30.5788288  70.2774048
  24.3114967  31.3337021  68.9654999  20.9589005  47.7292366  14.6771708
  21.2905407  46.9945526  14.1609488  20.8776722  47.3808022  15.5649920
  77.3842087  45.8615189  24.6868687  76.6021423  45.9782715  25.2262821
  77.8526154  45.1351318  25.0981922  32.2816086   4.2794871   2.6429946
  31.9139996   3.4083805   2.4937642  32.8359718   4.1762242   3.4164603
   7.2961011  60.6413307  52.4311752   7.6574278  59.9643326  53.0033188
   6.5417233  60.9830093  52.9111748  17.8914661  58.3234367  29.6262760
  17.4667835  57.4851990  29.8085747  18.8192959  58.1646271  29.7998905
  10.6712198   3.1238720  52.7435226  11.2415667   2.6676126  53.3622017
   9.8407698   2.6500499  52.7891006  75.0452118  18.6301212  81.2096329
  74.3210678  18.2977467  80.6791763  75.0542145  18.0660858  81.9829483
  75.8463669  41.0476227  42.3285866  76.0861816  41.5263100  41.5351257
  75.7367783  40.1421585  42.0381432  66.8969116  50.3499336   0.2721323
  67.5032959  50.7549400   0.8922150  67.4434509  49.7594795  -0.2464098
  84.8386383  21.2085171  79.0156555  84.4588165  21.8838615  79.5776825
  84.1387787  20.9864998  78.4015503  68.7033920  61.1428223  66.5819473
  69.2244720  61.4708977  67.3148041  68.1937866  60.4228973  66.9537506
   4.2677474   4.5357976  40.4925499   4.8710623   4.8581066  39.8229523
   4.6416783   4.8414507  41.3189774  64.3144379  45.5704536  88.6266174
  63.4311981  45.2726440  88.8443832  64.6943207  45.8278694  89.4666519
   0.9736153  69.6863632  52.0897789   1.6466966  69.4407349  51.4550629
   0.5302755  68.8642273  52.2989960  61.2345581  11.4518309  28.5265656
  62.0663795  11.0526543  28.2716961  60.6475487  11.2717867  27.7922382
  50.2305336  52.7582016  61.8271217  49.9376183  53.6069717  61.4954300
  49.7662163  52.6523399  62.6574440  19.4685211  50.7690887  47.0516663
  19.4667091  51.6298485  46.6329460  19.7409744  50.1666298  46.3595352
  19.5518589  44.9907761  46.1848907  19.5641270  45.9432678  46.0908356
  20.3048801  44.7954521  46.7425957  63.6942253  34.3722343   4.5365872
  63.5270767  34.6758156   5.4288483  64.2120056  33.5749016   4.6479259
  76.5806885  60.9267387  59.6572838  77.2643356  61.5332375  59.3726387
  75.8145676  61.4813728  59.8044624  50.4846725   0.6462286  16.2143574
  50.8459854   0.6802059  17.1000957  49.5405235   0.7452503  16.3368645
  34.6104660  68.3423691  28.2841492  34.9604340  68.2337875  29.1684380
  33.7102013  68.0223389  28.3418846   2.0329647  56.0678787  38.8879776
   2.3069007  55.2519798  38.4690552   1.4447186  55.7907143  39.5903893
  68.2237854  57.8187485  13.1564827  67.7652130  57.2153740  13.7411890
  67.7366943  58.6395187  13.2293482   0.8294889  19.6828976   1.7349069
   0.6562900  20.4455318   1.1829797  -0.0249371  19.2644501   1.8402191
  13.0469990  68.4356155  67.3558731  13.6363564  69.1896896  67.3721695
  12.4164104  68.6093292  68.0547409  62.7138214  49.3729362  73.7132492
  63.3362122  49.1903076  73.0093307  62.7277679  48.5844879  74.2558289
  59.5969238   7.4287286  80.6436996  59.6871681   7.4597301  81.5961304
  60.3899345   6.9854393  80.3422775   0.6425030  10.5703735  35.2542152
   1.5412680  10.6215296  34.9288902   0.2117060   9.9458647  34.6705742
  58.9697456   6.3699098  20.6940212  59.4312325   6.9884496  20.1277447
  58.1659508   6.8264318  20.9424763   5.6156802  52.7339363  34.5940857
   5.1650319  52.3905907  35.3656158   6.4916768  52.9578896  34.9082642
  19.3032436  28.7100677  73.3194046  18.9488049  27.8433819  73.5180511
  18.8562450  28.9729996  72.5148621  16.6789665  11.1671038  66.2028122
  17.3176460  10.6822538  66.7255402  16.6049595  10.6665001  65.3903198
  23.2234669  61.4328880  65.1972046  22.7917671  60.6371765  64.8862305
  23.1151676  62.0594063  64.4816818   4.7427287  10.7312813  20.0362930
   4.7620878  11.3470297  19.3036880   4.5180545   9.8908796  19.6369457
  12.7564039  25.8743019  57.5187645  12.3424158  26.3102760  56.7739334
  12.0547390  25.3565311  57.9134941  83.1095657  15.3445749  22.9182949
  82.3498154  15.8850136  23.1349411  83.4418488  15.0478659  23.7655163
  22.4230824  33.1142235  81.2350464  22.4796295  33.1908035  82.1875000
  22.0739861  32.2355499  81.0857162  16.7536697   9.8747206   8.4758739
  17.6212807   9.8666773   8.0716219  16.9119911  10.1553907   9.3772020
  58.7315102  48.5763435  39.7374001  58.4795876  49.4988441  39.7793274
  59.5510445  48.5741081  39.2428360  84.9778442  38.3294334  60.5788116
  85.5557327  38.8324203  61.1526489  84.2140732  38.8928566  60.4545937
  48.0452576  54.1377945  17.8848057  47.4199066  54.7434540  18.2827244
  48.0429726  53.3760681  18.4644623  78.3529892   6.0163445  34.5242729
  79.1683655   5.6319480  34.8461914  78.5093460   6.1632028  33.5914192
  21.0837402  58.7256203  68.0431290  22.0071087  58.8159866  67.8076324
  21.0248756  59.0907974  68.9259720  41.5060005  70.1400681  18.7553787
  41.9486847  70.0821609  17.9086723  41.5136337  69.2438354  19.0914364
  50.9292564  67.4677734  56.6784706  51.4184570  66.8894653  57.2636871
  50.1896935  67.7713242  57.2049103  69.3219376  47.9527740   9.7371597
  69.6356659  47.0578880   9.8674717  68.7964325  47.9084053   8.9383421
  23.1800423  25.7158222  12.1121597  23.7486115  25.4719410  12.8425589
  22.8282223  24.8842392  11.7944775  20.9089718  58.8501511  58.6768532
  20.4823360  59.4900970  58.1070404  21.1215572  59.3406296  59.4708748
  16.7750282  38.5111961  33.4211044  17.1610680  38.8271065  32.6041527
  17.2150745  39.0161438  34.1049309  38.5816689  31.7210789  18.6659870
  39.2196312  31.2196503  18.1582432  38.1211472  31.0639496  19.1878433
  81.1060791  49.2693176  35.7312889  81.7299957  48.6535950  36.1157875
  81.2604141  50.0901031  36.1989708  25.3067474   0.7010020  51.7180786
  26.0476780   0.4884768  51.1505547  24.5848217   0.1728594  51.3773155
  25.9657669  19.3230476  14.5329208  26.1444836  19.3666496  13.5935640
  25.5537453  20.1624489  14.7375555  79.0069885  13.9830675   9.9110174
  79.1499405  13.4325762  10.6809244  79.2031860  14.8705053  10.2113390
  79.6274414  28.0605736  76.2617874  80.0284729  28.8365250  76.6533356
  79.8151016  28.1400585  75.3265381  30.3510551  70.7396240  25.7433891
  30.6299000  71.2929993  26.4729481  30.1954823  71.3518600  25.0242233
   3.8543136  61.2276001  39.9461517   3.3112657  61.7850227  40.5034790
   3.4230235  60.3733749  39.9689255  72.0677032  62.8503380  66.1245880
  71.3878403  62.5288200  65.5324326  72.4721069  62.0578842  66.4777222
  18.2245293  66.9555664  46.7266884  17.2721672  67.0516968  46.7265167
  18.4311829  66.6195679  47.5988312  10.4204807   4.8342495  82.5254898
  10.4202824   5.7890201  82.4573364  11.0399694   4.6445556  83.2301025
  19.3623676  68.6503067  86.0266571  19.4310703  69.0912781  85.1798706
  20.2527866  68.3540268  86.2153549  66.3664703  66.1303635  40.4409027
  66.0121307  66.9275665  40.0470161  67.3119431  66.1969681  40.3072052
  57.2888527  46.5656281  65.9291611  57.7655334  46.7328682  65.1161118
  57.4490776  45.6403656  66.1147537  83.0147781   9.6921196  29.7558479
  82.9023590   8.9788752  30.3842411  82.9973221   9.2627430  28.9005337
  43.0169640  27.6018810  76.5225067  43.9467773  27.4268169  76.3774872
  42.6886597  26.8119602  76.9520111  82.3997726  22.2838593  49.6251945
  83.1086121  22.2351322  50.2665977  82.4573364  23.1714783  49.2715683
   1.4896365  46.3742371  65.2115402   2.1796222  46.7317390  64.6526642
   1.4339468  46.9868736  65.9448929  15.4102392  65.7328339   8.2160225
  14.7066107  66.3375015   8.4516525  14.9738302  65.0378571   7.7232957
  79.9102631  37.8978462  23.3677254  80.4453049  37.9518623  24.1595860
  79.6994705  38.8078194  23.1585636  61.7374458  22.9006977  46.9785156
  61.3145409  22.0636921  47.1703529  62.6679459  22.7405090  47.1358147
  18.3851776  53.3712273  13.3758707  17.9770546  54.1324310  12.9632750
  18.9735622  53.7420044  14.0335665   5.3424249  68.7116699  61.6492081
   4.7954507  69.4962540  61.6107140   5.4947681  68.5715179  62.5837555
  66.8711166   8.9613504  84.5792694  66.2082977   9.0785866  83.8987122
  67.6250916   9.4622793  84.2681122   4.6151958   8.6791363  64.4720383
   3.7064700   8.4245062  64.3119965   4.9305391   8.0477057  65.1186371
  56.4489822  50.1419945  10.3981123  56.2404671  50.9027977   9.8559589
  55.6644096  50.0037575  10.9287415  38.3438225  18.6838646  15.9606714
  38.5855713  19.5973396  15.8078489  38.3786430  18.5828094  16.9118843
  83.3345108  63.9718781  17.7300205  83.0832443  63.1118126  18.0667591
  84.0993042  63.7999306  17.1806946  86.3235779  10.0241938  74.5167465
  86.0763626  10.1266527  75.4357758  86.6525345  10.8855715  74.2597427
  54.9471436  37.4031334  69.0102997  54.8309898  38.3417740  68.8630142
  55.5939865  37.1364326  68.3570862  25.4038410  56.3760796  70.7898636
  24.6854992  56.9943237  70.6557388  25.9790478  56.8102608  71.4198303
  82.0782166  40.2192917  85.0010834  82.0890274  40.3334084  85.9513931
  81.6818848  41.0242691  84.6676788  49.6306267  50.9341965  79.8753052
  49.6717758  51.0077820  78.9218292  50.2368546  51.6031113  80.1935425
  58.5735703  48.7295189  70.5190811  59.2733231  48.9984932  71.1142502
  58.2559128  49.5478897  70.1375122  66.8810043  44.6375237  48.4079857
  67.0747452  45.2066307  49.1528397  66.4816055  43.8600235  48.7981262
   6.2154188  48.7705650  47.4129486   6.4361758  48.1090012  46.7573318
   5.8956618  48.2679176  48.1621704  79.6997070  63.5747948  74.3649368
  80.2518845  62.8288536  74.1306152  78.8126755  63.2974892  74.1358032
  48.8971977  43.5357933  73.5620499  49.2031174  44.1075096  74.2661743
  49.4182472  43.7928429  72.8013535  73.0960693  67.4982071  71.1272964
  72.2465134  67.7219772  71.5073090  73.4860840  66.8892975  71.7544708
  66.1754684  63.7092056  87.3940582  66.4194260  62.7861252  87.3259811
  65.3347015  63.7688255  86.9404221  40.7736359  43.2311249  57.1103401
  40.1574326  42.7978287  57.7009163  40.2976265  43.9958420  56.7865334
   2.7924702   4.5868959   6.1050506   3.5308578   4.7445879   5.5167065
   2.0271928   4.5719824   5.5302811  28.3169727  58.2279320  75.3352051
  27.4602852  58.5100212  75.6557465  28.7555332  57.8700104  76.1070786
  62.1116676  14.3586912  34.7970123  62.3970985  14.1881552  33.8994179
  62.2352867  15.3007927  34.9127464  52.7727966  61.4426155  35.3219299
  51.9677353  61.9410095  35.1815376  53.4341202  61.9061089  34.8080673
  11.6464491   5.1461329  23.1858063  11.2402630   5.9315414  22.8192310
  12.0440512   4.7085233  22.4330502  61.0725555  65.8115692  12.9914579
  60.8187981  66.2709808  12.1909704  61.5060654  65.0156174  12.6836271
  71.1106339  27.7648220  88.6794128  70.4559631  28.4614315  88.7280960
  70.9983063  27.3912334  87.8053131  81.6715622  18.2816734  82.1791611
  81.9521332  17.3926506  82.3963013  80.7391281  18.1966915  81.9802094
  22.5006828  19.0131454  16.3802261  22.9801331  19.7697620  16.7177010
  23.1763840  18.4510384  16.0011559  61.8083916  31.4370880  10.9018641
  61.0302467  31.0997410  10.4581051  62.0668411  30.7350407  11.4989948
  42.4206924  47.8400040  13.5526810  42.2181015  47.2114525  12.8597813
  43.1291351  47.4296761  14.0486383  47.4530716  65.1975861  81.9459229
  47.6710052  64.9266510  81.0541153  47.1939240  64.3878326  82.3856735
  84.3079071  55.4284401  69.8233566  84.7087631  54.9529686  69.0957108
  83.5569763  54.8912125  70.0757828  37.6860542  23.0237846  77.6751022
  37.9848061  23.1295853  78.5783081  37.0392761  23.7189045  77.5537796
  32.9502563  14.0502033  13.9054365  33.2487335  14.9456615  14.0644846
  33.1349754  13.8971949  12.9787760  81.6309357  46.3449402  69.3383789
  82.0785599  45.9769096  70.1002274  81.9735107  47.2358437  69.2665405
  22.8563938  24.3918152   0.0365573  22.8939571  23.7461052   0.7421628
  22.0420475  24.1940327  -0.4259950  57.8161621   5.7571955  69.2904358
  57.0303192   5.2204700  69.3934097  58.1419106   5.8785186  70.1822891
  16.7880344  22.5831642  19.1113205  16.3167152  22.4528942  19.9341927
  17.3822117  23.3124084  19.2884865  75.4323425  66.5612106   5.6131124
  74.5516357  66.1903992   5.5576291  75.5586777  67.0049210   4.7744274
  67.0282898   5.6440911  74.2766724  67.2551422   4.7568002  73.9983139
  67.5471649   6.2133999  73.7084427  41.3613510  42.6898804   6.4514756
  42.2490540  42.6515808   6.0954571  41.4317322  43.2716408   7.2083330
  54.4960365  68.8444672  71.5354233  55.1251144  68.3629150  72.0726395
  54.1297684  68.1848831  70.9463272  32.5659294  42.2389832  21.4547863
  32.0537567  42.1727638  22.2607193  33.4712334  42.3272400  21.7528934
  48.3109512  19.8576298  20.9689445  48.3125954  20.8086300  20.8601856
  48.2397194  19.7247810  21.9141998  83.7724380  37.2616882  53.1594505
  84.5541687  37.0031204  53.6475830  84.1071930  37.7832527  52.4299660
  58.7539253  50.3464775  23.1947117  59.1708412  50.5824432  22.3660164
  57.8608971  50.6823387  23.1177177  79.7527084  67.7902603  31.2691422
  79.5030518  66.8924255  31.0505123  79.0382996  68.3275986  30.9269123
  37.6600990  66.6007614  31.0132160  38.0504303  66.2596893  30.2085171
  38.0817795  66.1029663  31.7136536   0.6210923  56.1050949  41.9802170
   0.5364781  56.7831039  41.3098640   0.4062181  56.5504646  42.7997971
  64.1269684  29.0490379  52.0103989  64.5737762  28.8866520  52.8411980
  63.3590088  28.4782276  52.0358887  46.7753868  46.5186462  20.3115788
  47.1810760  47.3560905  20.0872231  46.9861031  45.9453583  19.5745754
  10.1322145  41.9672050  81.6189270   9.4171839  41.4676094  82.0130997
   9.9845781  41.8934975  80.6760559  42.0682678  43.4562874  41.7170219
  41.4730988  42.9445953  41.1691399  42.7589188  42.8400002  41.9607849
  47.9263115  16.9884663   9.4717789  47.1429977  17.5196953   9.6147766
  47.6552734  16.0975914   9.6933861  82.3584595   6.5902133  20.8079948
  81.8944321   6.8602915  20.0155506  82.1852417   7.2903204  21.4373417
  30.5494156  56.7261391  86.8945541  30.2992287  57.6500130  86.8850098
  30.3412495  56.4307747  87.7809296  27.8182049   9.8731689   6.5463705
  27.0241871   9.8925161   6.0121465  27.4998131   9.7998905   7.4460869
  23.9243355  49.3451767  46.4313431  23.3987427  50.0822029  46.1202469
  24.7708626  49.7321014  46.6547585  22.0327759  61.7319984  57.4399719
  21.2003517  61.7148056  56.9677391  22.5831318  61.0993462  56.9783516
  64.0298767  55.4851990  17.3643589  63.5872841  56.3223991  17.5037556
  64.7505035  55.4874229  17.9943810  86.6817093  15.0696316  56.7468033
  86.1487732  14.9494410  55.9608231  86.0453339  15.1919737  57.4512787
  68.6068802   7.5331826  45.3083687  68.4088898   7.2135201  44.4281120
  68.8348007   6.7462306  45.8033295  79.7545090  59.6912041  30.9225693
  80.1074371  58.8880920  31.3055573  78.8994370  59.7994614  31.3389359
  72.3084412  13.5947084  79.6124115  71.6637039  13.7872915  78.9316406
  73.1547012  13.7276325  79.1853104  51.2696342  16.3384514   4.2708793
  51.2777634  15.3816309   4.2965550  50.7331276  16.5936394   5.0213923
  28.7055645  35.7692757  69.8245544  28.4046822  36.4069557  69.1772003
  27.9021683  35.4384079  70.2261963  52.6322594  10.9445343  76.1860580
  52.5716705  10.1222258  75.6998825  53.5247536  11.2516928  76.0268707
  38.0083046  47.1836243  78.1609039  38.2286301  47.7457008  77.4180984
  38.1063385  46.2928352  77.8245697  37.6021690  69.4722443  80.8785324
  37.7491302  70.2740784  81.3802338  36.6508751  69.3665085  80.8692169
  69.8707428  44.5420799  33.8192177  69.9256439  45.4357643  34.1576653
  70.0538788  43.9871826  34.5773621  65.3074570   9.8017492  74.7084351
  65.7092590  10.0658655  75.5361023  66.0461426   9.5580168  74.1506119
  49.5023727  71.7347946  -0.0162875  49.1427040  70.9603653  -0.4488794
  49.2624359  71.6280899   0.9041891  25.7331448  19.0174408  69.8634262
  24.8077831  19.2593250  69.9012527  26.1276646  19.6694851  69.2842636
   8.4367008  49.1109352  77.1758499   9.0102911  48.5020370  76.7105942
   8.6327934  48.9650269  78.1013184  71.3792877  30.1572723   3.7422397
  71.6267395  29.2459621   3.8988185  72.2119751  30.6153030   3.6279078
  30.6213627  19.8667831  83.8324738  29.9363899  19.5672150  84.4302216
  30.2546864  20.6493607  83.4209518  39.1815147  22.2715988  71.8236847
  39.0284920  21.6667175  72.5495911  39.7124443  21.7719593  71.2034378
  85.2740555  62.4886322  14.4033432  84.5116653  62.8165855  13.9264250
  85.3943939  63.1115875  15.1200581  75.5800476   6.1314607  34.4004402
  76.5340958   6.2047820  34.4257889  75.4068527   5.2034850  34.5588570
  69.0769348  24.9079247  72.1340866  68.4898376  25.4753914  72.6336136
  69.9557953  25.1944981  72.3825073  74.3441544  37.4335060  43.9586792
  73.7104416  36.7819481  44.2588692  75.1694641  36.9529533  43.8941727
  68.7571945  31.6870346   3.2171180  68.7930832  31.3779964   4.1223474
  69.2991486  32.4760094   3.2117176  22.7023678  35.3124542  66.8055038
  23.2344513  34.5564308  66.5574112  22.3866177  35.6663246  65.9740524
  69.0587082  21.7298145  40.6700096  69.9406738  22.0512199  40.8572845
  68.5401917  21.9971981  41.4288788  51.0816917  24.2895317  22.7204227
  51.7053566  24.4706573  22.0172386  51.5699768  23.7471752  23.3398247
   4.1674805  50.7825508  70.1960831   3.7136996  51.4287910  69.6550751
   3.6770358  49.9714890  70.0623932  67.1570816   7.1023369  25.4815521
  66.6033325   6.3625607  25.7312031  66.8179932   7.3787460  24.6301708
  26.6118660  39.0820503  38.1994133  25.9315395  39.7035751  38.4584351
  26.3334942  38.2494736  38.5809326  35.0212250  14.1086731  20.5095444
  35.7311325  14.7254553  20.6879902  34.9036674  13.6341791  21.3325062
  31.0793076  69.7751160  30.5284500  31.0454998  68.8246155  30.6363735
  31.7630234  69.9176788  29.8738995  10.9664154  51.6318092  82.0504074
  11.7262459  51.5384941  81.4757919  10.3138142  52.0812683  81.5134430
  46.0163956  42.8771133  64.2801285  46.3842850  42.9543648  63.3998299
  45.4412346  42.1134300  64.2331772   8.2528334   9.0719032  21.1040688
   8.5996428   9.9509478  20.9516373   7.6724710   8.9110518  20.3600674
  52.1492653  53.7866211  64.2138214  51.9274979  53.2471008  64.9727478
  51.3748360  53.7411118  63.6530876  39.3633804  67.5068741  82.1718140
  38.8979530  68.2488556  81.7857056  40.2781372  67.6433640  81.9251938
  36.3801689  24.9975929  84.0210419  36.5217896  25.7395630  84.6089706
  37.1394653  24.4320374  84.1619339   1.5036185  57.1238518  62.6098862
   1.0067532  56.4318008  63.0462608   2.1468422  57.4039307  63.2610779
   0.8453452  39.5895882  33.7674637   0.2620677  38.8793488  33.4999123
   0.3820027  40.0228729  34.4842682  16.9881554  54.1483231  36.0748062
  17.8696175  54.5024490  35.9571075  16.4389095  54.6751022  35.4942360
  60.0675583  54.9017868  27.5617065  59.8807716  54.3735352  26.7856331
  60.5702553  54.3201714  28.1320171  11.4978342  16.7535019  28.4559727
  11.8246584  16.1926155  29.1594124  10.7153406  17.1655922  28.8221931
  50.8551331   1.0306302   6.7894859  51.7165108   0.6132290   6.7834902
  50.2454567   0.3189163   6.9843931  74.5692291  70.7613831  14.2368498
  74.2406693  71.3594360  13.5655680  74.1468582  71.0529251  15.0448370
  13.9421291  64.4034500  86.4968796  13.3121338  63.7440224  86.7875443
  13.7932529  64.4778519  85.5542603  38.6088943  60.5108528  75.1227188
  38.1808167  61.3500710  75.2920990  37.9623909  60.0078430  74.6274948
  47.6967735  18.3277607  64.8613358  47.6067276  18.9340191  65.5965729
  47.2637978  17.5268745  65.1568756  48.9552612   7.3176994  72.4618530
  48.1222191   7.0031300  72.8130264  49.4370689   7.6269546  73.2289581
  72.6750946  52.3424149  59.2700691  72.9952927  52.9996338  58.6521912
  72.3251343  52.8514786  60.0012360  32.0429268  14.7571163  72.9511719
  31.8101292  15.6041899  72.5710373  31.8736782  14.1260357  72.2516556
   0.2149131  25.5133762  52.4384956   0.9991880  25.8151436  52.8968430
  -0.1216615  24.8015919  52.9828415  14.3910189  23.5079937  81.9028778
  14.0855103  24.2540665  82.4188919  14.7212486  23.8962879  81.0926895
  60.0535355  45.4733658  72.4116058  59.6837463  46.1665802  71.8648453
  60.2399750  45.9012413  73.2472992   2.0931597  51.1269302  75.2464066
   2.8332725  51.1612320  74.6403656   1.8589513  50.1996803  75.2862015
  22.1109886  64.1745377  17.6040211  21.1946201  64.4510727  17.6092758
  22.1171799  63.3565750  18.1011486  12.3973141  65.4916000  43.3122902
  13.0762300  65.4727707  43.9867897  12.6280422  64.7757874  42.7201653
  17.9132290  29.5387764  81.3272324  18.0250645  30.3347607  80.8074875
  17.4511585  29.8291531  82.1136246  53.8481674  21.7760429  45.2330627
  53.9003868  20.9229546  45.6640396  54.6793175  21.8595409  44.7656784
  64.5851440   9.4058676  79.8185501  65.4396362   9.2574768  79.4135056
  63.9890060   9.5326872  79.0804672  72.1763153  18.9545364  51.6136093
  71.8992691  18.8781300  50.7005692  72.9649429  19.4959946  51.5801010
  41.6724396  39.8416748  59.4533806  42.4852104  39.8504524  58.9478569
  41.7328186  40.6127243  60.0173569  38.8192177  35.8348846  65.6295700
  39.2142220  35.9246254  64.7623062  38.8925018  34.9019432  65.8307648
  65.7665863  61.2239799   5.6854625  66.0338593  61.8658524   5.0275927
  66.5889893  60.9072227   6.0590205  68.1309586  36.5272217  56.7717628
  69.0142670  36.1964722  56.6086464  67.9466019  36.2810020  57.6781921
  48.0824280  44.1151161  25.5571556  47.7261162  43.6208878  24.8189049
  47.5769043  44.9278679  25.5675831  13.4035063  67.2005692   9.3153276
  12.4671316  67.0218277   9.2288046  13.4574223  67.8711472   9.9962444
  64.8567657  69.8516922  23.0611382  65.1823730  70.7191620  22.8209057
  64.0243607  70.0219421  23.5019894  50.6144028   5.2762480  12.6809883
  50.0146713   5.8999114  12.2716017  51.3928108   5.2916579  12.1241436
  32.9692917   1.6256695  16.2116051  33.1310387   1.4924151  17.1455822
  32.1297264   1.1952281  16.0501194  82.9627380  21.2886086   3.4745839
  82.6658554  20.3924217   3.6325076  82.1598663  21.7795868   3.2997370
  45.4246712  16.2763176  71.0471268  45.9246254  17.0299969  71.3605652
  46.0563889  15.7621889  70.5443039  14.1550951  46.7628899  81.9430466
  15.1000919  46.8361511  81.8094559  13.9122229  47.5754852  82.3868179
  30.2779369   8.1376591  75.9064636  29.3482456   8.2384195  75.7021255
  30.3663750   7.2232065  76.1751328  10.6005812  36.5059052  29.3365040
  10.9144907  35.8881531  28.6761456  11.3893108  36.7736320  29.8081608
  16.0627270  60.0164413  11.4953098  15.2505636  60.2371941  11.9512577
  16.6546135  59.7239761  12.1883945  49.6718369  27.9798660  26.8607750
  50.4227638  28.3003273  27.3604240  48.9642487  28.5876694  27.0755405
  70.8015366  41.5628700  14.8299656  71.0380783  40.6359596  14.7964897
  71.1471405  41.9278221  14.0153465   3.3549750  15.0741854  18.8085136
   3.8589652  15.8159857  19.1431141   2.4657760  15.2245302  19.1293774
  78.9399185  43.5586281  29.4154301  79.1193771  43.7427673  30.3374500
  79.7561874  43.7749405  28.9647064  36.9946136  30.3307343   2.5933478
  37.0947266  29.7284393   1.8561562  36.4595490  31.0452881   2.2478781
  73.8638687  52.1827126  42.1645813  74.2082672  53.0712433  42.0744133
  74.5320816  51.7166824  42.6671143  45.4486046  46.2539368  40.3785896
  46.3447304  46.5878143  40.3371162  45.2582664  46.1944313  41.3147850
  23.1033001  71.1643295  21.4047489  23.6184940  71.8771820  21.0270519
  23.4797344  71.0316315  22.2747593  62.9581680  26.8778973  46.0942459
  63.1633949  27.7229004  46.4943542  62.5078888  26.3895950  46.7834778
  11.4414425  34.4394684  88.0962067  11.0429487  35.2215576  88.4780121
  11.0962715  33.7154427  88.6185760  47.5964584  44.5357208  45.5739899
  47.3207779  45.1042938  46.2929840  48.5239220  44.7379074  45.4508476
  66.9498215  27.8674774  34.3615036  67.4834976  27.0748539  34.3052139
  67.3739929  28.3942127  35.0388985  42.4445763  49.5782738  72.2353439
  42.5336609  49.3842926  71.3022461  42.6701469  48.7575226  72.6732025
  20.4082813  70.5968323  48.3812675  20.2996330  70.8839264  47.4746246
  21.3545895  70.5039978  48.4913368  52.0125656  51.3548203  68.6936188
  52.0479469  52.1968079  68.2397079  52.6407738  50.8041992  68.2262802
  14.7630873  14.1699572  79.8055954  15.7109137  14.1776915  79.9390106
  14.5829268  14.9751787  79.3204269  19.4605560  66.2986450  24.5743446
  20.0950127  66.8907623  24.9781895  19.9314308  65.4705048  24.4811058
  73.7984009   0.5186273  26.3331070  74.5461807   0.9414108  25.9108295
  74.1038818  -0.3667866  26.5304871   3.3185413  26.3859844  84.8405533
   2.6986859  27.0945530  85.0135956   3.0283659  25.6704330  85.4062576
  20.7711086  47.3995667  39.1503220  19.9387627  47.8632431  39.0584641
  20.8815994  46.9387054  38.3186798  72.9868622  32.4435539  29.9764328
  72.2917633  32.1654587  29.3800011  73.7393417  31.9030533  29.7358780
  40.5395546  19.1172237  18.3089066  39.7335052  18.6847477  18.5908337
  40.2476273  19.7915211  17.6954479  15.3582716  52.7223701  78.8852844
  15.7927933  52.1550484  79.5221252  15.9818773  53.4322319  78.7321625
  81.7451324  18.6476002   3.4028442  81.4594879  18.0510750   4.0947971
  82.0540466  18.0722294   2.7030222  29.3810863  29.9469814  84.5316772
  29.3552303  30.4264984  83.7036514  28.4764519  29.6694775  84.6761017
  69.2896652  45.2064209  87.3949661  68.9550552  45.6584282  86.6203995
  70.0203094  44.6810799  87.0687561  15.9940948  26.6935806  18.6509037
  16.5459366  27.1842575  18.0418587  16.2559967  27.0065289  19.5167580
  26.3743382  68.7489243   3.1606562  27.2876339  68.4711609   3.0901484
  26.2593784  69.3772736   2.4477787  18.7427349  56.2057037  41.0737610
  18.6546783  56.3892479  42.0090637  19.6791916  56.0536308  40.9466515
  24.1620941  46.2913857  60.1493263  23.7539158  46.3586845  59.2861366
  23.8064938  47.0318069  60.6408081  60.6346283  44.1120605   7.2105064
  60.3319397  43.9200592   8.0980568  60.3303337  45.0036926   7.0413070
  79.4371643  42.6879387  73.7952042  80.3680191  42.6114616  74.0046997
  79.0107422  42.0438080  74.3604355  72.5836563  65.8703766  54.8663712
  71.7733688  66.1770096  54.4593811  72.5584106  66.2318802  55.7523193
  85.8401642  43.7732811  81.5746384  86.0626678  43.1153984  82.2333603
  85.0008087  43.4815865  81.2187881  69.6015015  33.2746124  58.4152756
  69.6302109  33.8595085  59.1724434  69.1497726  32.4929695  58.7334137
   1.2513796  68.5457535   9.5591879   0.7103425  67.7844620   9.7688065
   1.9001824  68.5793686  10.2621508  78.3993454  34.1030388  83.6158371
  78.5200882  33.4265404  84.2821655  77.4530563  34.1345482  83.4752274
  42.2697601   3.1313722   7.3595691  42.6855125   2.9287553   8.1976185
  41.4398346   3.5446270   7.5976415  52.1387215  57.7542915  13.5942307
  51.8161850  56.8675232  13.7549944  52.9796867  57.6273270  13.1550379
  24.7698174  67.5126572  53.2642860  24.5693932  67.5022354  52.3283615
  24.9475117  68.4324341  53.4609451  10.3394547  52.3462448   2.2435145
  11.0899029  52.9031181   2.0362675   9.8297968  52.8558121   2.8734527
  76.8646469   5.2253046  16.0038986  76.9858475   5.1242065  15.0597992
  76.5053406   4.3856759  16.2905178  82.3381882  43.6294022  25.9746361
  82.9156036  42.9015732  26.2050381  82.8920975  44.2235336  25.4682522
  52.4015274  24.4229450  84.3870773  53.0515938  23.7248306  84.4663391
  52.2455711  24.7083321  85.2873306  70.2379379  16.4705029  16.1646175
  70.8905258  17.1542912  16.3155899  70.3931961  15.8331394  16.8616772
  82.9613953  11.2285748  44.8898468  82.2526474  11.7355728  44.4937820
  83.6777954  11.8555555  44.9893036  61.7082710  69.4509888   7.8799348
  62.4244347  69.8791962   7.4109178  61.3852692  70.1185989   8.4850740
  28.1974277  38.6874008  25.6359615  27.2834129  38.8661575  25.4149361
  28.4397125  39.3898315  26.2393875  20.1196022  58.9510193  70.7937317
  20.3836880  59.8239899  71.0842743  19.3161526  59.0976028  70.2945175
  70.4602890   3.9613807  50.7214508  71.1822586   4.0886416  51.3369141
  70.2186813   4.8467031  50.4493065  60.5249596  44.1439514  66.1424103
  59.8059120  44.4334679  65.5808182  60.1081314  43.5791664  66.7931824
  53.0302200   8.3993235  40.8764153  53.5729332   8.1196108  41.6136093
  53.6367569   8.8526773  40.2909126  13.7295237   2.4184659  83.7842407
  13.2819452   2.7743869  84.5518494  14.5067053   1.9867041  84.1389236
  61.2213173  47.5327072  38.6184273  62.0797119  47.2778587  38.9567223
  60.7201195  46.7174606  38.5983200  10.2922649  63.8040695  70.5076523
   9.4469948  63.7527237  70.0614319  10.8375063  64.3353958  69.9274521
  48.0702820  11.6972046  67.0695343  48.0396767  12.1558495  66.2299271
  47.2810478  11.1556301  67.0755157  65.5369492  25.4936867   5.5750594
  65.8987961  25.3524094   6.4498949  64.6039734  25.6475830   5.7237492
  47.4637833  69.0785446  36.6578140  47.4024010  68.7257309  37.5455017
  48.4012756  69.0790710  36.4645844   1.6400887  54.3999825  10.7930784
   1.9724048  53.7870674  10.1372347   0.9231440  53.9298401  11.2187395
  76.0072708  62.1854057  39.0734558  75.1293869  62.2140350  38.6930122
  76.2526779  63.1045761  39.1789665   0.8258927  45.5508766  57.7149010
   0.4570207  45.0596809  58.4489975   1.0162119  46.4161720  58.0772171
  70.2243881  52.3955460  39.3762741  69.8533173  51.5132294  39.3684883
  69.8031845  52.8390274  38.6399727  22.3304024  67.0599670   3.4023530
  22.6320858  67.6228409   2.6893406  21.9262180  67.6614532   4.0277147
  59.9166412  28.9717045  64.4705963  59.2880898  29.5274811  64.0098724
  59.8106842  28.1082859  64.0712051  34.7733955  61.4677124  22.5575523
  34.7976913  61.0231934  23.4049282  34.8395462  62.3979759  22.7731037
  12.8644238  67.8701172  46.5327110  13.0738049  68.7442093  46.8618736
  12.1562185  68.0138550  45.9050026  29.9192276   2.6298904  76.4706802
  29.5254726   2.3223727  77.2871475  30.7957745   2.2453306  76.4677734
  84.5479660  12.3291368  48.2759399  84.2993088  12.2775383  49.1988373
  84.3135376  11.4735098  47.9165268  74.6167450  60.8372726  31.4349766
  73.7876892  61.1748543  31.0959492  74.4654694  59.8987122  31.5465679
  41.3952026  43.1321831  23.4852390  41.5862160  43.8120461  24.1314049
  42.1087685  42.5016899  23.5828762   5.4768395  53.0260010  44.3228989
   5.6450105  53.8185425  44.8326302   6.0177026  52.3545570  44.7386627
  17.1375751   5.0728831   5.7870202  16.6252975   5.8397217   6.0434628
  17.5036697   4.7439332   6.6079946  71.0948105  45.8791199   9.3324451
  71.4738159  46.4595909   9.9924746  71.7897415  45.2497597   9.1395473
  82.6999741  61.2660713  17.9441662  81.7439041  61.2386322  17.9067574
  82.9840927  60.7537193  17.1871948  59.3254623   1.5544171  31.5009861
  58.9252548   0.7837245  31.0983677  60.2344284   1.5363263  31.2015209
  82.5987930  12.4081907  30.0625458  83.4990234  12.7037897  29.9267578
  82.6521378  11.4531918  30.0256138  62.4634514  18.2029839  62.0221367
  63.2703972  18.4099541  62.4935570  61.7929649  18.1569481  62.7037239
  59.5360107  16.3162708  80.8464050  58.7114372  16.4963341  81.2979431
  59.8432693  15.4938288  81.2277374  72.4441833  50.1336250  77.6553421
  71.6874084  50.7109642  77.7563248  72.5648880  50.0603371  76.7086105
  31.0641651  57.1657295   3.8171935  30.9976845  56.3459854   4.3069210
  30.6655159  56.9710236   2.9690197  40.0695343  46.0963707  36.3173752
  39.2597504  46.3733063  35.8886642  40.1508179  45.1679878  36.0988998
   7.2684550  64.7010651  64.9031296   7.6013579  65.5608215  64.6457748
   6.3162665  64.7936554  64.8715744  58.1232376  40.6392593  37.0587502
  59.0666771  40.5190582  37.1669312  58.0430031  41.4051666  36.4902573
   3.3898296  42.2030563  74.9217682   3.6023877  42.9450264  75.4879227
   3.1179767  41.5115166  75.5251770  85.7917862  69.6872253  58.1519241
  85.8444443  70.5386658  57.7177582  84.8859634  69.4070511  58.0206604
  83.5960922  67.2452087  38.2562370  84.1883698  67.1085358  38.9956741
  83.6766968  66.4470215  37.7341003   2.4263217  66.6545334  40.2434464
   2.9641876  66.1094513  40.8177452   1.8644509  66.0330200  39.7805748
   7.4584584  40.2658615  82.5788651   6.7852602  40.8672562  82.8972397
   7.0160308  39.7436409  81.9097061  60.1494484  38.4025078  36.5521393
  60.1269035  37.4664040  36.3535614  61.0138321  38.6891403  36.2573357
  41.1515999  24.3898907   8.8753042  41.0190201  24.8635864   8.0541677
  42.0838394  24.1727543   8.8787231  64.3906174  42.3295517  18.1009159
  64.4995651  41.4704971  18.5088272  63.8017960  42.8014107  18.6898727
  13.3856182  66.0520172  36.9133606  13.2811365  65.1720123  37.2751617
  12.8422661  66.0530624  36.1253281  67.0356140  16.5166321  53.0292969
  67.6274338  15.8888741  53.4439011  66.2965851  15.9872131  52.7296562
  49.3281860  57.3721848  55.2001953  49.9629555  57.4053841  55.9158783
  49.4073639  56.4845543  54.8508072  68.2744980   6.2859430  43.0052986
  69.1704483   6.0310111  43.2255478  67.8729553   5.4843459  42.6699753
  45.1717072  54.0919495   4.7520437  44.4594383  53.7029114   5.2595420
  44.7804756  54.8638039   4.3428869  76.4032974  63.8518181  12.2363224
  75.8223648  63.9970512  11.4895582  75.8892670  64.1246948  12.9962816
  42.7438393   5.8146710  58.7713127  43.6255913   5.7850413  59.1426201
  42.2033310   5.3352180  59.3991699   5.3443136  58.1084633  87.7233276
   5.6007967  57.7607040  88.5774384   4.3978229  58.2344894  87.7904434
  48.5066490  26.5009537  50.8963814  49.2078438  27.0529099  51.2426491
  47.8566895  26.4708595  51.5984344  43.8908386  38.9101219   7.8551507
  44.1450729  38.0329933   8.1419287  43.5889854  38.7896423   6.9548159
  79.0364075  41.5003128  16.3087482  79.6401215  40.8218155  16.6110821
  78.4037170  41.0324173  15.7637701  76.5244980   7.7138395  52.1913757
  77.4179840   7.9892230  51.9862442  75.9690552   8.3704500  51.7711601
  72.4544449  18.0530624  74.4008255  71.5758057  18.2817955  74.7039795
  72.3163757  17.3277798  73.7916183  56.4027023  47.0645676  48.8648491
  56.6219139  46.1336365  48.8255615  56.0728531  47.1956482  49.7538109
   1.7573484  46.7558784  78.4355621   2.6392345  47.0111771  78.7063599
   1.2820508  46.6287804  79.2566452  35.9427109  40.6286316  22.8502769
  35.9570770  41.5376892  22.5508709  36.8632011  40.4095268  22.9949150
  39.8333549  14.7873383   9.5034943  39.4194679  13.9284191   9.5882807
  40.0849533  14.8420124   8.5815725  15.1702089  25.3058453   3.4405892
  14.5212603  24.6883850   3.1031895  15.9788542  24.7967262   3.4964650
  58.7286911  11.4376993  77.3197327  58.8717422  11.0346994  78.1760941
  58.8310776  12.3763819  77.4766541  61.7308807  39.3698540  43.7101936
  62.2493973  38.6003075  43.9450874  61.4476013  39.2025299  42.8113136
   0.9118958  40.3545799  38.7782974   0.2227794  39.6921349  38.8284760
   1.0602438  40.6151962  39.6873131  26.3606262  19.3023186  11.7502003
  26.1565208  19.5603008  10.8513021  26.6608620  18.3963699  11.6770687
  55.1289291  31.9556770  42.9290352  54.6626053  32.0796471  42.1023521
  54.4578857  32.0698395  43.6020126  24.5562439  13.6724234  23.4145298
  25.2665405  14.1282940  22.9629860  24.5748119  14.0227337  24.3051319
  54.4696236  51.4033890  70.4088058  55.0705986  50.9856415  69.7919083
  53.6057549  51.2979736  70.0102463  72.4780807  33.2890930  86.3750534
  72.9431992  32.4772148  86.5768967  73.1492538  33.9694176  86.4290619
  34.3521042  38.3038979  28.9022560  33.8566513  38.0675774  29.6864185
  34.9327469  37.5579109  28.7519417  67.1745453  16.9616451  21.6184788
  67.0912781  16.3303032  20.9038410  67.6675644  17.6891460  21.2391338
   2.9387968  12.4949369  88.1874695   2.8302736  11.9512100  88.9677353
   3.0745137  11.8688612  87.4762421  14.3783445  20.8173809  28.7566338
  14.6630182  21.6913662  29.0237350  13.5318174  20.9601784  28.3332748
  68.4625473  56.1767044  31.9729881  69.2677307  56.6653099  32.1437988
  68.7491074  55.2683182  31.8784103  36.3155251   6.9908133  69.8769913
  36.3512306   6.0396085  69.9778214  35.3983421   7.2142024  70.0354385
  71.1575546  50.2827950  52.7230072  71.5257034  50.1163292  53.5907555
  71.5510025  49.6132355  52.1634369  81.6470947  68.6611023  66.8160553
  81.8108902  69.5566483  66.5204239  82.3661652  68.1506729  66.4437256
  65.8505859  27.6313457  22.7691593  65.6528778  27.7158279  23.7018986
  65.5052109  28.4335613  22.3774986  36.6179314  39.9636345  26.1331978
  36.9242744  40.8352089  25.8827114  35.7221146  39.9193687  25.7988491
  70.5248032  49.8523216  16.5796661  70.1228561  50.6192284  16.1715946
  71.3386383  49.7210541  16.0931644  58.5770035  64.8180161  69.4857330
  57.7752495  64.8902283  70.0036240  58.6317825  63.8901062  69.2572327
  69.7396545   9.1136475  68.7107849  70.4499817   9.2883091  69.3281708
  69.1673050   8.5001535  69.1715088  74.5607834  37.1847649  47.7727242
  74.1360321  37.2673798  48.6265297  75.3991318  37.6346245  47.8777428
  48.7051506  49.5734634  65.0459290  49.5157356  49.1163521  64.8218002
  48.1173859  48.8827057  65.3519058  26.7064991   5.1254134  22.8885155
  26.2650661   5.8735518  22.4864483  26.4041157   4.3697906  22.3846989
  69.5265045  19.3293629  83.2771606  68.7295914  18.8561096  83.0380249
  69.2503815  19.9281616  83.9710083  37.8786278  65.1674728  81.7582626
  37.4930649  64.7486649  82.5277939  38.4414330  65.8541260  82.1160355
  38.5363464   5.9915919   0.3125421  38.4878044   5.6234231   1.1947705
  37.6833038   6.4044533   0.1780328  49.6710548  47.9839745  76.7857742
  50.3971405  47.6535263  76.2567825  49.0723915  48.3780251  76.1513062
   6.6789784   5.4624305  17.7991638   7.2677627   4.7111940  17.8713379
   7.1734228   6.1064229  17.2921810  69.8699799  54.5015984   8.2049065
  70.6062088  55.1040993   8.0990992  69.9023209  54.2433281   9.1260376
  76.4374619  27.7991734  74.9772263  76.9873276  27.4870453  75.6958771
  76.1762848  27.0040436  74.5126953  74.0867081   3.3301423   7.8788924
  74.3393936   3.3663480   6.9563594  74.8877106   3.5482926   8.3553705
  55.6994438  35.8599968  44.9477310  56.3839569  36.1555099  45.5480232
  55.0334206  35.4728661  45.5158653  19.0064487  41.5110016  28.3773861
  19.4297333  40.7038231  28.6698399  19.5291061  41.7977791  27.6285076
  68.4350815  59.7056427  85.2321091  69.1746063  59.2036362  84.8895874
  68.3506699  60.4470444  84.6325836  35.2625427  17.6598701  18.3271923
  35.4954453  17.2434750  17.4973717  34.4314423  17.2540741  18.5738297
   4.5997858  52.2634621  22.7932301   4.5507259  52.2007561  21.8393459
   3.9420996  52.9194298  23.0242786  11.1593723  48.6244316   5.0996494
  11.3315697  47.7860336   4.6710835  11.8846149  49.1863556   4.8267112
  25.2884350  68.4783707  38.5503082  25.2360363  68.6086960  39.4971466
  25.0863781  69.3370819  38.1787987   2.7524617  15.1434240  70.9699860
   3.0279465  15.1063051  71.8859406   1.9673473  14.5970640  70.9336853
  83.7371826  30.2806320   9.7170076  83.7466507  31.1042233   9.2293186
  82.9226761  30.3088894  10.2190161  21.4112778  43.0235634  34.5301895
  20.5247231  43.2916756  34.7717819  21.8210888  42.7765617  35.3592110
  53.3507805   4.7763562  54.8901443  54.1222153   5.2826161  55.1447487
  53.6587715   3.8706508  54.8574181  73.3365555   4.0462198  58.1508331
  74.1306152   4.2886677  58.6271935  72.6225586   4.2567663  58.7525864
   8.4144354  59.8367348  25.8369370   8.9882336  60.5947990  25.7259140
   8.7919540  59.1653252  25.2686749  58.9280281  16.9311752   9.0115643
  59.0747108  17.0641956   8.0750694  58.0082207  16.6741467   9.0757933
  70.4044037  71.2398224  26.1835995  70.7922134  72.0695877  25.9055195
  70.1387711  70.8144379  25.3682938  13.4234076  36.5293808  12.1623545
  13.1142454  35.6332855  12.2952671  14.3688583  36.4411316  12.0416603
  50.3633728  46.0717354  80.2605286  49.9068069  45.4863129  80.8647308
  50.9632263  46.5691948  80.8163528  38.5293350  62.3805351  11.7464428
  38.0279655  61.6727028  11.3416796  39.3992462  62.3133659  11.3527718
  69.3159256  62.0317421   6.7057400  70.1216354  61.8117218   7.1733422
  69.0301514  61.2043152   6.3185349  39.4670906  66.8735275  47.6602211
  39.0680428  66.5810928  48.4796600  39.8527374  66.0815735  47.2856216
  81.5774994   4.4454641  60.3641739  81.3769913   3.6024644  60.7708473
  82.4919205   4.6107264  60.5938454  48.3102112   9.4939861  22.1339169
  48.0254059   8.8284245  22.7601337  48.0081635   9.1694946  21.2855625
  20.0869961   5.7959042  81.4027252  19.5587654   5.8578033  82.1985703
  20.9163589   6.2149196  81.6325378  80.7382584  28.3637924  25.7733307
  80.5335999  27.9640789  24.9280033  81.4225540  29.0034714  25.5763988
  58.7397232  18.3728218  35.8678894  58.1875000  17.6054535  35.7181282
  59.6303749  18.0238724  35.9025841  20.8050079   2.1268191  87.9663391
  21.2210255   2.5487251  87.2145691  20.4268799   1.3225956  87.6107101
  41.8054466  57.9737511  19.6163101  42.2630119  57.1700821  19.3693638
  41.0817146  58.0384293  18.9932060  34.7833061  54.9006615  22.7663879
  34.5349808  55.7456703  23.1412544  35.2666817  54.4610710  23.4659157
  11.6756754  42.6548996  11.8674917  11.7151918  42.4583855  10.9315138
  11.3523092  43.5548286  11.9098396  50.1564331  15.0830984  85.4884872
  50.9410934  14.7046871  85.8851547  49.8048096  15.6655912  86.1617584
  83.4993591  44.3383331  48.6685944  84.1122742  43.9479408  48.0455704
  83.3240814  43.6413765  49.3008614  72.8849792   8.7109613  59.7762260
  72.9519577   8.5817413  58.8301582  73.6663589   8.2875099  60.1317139
  73.7673798  44.0592499  11.3773689  73.7094650  43.7738380  10.4655476
  73.6560287  45.0091591  11.3385391  30.3616943   0.6544167  22.7434425
  29.6451378   1.2713859  22.8921947  31.1431065   1.1176068  23.0452385
  71.9015961   9.7638445  12.5738955  71.3508606   9.2565241  11.9776134
  72.7669678   9.3611555  12.5017242  51.2559471  50.4894104  73.0905991
  51.0686684  51.0723801  72.3548660  50.9979019  49.6214905  72.7801819
   3.8895030  71.5076447  73.9981613   2.9959655  71.8503876  73.9794998
   3.8894908  70.8779678  74.7190933  38.9872360  64.9375916  28.9456291
  39.4795036  64.4128189  28.3143425  38.5383873  64.2939606  29.4938164
  28.1143932  52.6104660  80.0816040  27.2272835  52.8100548  80.3806610
  28.1749992  51.6564903  80.1314545  43.4343452  70.2341614   6.2757759
  44.1564331  70.2047958   5.6481123  43.6538582  69.5657578   6.9248395
   7.6132936   7.0446296  71.5950012   7.6823382   7.0212188  70.6405792
   7.5568018   7.9760551  71.8082733  56.0309868   4.6579838  42.5236015
  56.6660347   4.0441675  42.1545830  56.2982521   4.7587562  43.4371910
  22.8818302  11.1362467  78.4705887  22.2195835  11.8259258  78.5153656
  22.5220585  10.4983807  77.8542099  84.7888107  39.6566696  72.3167191
  84.8227081  39.9154091  71.3957748  85.5543747  39.0945854  72.4359207
  15.0252743  38.1998634  59.0061836  14.3658295  37.6546364  59.4352455
  15.7057934  37.5837975  58.7349167  68.5403137  41.9362717  27.2400322
  68.4265823  42.6150894  27.9052429  68.5690842  42.4150925  26.4116974
  51.6946068   3.9644966  50.1456261  52.3097916   3.7316296  49.4502449
  52.1706696   3.7853041  50.9564819  86.7423935   0.4637182  53.4270401
  85.8554764   0.5594245  53.7741013  86.7008362  -0.3176763  52.8757439
   4.1581526  35.1705246  59.7780762   4.6022987  34.5404282  59.2106743
   4.6353717  35.1247101  60.6065636  43.1285858  10.3401508  85.3301468
  44.0028191  10.1100540  85.0154953  42.8147697   9.5479240  85.7661819
   5.4121194  25.8057575  40.9902000   5.7827606  25.7713833  40.1083412
   5.4417400  26.7328625  41.2264862  54.0559578  69.5981827  66.2129135
  54.0014763  68.9116745  65.5481033  53.3405457  69.4028397  66.8181076
  49.9829636  65.6629562   1.9435165  50.6161423  65.5286179   2.6486921
  49.1330757  65.6745453   2.3837287  21.2318802  18.3031464   8.8059759
  21.9574986  18.9183216   8.6998100  20.7399673  18.3694477   7.9875274
  50.6996613  66.0322800  11.8676376  50.2311172  65.4414825  12.4572611
  50.5031395  65.7014771  10.9911804   4.1280594  18.8595200  27.4775772
   3.2679915  18.6923904  27.0921135   4.6483512  19.2152843  26.7571888
  69.0392303  67.1566467  13.3647318  69.2549896  67.5210724  12.5063190
  68.0843964  67.0894012  13.3632641  33.6857719  17.0203419  71.6795654
  34.1845970  17.7954388  71.4214401  33.9413643  16.8627548  72.5884552
  54.1289482  34.7106171  76.7310944  53.3365898  34.7780762  76.1983261
  53.8809624  34.1391830  77.4578705  35.2677879  67.9496536  81.6244507
  34.5509186  67.6752777  82.1963348  35.4521523  67.1803436  81.0855637
  57.4331093  26.3130074   7.8073878  57.7743034  26.6837559   6.9935293
  56.5996513  25.9138737   7.5578518  36.1588097   3.3690777  79.3508301
  36.0993729   4.0678501  78.6993561  36.4038582   2.5926168  78.8475494
  12.7615786  49.6992760  23.3641949  13.5159101  49.3465309  23.8361988
  12.3531227  48.9340744  22.9593906  57.7088280  33.5050087  11.4742813
  57.8302155  33.3891678  10.5319033  57.2972946  34.3650818  11.5588255
  71.4677353  44.9344330  63.8167572  72.2931671  45.4189262  63.8297653
  70.8027954  45.5989380  63.6364365  76.7108994  29.9779835  10.3036356
  75.9791412  29.7158947  10.8622713  77.4547958  29.4718342  10.6302147
  55.8375702  70.0463104  30.6656590  55.5958900  69.2517166  31.1415081
  56.6973419  69.8503647  30.2933292  38.9212379  23.0117283   4.3264995
  39.1706123  22.2792816   4.8900304  39.7025757  23.5635376   4.2911224
  55.5238953  49.3164864  52.7553177  55.4278488  50.0683365  53.3398933
  55.9068985  49.6809082  51.9573593  26.7881927  41.8467407  72.4969101
  26.1044483  42.2388191  71.9537735  27.1900826  41.1842918  71.9348755
  83.9307022  70.0229874  34.8001862  83.2061234  70.3446503  35.3366127
  84.2954636  70.8092499  34.3940163  83.1724930  31.5160732  52.1073570
  83.8050613  31.0866604  52.6832886  83.0101471  30.8784256  51.4121742
   0.1084339  29.5023689  40.5529442   0.7281067  29.3528614  41.2670097
  -0.0587743  28.6307163  40.1944809  33.4541512  39.3428040   2.4927318
  32.5324478  39.6007423   2.4800749  33.9284058  40.1569557   2.6614771
  44.6110725  68.9495163  44.2659492  45.0597382  68.3609772  43.6588707
  44.7816963  68.5768738  45.1309662  36.8085670  43.5960541  33.2470436
  36.1205978  43.6166000  32.5818253  36.3367310  43.6023750  34.0798492
   5.0500965  29.7431469  15.9078884   5.2952847  29.7030182  14.9834938
   5.4833889  28.9869347  16.3036556  60.3746567  36.0438805  86.0978012
  61.1533432  36.1284027  85.5475922  60.3050995  36.8870316  86.5455627
  76.5502548  65.6515579  20.2741852  76.2342911  65.0909653  20.9828014
  76.5642242  65.0811539  19.5056305  17.7907047  41.1830368   6.0555749
  17.0365543  40.6155472   6.2150903  17.9250355  41.6416435   6.8849525
  17.0075741   4.0053287  48.0013046  16.1776466   4.1646919  47.5517998
  17.4561348   4.8507195  47.9828682  24.2454281  30.5368156  81.6637344
  25.1562004  30.8300095  81.6360626  24.0178871  30.5494366  82.5934067
  74.2223892  54.8996620  58.2353821  73.8733063  55.3375244  57.4590797
  75.0874176  55.2895584  58.3616409  73.3997345  46.0230827  88.2859116
  72.7171173  45.5178490  88.7274933  73.5111694  45.5876541  87.4408035
   7.5582619  32.9991760   9.2170782   7.4202080  32.7424202   8.3053493
   6.9441628  33.7196465   9.3586292  37.0433350  43.0766335  19.4161854
  37.5942268  42.3122482  19.2474613  36.1630325  42.7977638  19.1641369
  61.5367928   9.4278355  83.3645935  61.3118744   8.9629898  84.1705475
  61.5891724  10.3474064  83.6251297  72.7560959  46.7891083  84.4537506
  73.2846451  45.9910698  84.4541321  71.8778610  46.4946060  84.2125015
  59.0461540  12.8317375  72.5435715  59.8240585  12.7723961  71.9889755
  58.4287796  12.2104425  72.1574707   8.8920269  37.8477631  47.6521378
   9.6726637  37.9046898  47.1011429   8.2402887  38.3837204  47.2002296
  86.5417633  36.2919121   3.5501623  85.9954834  36.9704247   3.9469368
  85.9326859  35.7678757   3.0299218  11.7594690  56.8658600  12.5323868
  11.4488144  57.0946274  13.4083958  12.0794878  55.9678764  12.6186666
  86.4161530  17.2630997  16.5225105  85.8175507  17.8007240  17.0410290
  86.0139008  17.2257233  15.6547384  44.9498978  14.9491816  12.6570253
  45.4769058  15.7468586  12.7039890  44.0605202  15.2372618  12.8625736
  76.9231720  44.0054245  67.1605835  77.4325409  43.4819603  67.7792587
  77.3023529  43.8018456  66.3055878  16.6514950  10.5811596  78.5450287
  17.0942116  11.2084293  77.9733887  16.1977348   9.9892015  77.9450912
  16.6742210   8.0741053  19.8933258  16.3649235   8.4448357  20.7198391
  17.0434036   8.8195276  19.4197407  55.4551964  44.4059105  80.5211716
  55.4433098  43.5177345  80.8778687  55.2444611  44.2945442  79.5941238
  15.6930218  68.3113098  63.9241600  15.1563711  67.6499252  64.3609695
  16.1618366  68.7474594  64.6356506  19.6243439  21.8164940  79.8581161
  19.3514576  21.6612301  80.7623596  19.0183411  21.2946796  79.3320999
  48.6375923  29.9410229  81.7649384  49.1249924  29.6607037  82.5395966
  48.0496063  30.6245728  82.0862885  52.8550301  18.5432568  32.5707359
  52.9776878  19.1525879  31.8427944  51.9110565  18.5464325  32.7292786
  42.7447929  32.3833237   2.1675110  43.4591980  33.0084915   2.2901003
  43.1799698  31.5684814   1.9167516  56.0315475  54.5561485  64.3376236
  56.6017303  55.2785263  64.0743866  55.5475960  54.3312111  63.5429993
  26.6411552  15.3885937  85.2565536  25.9780521  15.7982073  85.8122025
  27.4735832  15.6106396  85.6736832  79.2190552  21.3018436  74.9195709
  78.9251328  20.4406109  74.6227264  80.0107193  21.1229553  75.4270172
   5.9029527  11.3315048  87.9982529   5.2705588  11.0155582  88.6436157
   6.4785647  11.9149647  88.4927063  49.8195381  61.1872711   5.9263005
  48.8701820  61.2424927   5.8171973  50.1740990  61.4579086   5.0793810
   0.8317500  48.2055511  83.5272827   1.2858427  48.9687386  83.8844604
   1.3099142  47.4553337  83.8805084  12.1928043  12.5713196  67.4839325
  11.8973856  11.8784723  68.0746307  12.2041540  12.1603918  66.6194992
  29.6157475  21.7289124  74.9689560  29.1467457  22.0179272  75.7517319
  29.9213829  22.5386944  74.5602112  34.0391273   2.2214906  39.5770874
  34.4567223   2.9154558  40.0872459  34.6913757   1.5216131  39.5458336
  75.8101196   3.5417256  27.0333195  76.4303970   3.5112572  27.7617207
  76.1392212   2.8929708  26.4111919  71.8921127  65.1283646  80.7565689
  72.4820633  64.3758011  80.7994766  72.1212845  65.5659103  79.9366531
  84.8871536  19.8326550  48.7503204  84.2568893  19.1236477  48.6225967
  84.6316833  20.4981747  48.1115303  44.9872246  50.1132011  68.7637634
  44.6594810  49.7841682  67.9267731  45.8154602  49.6515923  68.8948288
  73.9554214   3.5224102  40.1987648  73.4913940   4.1183310  40.7868080
  74.5485001   3.0351613  40.7706680  15.8321733  32.5699692   9.1208105
  15.8312645  31.6378250   8.9032412  15.6853104  32.5953712  10.0663357
  77.0209045  18.8487434  25.0450134  77.4143753  19.7196941  25.0984631
  77.5596619  18.3812962  24.4066792  66.1116028  51.4471016  38.0517197
  66.9997864  51.0977554  37.9787216  65.8690338  51.6742096  37.1540489
  78.4971237  60.6897316  79.8814545  78.4600296  60.1945572  79.0631256
  77.5803757  60.8385849  80.1130905  44.4502144  37.3970222   1.3568354
  44.1540108  37.9131775   2.1065547  44.0123177  36.5521011   1.4597321
   3.4366748  40.7444038  12.9204655   3.1937022  41.2111969  12.1209021
   4.1522179  41.2608643  13.2912722  33.6630287  64.9617233  21.2340164
  34.5119171  65.4037170  21.2177963  33.4567795  64.8732910  22.1645393
  22.7281723  69.2957230  40.8496284  23.5762177  69.3161621  41.2930603
  22.0977421  69.1141891  41.5466499  24.1595097  51.6913528  38.7786522
  24.5227852  50.9312019  38.3243027  23.3031235  51.3978348  39.0895882
  79.8572769  42.4477501  36.6374893  79.7207336  43.2628021  37.1204834
  80.6846390  42.5794334  36.1745033  39.3099785  32.8245773   3.3786600
  39.0511551  32.3866615   4.1895056  40.0462799  32.3076363   3.0517581
  79.0549011  65.3086395  61.3147278  79.9441681  65.0757065  61.0479202
  78.6479950  64.4738464  61.5466080  83.8149033  39.7783356   9.8701887
  83.2628860  39.5386353  10.6145363  83.5083313  40.6484795   9.6150417
  46.8895340  27.1098881  17.1530952  47.4717865  27.8692589  17.1292381
  46.0154839  27.4818668  17.2709827  42.5170860  24.1657848  12.5460453
  43.2575340  23.6639824  12.8868732  41.8308487  23.5137177  12.4041977
  69.6944275  64.3936462  82.2713776  70.5926971  64.2965546  81.9552841
  69.6167221  65.3221436  82.4906540  57.2842751   4.8517294  36.6344452
  57.8197517   4.5666308  35.8940315  57.6171532   5.7230825  36.8493118
  67.3574066  15.1161222  11.0602875  68.2938614  14.9861526  10.9106112
  67.0821991  14.3382998  11.5455542  62.9066811  46.7966080  26.6324463
  62.3879585  47.2614670  27.2890034  63.3497925  46.1045685  27.1233273
  82.8196182  24.8349876  33.0273743  83.4197006  24.0953217  32.9323196
  82.5629349  25.0518742  32.1310997  68.1312408  39.4193764  61.2190590
  68.3456573  38.5604248  61.5830040  68.1651688  40.0126953  61.9694290
  20.1764145  16.7325802   2.7975416  20.4750195  16.0150585   2.2387648
  19.3731594  16.4036064   3.2010128  60.1742477  40.4015274  66.4468842
  60.2596283  41.3438301  66.3019638  60.6599197  40.2385788  67.2554626
  39.1784630  47.5224380  42.8087196  39.5679550  48.0707817  42.1276550
  39.6936951  46.7159424  42.7906609  77.3363419  34.1027794  73.1504593
  77.9240646  34.4092140  72.4598770  77.8271713  33.4102516  73.5928650
  68.3882141   2.3782570  12.6597013  67.9731445   2.4490247  11.8000851
  68.3347778   3.2614312  13.0249128  84.3665161  64.2394104  50.2357330
  84.2406235  64.3795624  49.2972527  84.3385010  63.2885170  50.3417740
  41.9663010   1.7407168  87.8229828  42.7222633   2.3052990  87.9842377
  41.4982491   1.7229313  88.6577530  39.9855423  24.2781944  67.1861649
  40.2799606  23.9432964  66.3391724  39.0864334  23.9606628  67.2698593
  29.2324924   7.5655408   8.0373087  28.7466640   8.2575903   7.5886769
  30.1495171   7.8295722   7.9625649  62.3190117  21.2532272  20.7968903
  62.8585434  21.4079857  21.5722542  61.6153183  21.8988323  20.8620090
  59.8571968   3.0068719  39.8484154  60.7688370   2.8291988  40.0798798
  59.8941956   3.8096933  39.3284721   8.8514223   9.9249716   5.1429234
   9.5431528   9.9428263   5.8043022   8.0502567   9.7561531   5.6387720
  15.1436558  64.4275436  34.3494835  16.0942669  64.4099579  34.2387619
  14.9488392  63.6489639  34.8711090  11.7102461  20.1317101  86.1712494
  11.4438868  20.5035095  85.3303909  10.9131660  19.7325249  86.5198822
  12.4508734  20.2422009   0.5761487  13.0502787  20.3677788   1.3117949
  11.7934952  20.9297447   0.6827685  85.0345764  56.2723999   8.4534130
  85.3462448  55.7911110   7.6869583  85.2425919  55.7033463   9.1944523
  76.6590805  64.8892212  43.2091713  75.7377625  65.1100616  43.0726585
  77.1058350  65.7351303  43.2419662  19.9621487  49.8989525   7.3517828
  19.1652431  49.3687096   7.3481064  20.2778530  49.8505898   8.2541265
  39.4204979  48.5353661  59.5205994  39.8409729  47.6757965  59.5445786
  40.0569267  49.1246986  59.9254189  23.5074215  58.4236107  87.3378067
  22.6544151  58.0006447  87.4363632  23.3003902  59.3321648  87.1189423
  16.4235744  29.3535328  20.1361046  16.0133133  29.7890072  20.8832874
  16.7646961  30.0690575  19.5995502   5.4503851  48.8333435  11.3881369
   5.6380887  49.1128883  12.2841578   6.0125399  49.3836555  10.8428192
  61.6072235  69.6795807  84.2710648  61.4940338  70.6116714  84.0849762
  61.3093643  69.2386017  83.4754257  79.2950897  70.2469711  37.2750359
  78.9021072  69.4787903  36.8606796  80.2378387  70.1215210  37.1668053
  68.2556076  70.2638550  15.9930286  68.2609634  70.7215347  15.1523561
  67.3422241  70.0073776  16.1202888  42.5025444   5.8970728   0.4133011
  41.8438683   5.2317214   0.2140946  42.4788704   6.4899616  -0.3378008
  47.2027473  40.8232231  24.2364082  48.1592293  40.8038826  24.2679958
  46.9278603  40.4521904  25.0748596  32.0649490  61.5511551  12.7403793
  31.4878387  61.0234451  12.1883888  31.8753948  61.2599564  13.6322889
  23.8318653  25.0756855  14.6705475  23.8238926  24.1234722  14.7677946
  23.1534615  25.3835125  15.2715826  75.4796295  53.7748795   9.6388674
  76.1509094  54.3346329   9.2486238  75.3784561  53.0536156   9.0177603
  65.6308136  57.9886818  80.6596298  66.1143570  57.8709908  81.4772797
  65.8158188  57.1961441  80.1557541  17.6165123  36.5719643  76.3927078
  18.4598007  36.8337517  76.0231628  17.0552044  36.4286919  75.6307144
  58.8586998  17.4059105  78.3717194  59.1140060  18.3283653  78.3604050
  59.1352692  17.0913849  79.2324219  59.3030739  60.2655792  59.9663734
  59.1676750  59.8340836  60.8100052  59.6846619  61.1144600  60.1900406
  37.6089172  56.0506134  53.6919060  36.9177361  55.3972931  53.7999687
  37.3181381  56.5871849  52.9544983   8.0947685  36.7623634  54.2363930
   7.8975482  36.2074165  54.9909554   9.0430031  36.8879166  54.2727394
  52.8042679  52.4064636  60.8350945  51.9004936  52.5379906  61.1216698
  53.0346146  51.5363808  61.1608734  83.2408295  42.2756424  45.4668732
  83.8795853  41.5660744  45.3980637  82.3946686  41.8505859  45.3269653
  12.4486980  46.3131943  45.3395805  12.3972759  47.1127853  45.8632622
  12.3943491  45.6036797  45.9797935  18.9637451  35.1599960  71.1546173
  19.5241718  35.8738213  70.8503036  18.5276260  34.8438950  70.3633499
  25.2334366   4.4151282   4.5362382  24.6757069   4.8513145   5.1803727
  25.0500050   3.4829216   4.6527500  10.8338470  54.6705017  32.9059525
  10.6096020  53.8784714  32.4174538  10.2531834  55.3434601  32.5507202
  36.0847168  25.6822872  78.1391525  36.2337799  25.8687420  79.0661087
  35.6159401  26.4503517  77.8127136  81.5209808  19.1466618  70.6406860
  80.5893173  19.3545456  70.5698395  81.8380661  19.7064362  71.3494492
  27.9672890  38.0722847  19.0025063  28.2585526  38.2371407  19.8992901
  27.7753773  38.9410591  18.6494808  37.3103752  62.5600281  56.6862907
  36.9380417  62.3664055  57.5465851  38.2092628  62.2347603  56.7356300
   6.1169872  28.4885082  55.3072739   6.8298645  28.4762554  55.9459381
   5.5032716  27.8241158  55.6205902  46.7502136  15.9544163  89.0737228
  46.2092171  15.1836033  88.9022598  47.2230797  16.1021481  88.2546921
  50.0582161  18.4442043  14.2812271  50.7814522  18.6829948  14.8610001
  49.7850037  19.2719383  13.8856974  20.4307480  48.1861153  54.2594681
  19.9403267  47.3660736  54.3164787  21.2349224  48.0189247  54.7509766
  58.7713470  18.4236488  66.3536224  57.8788071  18.2092705  66.6250000
  59.1631508  18.8362350  67.1233597   2.3639584  30.8086014   8.9894695
   2.0022404  29.9529610   8.7586641   2.5627754  31.2194500   8.1480970
   0.0229956  56.2697487  16.5896454   0.9334560  56.5629845  16.5535069
  -0.2020612  56.3012810  17.5194778  30.8536034  26.2712078  16.6255093
  30.3061218  25.5397606  16.9109554  30.5282917  26.4870701  15.7515478
  35.4981537  71.2000580   6.3216023  35.5133553  70.4321518   6.8928475
  36.3991699  71.2844162   6.0096970  68.3812027  11.9493933  78.7762146
  68.8722076  12.7654943  78.6807022  68.0466919  11.9746542  79.6727066
  83.4255219  58.3716774  30.3433151  84.1688919  58.6498947  29.8083153
  82.7214966  58.2174225  29.7133999  80.8249054  53.2488670  28.9958286
  80.8734589  52.9413185  29.9009743  81.7004395  53.5887451  28.8110561
  71.0467758  45.0953598  17.9504490  70.8427277  45.9346619  18.3629589
  70.3260269  44.5204659  18.2078552  38.0069313  13.6444263  69.7510300
  38.5031281  13.6744242  70.5690308  37.5846100  14.5016260  69.6955109
   9.9310455  15.7753506  83.7082596  10.5872793  15.9731455  83.0400848
   9.6527090  14.8805408  83.5131302  62.9147491  62.7513008  58.8387299
  63.6010094  63.2442894  58.3890152  62.0978584  63.0853081  58.4681015
   6.5489206  52.1744156  24.9822998   6.6685586  51.2248001  24.9946632
   5.9762459  52.3339233  24.2320786  66.9895172  46.7897034   0.8774409
  67.5735550  47.2358665   0.2641965  66.9343643  47.3804626   1.6285679
   3.9200232  69.7336426  78.8287125   3.0933433  69.9870453  79.2393494
   3.7114174  68.9357681  78.3428040  64.6616287  39.7084694  52.4661903
  64.3420715  38.8063583  52.4485054  65.2829742  39.7282333  53.1940422
   0.9631227  19.9517384   9.3945875   0.4871775  20.1408234   8.5859127
   1.8434086  19.7130108   9.1041775  73.7270126   3.1818142  85.6048965
  72.9714508   2.6775308  85.3031387  73.7165680   3.9737542  85.0673523
  57.1001320  53.5177040  45.6020889  56.4829559  54.2366982  45.4665527
  56.5461807  52.7509537  45.7486000  34.9766846  42.4350510  26.0970554
  35.2969704  42.5068016  26.9962215  35.7647438  42.4925461  25.5567875
  83.9886017  56.9232674  80.2144089  84.8224030  56.6445618  80.5929947
  84.2329636  57.3965607  79.4190979  62.5116539  52.0819321  44.1728134
  61.8964119  51.4357567  43.8261642  63.0038872  51.6083336  44.8433647
  49.3249588  62.2714043   8.7547579  49.4156380  61.9389229   7.8617492
  50.0806351  61.9141960   9.2212152  55.9864464  68.8844910  38.9352608
  56.1905975  67.9931259  38.6523857  56.8146553  69.2236252  39.2748070
  68.5787125  24.0186005  57.8613358  68.1206818  23.4532146  57.2394180
  69.4607925  24.1067257  57.5002289   9.7522669  45.4052849  55.9827232
   9.8111629  45.4824409  56.9349861  10.0438738  46.2560501  55.6550026
  38.7661552  52.5905457  63.1926003  38.4187775  51.8544884  63.6963654
  39.5970802  52.8013306  63.6184692   0.2560323  12.2902536  37.3353958
  -0.6955743  12.2762327  37.2330246   0.5918319  11.9737225  36.4967804
  73.7442322  55.0407677  42.2823563  73.4598694  55.9489594  42.1795921
  74.5041122  55.0918655  42.8621864  69.1716385  58.2689781  33.9986534
  68.8651199  58.4525337  33.1106300  68.5372467  57.6420937  34.3462143
  37.4099770  22.6555939  80.7899170  36.8745155  22.1516533  80.1770859
  38.2188072  22.1504498  80.8726883  27.1004486  61.9153557  50.1810341
  26.7136230  62.7861748  50.2719803  27.6158295  61.7976837  50.9790154
  25.8549099  69.3592606  87.1743927  25.8473454  68.4022903  87.1548157
  26.2692032  69.6124344  86.3494720  40.3111458  70.8288040  57.2237587
  40.8937340  71.4508743  56.7880478  40.2750473  71.1299591  58.1316299
  22.5831146  60.9079704  76.2204514  22.6611366  61.1049614  77.1539078
  21.9739094  61.5665779  75.8867798  50.0923576   4.3765240  80.3630371
  50.2353363   4.2539091  81.3015289  49.7185440   5.2547178  80.2904358
  77.6772842  64.0094833  28.0534515  77.0947571  63.4593124  28.5771008
  77.5853119  63.6745911  27.1614742  31.7885151  28.9397926  21.3850918
  31.5360966  28.3919010  22.1282806  31.1098576  28.7809677  20.7290192
  48.5058670  67.4018860  13.5718966  48.1251984  66.8924408  12.8565044
  48.0538597  67.0891876  14.3555660  65.7594299  53.1901436  22.3034611
  66.0052643  54.1005516  22.4676323  65.8173981  52.7680969  23.1606369
  69.7173843  20.9108200  12.5142412  70.2215652  20.2580700  12.0284967
  70.2552643  21.7019196  12.4814281  35.6737862  37.4992676  22.6855946
  36.0269623  38.2828026  23.1069832  34.7247047  37.6211777  22.7102985
  66.5239487  60.7729073  22.6090660  66.9643707  60.3485565  23.3453999
  67.1936493  61.3368492  22.2221470  47.6610870   0.8166982  48.6506310
  47.4635315  -0.1173163  48.7200584  47.4121017   1.1780512  49.5013161
   8.6713018  60.9465370   3.2536488   9.1202335  61.3635406   2.5182567
   8.6390667  61.6235046   3.9295971  12.4390850  32.7501526  80.0064392
  11.6036062  32.9829712  80.4114151  12.9341183  33.5692520  79.9906998
  49.5793304  33.6127892  72.8958130  49.7351341  34.2909164  72.2384720
  50.3472748  33.0441284  72.8399582  18.8021088  17.6585426  12.6959476
  18.0929623  17.5443554  13.3286438  19.1480961  16.7761497  12.5621328
  51.4259720  69.3401184  28.8613186  51.1354446  69.2008286  29.7626648
  51.0018539  68.6419678  28.3623734  60.2360878  33.6205673  88.0626602
  59.8491631  34.2258110  88.6952744  61.1730957  33.6371040  88.2575378
  18.8289585   2.1047854  43.9115906  18.5110531   1.3576179  43.4047279
  19.7664967   2.1412954  43.7220573  32.0287170  44.7518806  52.8080673
  32.4286880  45.4499512  52.2894630  31.3974018  45.2021179  53.3692818
  23.0008602  20.3968277   8.8451519  23.6867714  20.5554714   9.4936810
  23.4608593  20.3943691   8.0057316  68.3561020  65.1200714  87.1400223
  68.1732254  65.8202438  86.5134888  67.4971085  64.7494202  87.3424454
  83.2852325  29.8017254  25.8590164  84.0855026  29.3102207  25.6740246
  83.4561691  30.6771889  25.5117702   8.4788551  36.5658417  84.6979370
   8.2920656  37.0951767  85.4732742   8.5821829  37.2036438  83.9916992
  24.6103363  15.9660740  25.9804802  24.2031307  15.3805761  26.6189213
  23.9014931  16.5450859  25.7002716  79.0064850  49.8652573  52.5343590
  78.3150787  50.4436340  52.8563385  79.3264008  50.2933769  51.7402573
   9.2931480  40.0005455  14.1000719   8.6295500  40.3790779  13.5233727
   9.2059412  39.0552406  13.9774818  60.9945831  17.3966408  69.1908340
  60.9110298  16.4634571  68.9948349  61.9362946  17.5374260  69.2887802
  73.3347015  31.2532177  68.2439804  72.7436829  30.5079231  68.1369095
  74.0431976  30.9198895  68.7945786  68.0161285  52.2705650  87.4025803
  68.4345627  51.6435356  86.8126831  67.1172867  51.9534721  87.4906998
  58.6251106  52.5230141   4.0918312  58.5277252  51.9554634   4.8564448
  58.8008118  53.3898621   4.4578066  58.6760330  28.2214851   5.7785320
  58.7862511  29.1585617   5.6173792  59.3125000  27.8023624   5.1993265
  38.8980408   1.3576021   1.9621235  38.4355507   0.8663424   1.2831547
  39.0614014   0.7155828   2.6530335  85.1109238  54.6746063  60.5723572
  84.9440002  55.5085487  60.1331406  85.1535034  54.0342026  59.8622131
  66.6578369  40.7581177  82.1241760  66.5676880  40.6389618  83.0696487
  66.7318497  39.8692780  81.7767334  81.9763260  23.8161831  12.6312332
  82.3751602  22.9570084  12.4934607  82.0079880  23.9457226  13.5790987
  71.6450195  42.3848572  65.1865845  72.5909271  42.4924698  65.0870590
  71.2791290  43.2303886  64.9268951  25.9880543  66.5704727  87.3367157
  25.9855919  66.2068481  86.4512787  25.3156147  66.0728073  87.8018875
  41.7044334  63.4239960  12.6541262  41.8365326  63.0411568  11.7868214
  42.2493057  62.8936348  13.2355585  81.0892029  15.8721504  19.3554802
  80.9842377  14.9271841  19.2447910  80.6899033  16.2508564  18.5723019
  80.7510529  40.5774536  68.9649429  80.4468002  39.7285309  68.6440125
  80.9928894  41.0597458  68.1742783  44.0624771  46.3391724  20.8280849
  44.9206696  45.9395218  20.6866112  43.8099022  46.0590286  21.7078323
  21.8826656  53.4505920  75.9986420  22.6409740  53.7580605  75.5019913
  22.1820755  52.6439171  76.4179993  71.8663635  59.7552452  17.4276581
  71.0037231  59.8891029  17.8202839  71.7042313  59.7645569  16.4843369
  18.5054379  47.6099510  63.2224693  18.8686695  48.4216385  63.5766678
  17.7601662  47.8923492  62.6923256  56.9254951  33.9612617   5.8610244
  56.7521935  33.0476418   5.6340985  56.6804352  34.0294800   6.7838044
   5.3207936  36.9985733  10.4875278   5.8178792  37.5884247   9.9207697
   5.9476662  36.7250633  11.1571951  81.1831055  10.0359392   0.9092803
  81.4290009  10.0580139  -0.0155331  81.2825317   9.1179934   1.1617070
  50.4804230  65.9931870  49.4913826  49.8423157  66.2984619  50.1362572
  50.8855438  65.2277527  49.8990784  71.2014008  30.9888783  87.6459427
  70.4340515  30.4485664  87.8342896  71.3732147  31.4544945  88.4644241
  35.6852379  55.1553001  39.0472031  35.1630707  55.9001732  38.7493095
  36.1921082  54.8952179  38.2780037  50.6836014  24.3511868  63.0673065
  50.3514557  23.6055050  63.5671730  49.9121971  24.7060432  62.6254463
  69.7295685   0.4098760  80.1094131  69.3479004  -0.4676871  80.0884094
  69.9583359   0.5934391  79.1982651   2.3130960  53.7280464  24.1175365
   1.9090439  53.4150467  24.9268608   2.7883866  54.5174141  24.3768291
  41.2264557  29.1723595  -0.2684833  40.6482849  29.5226059   0.4092179
  42.0859528  29.5406151  -0.0638285  52.0734901  71.1035919  87.4632416
  51.7946396  70.3641586  86.9231339  51.2593536  71.5481567  87.6994171
   7.7951522   8.4326181  64.0598602   7.1949463   7.7733173  64.4081497
   7.6881618   8.3761444  63.1103325   4.7934432   7.0818954  60.9173660
   4.1074901   6.4374385  61.0916519   4.3874378   7.9246497  61.1202393
  26.4578629  54.6086426  25.4479637  27.1673012  54.6452942  26.0895119
  26.8989716  54.4621162  24.6111927  26.6756439  31.8525715  55.2864189
  27.1339169  31.0745506  54.9687729  25.7718048  31.5635662  55.4120560
  34.9936371  31.8141384  11.1643982  35.7644768  31.3709450  11.5188246
  34.6176071  31.1850395  10.5487156  46.6202888  46.3165970  86.2298660
  47.5161819  46.2472267  85.9000244  46.0705605  46.2184944  85.4524307
  80.0212479  36.3977623  21.1193256  79.8526611  36.9378586  21.8914070
  80.9308090  36.1163063  21.2178783   3.6371281  44.1775932  15.3013725
   3.5397258  44.3052216  16.2450123   2.9948893  44.7709351  14.9118776
  23.8450661  42.7452583  27.4926662  24.6926403  42.4135475  27.1963215
  24.0459785  43.2401085  28.2870159  37.7360840  56.1864586  83.2774277
  36.8254929  56.1764946  83.5723190  37.8337975  55.3779869  82.7743835
  75.4760513   3.7623053   5.1652985  76.2418442   4.3364463   5.1528478
  75.6887283   3.0658500   4.5440497  32.6870155  26.4873123  12.6322899
  33.0853844  27.1670704  13.1758556  33.4298096  26.0287590  12.2395859
  17.6986847  31.8136559  80.1837769  18.0710869  32.5894814  80.6028748
  17.4660740  32.1058922  79.3024597  35.5682411  37.7630920   2.9864874
  34.7463036  38.1496239   2.6844265  35.5571175  36.8724289   2.6360128
   8.8062859  15.0396605  62.8136826   9.3605185  15.2196045  63.5730782
   8.0437441  14.5880270  63.1753311  55.5700493  31.2569332  33.7261620
  55.5331268  31.3828449  34.6743279  54.8057556  30.7164001  33.5263863
  79.3581543  43.2278366  55.4875984  79.8410187  43.1138916  56.3061905
  79.0114670  42.3575783  55.2908974  19.3756523  44.5711975  30.3770638
  19.1835613  43.9366913  29.6866035  19.9532509  44.1022758  30.9793320
  20.8083820  13.9604893  81.1102829  21.7368507  13.9116163  81.3378448
  20.3744602  13.3989305  81.7526169  48.6987648  53.2563248  40.2780418
  49.1419945  53.3991852  39.4417572  48.2794876  52.4010086  40.1838570
  70.8670425  64.4937057  27.8374863  71.1319046  64.0396729  27.0375290
  70.0854568  64.9857635  27.5860195   6.6172204  55.0450172  72.9509048
   6.7740273  54.2685280  72.4135895   7.2076740  54.9429817  73.6973495
  80.7774811  38.5096550  71.5843735  79.9149475  38.6786270  71.2052765
  81.3498611  38.3786621  70.8284302  63.4977303  37.0648499   2.5816820
  62.5530701  36.9224358   2.6414230  63.7255974  37.5063896   3.3998194
  80.1065292  14.0312967  23.8399258  80.7480545  14.5397167  24.3360939
  80.5393295  13.1932106  23.6770515  42.9469032  56.7780151  88.8604126
  42.6542320  56.0451088  88.3187256  42.1453514  57.1152573  89.2604294
  17.6423645   9.3930578  72.2015991  17.5493984   8.4806604  72.4756775
  18.1225986   9.8102522  72.9168243  53.3949547  67.7912674  44.8805847
  53.4010048  68.3850021  45.6313629  54.2931747  67.4649887  44.8260117
  41.6883469  16.6931667  10.5984821  41.1369095  15.9563122  10.3354330
  41.3952789  16.9074440  11.4841614  23.6716537  45.0959129  63.6046753
  22.9279995  45.5797806  63.9639549  23.8655052  45.5349693  62.7764969
  10.3191414  41.4697037  41.7695236   9.9832516  41.3454285  40.8818512
  11.1873655  41.8531799  41.6455803  53.9180069   0.9918780  86.0453949
  53.0238953   0.6780546  86.1807098  54.3879623   0.7239771  86.8350830
  51.6913033  13.7676954  38.9204674  50.9878082  13.2386818  39.2965927
  52.3984642  13.7179737  39.5636559  25.8961201  22.9477921  31.2763462
  25.9418182  22.6549244  30.3661976  25.0247078  22.6820183  31.5700073
  22.9390373  46.0581017  68.1798859  23.0538654  45.5633354  68.9912186
  23.1694565  45.4390068  67.4871674  18.1930027  56.6621857  54.8126678
  18.0382080  56.7201576  53.8698463  17.9496536  57.5247498  55.1488228
   1.1060661   4.3187137  86.8818970   1.8527273   4.4947314  86.3094025
   1.4038332   4.5836463  87.7521667  34.9568291   0.6127294  72.4710999
  35.6424141   0.0612330  72.0942001  34.2592201   0.0007883  72.7058411
  68.8439560  50.1011391  39.4283562  68.1319504  49.4666939  39.5105476
  69.1763611  50.2049599  40.3199654  27.3673286  16.8727818  76.6137085
  26.7872334  16.2403469  76.1897430  27.8936653  17.2314968  75.8992004
  60.2106667  26.0904140   8.4030552  60.4029388  25.7764645   9.2866268
  59.2900467  25.8677483   8.2648048   9.5058012  32.2803001   3.5493584
   9.2270374  31.4080410   3.2706392  10.3986073  32.1550369   3.8709762
  85.6569443  11.1648493  19.4574070  86.3111267  11.8345289  19.2578735
  85.7514801  10.5210056  18.7554379  72.2019424  35.9716263  19.9215717
  72.3621445  36.9128609  19.8534279  72.3817978  35.7638245  20.8384705
  81.7941742  19.3947468  22.5445232  81.3921280  19.0510330  21.7467442
  81.7056427  18.6860714  23.1818390  70.0139847  15.1592302  48.9624252
  70.1172562  16.0937290  48.7827606  69.0727615  15.0030766  48.8852463
  23.4744377  38.5900154  67.1216660  24.2550316  38.9724312  66.7208328
  23.6076221  37.6447525  67.0511627  85.3784561  14.9269295  59.0845757
  85.2522736  14.4013271  59.8745461  86.3232574  15.0749884  59.0437851
  10.4333191  69.2945633   7.6823401  10.5666790  68.4466324   7.2587113
   9.8312149  69.1100922   8.4032221  65.8837204  67.0828247   0.6163089
  65.1335220  66.7897720   1.1335632  65.5192108  67.2722855  -0.2482533
  71.8571777   5.3162537  67.9990311  71.5372849   4.7467360  67.2993546
  72.7122955   4.9538589  68.2307205  67.3183517  17.9008732  65.9269485
  66.5397720  18.0435085  66.4651947  67.8851700  18.6468048  66.1232452
  33.3229599  44.0587387  76.8940659  32.8180161  43.2460289  76.9217148
  33.9003334  44.0080261  77.6558380  20.7975845  12.8025322  25.7445221
  20.6240520  13.3069963  26.5392761  20.8347549  11.8932676  26.0413208
   1.6000520  19.9211636   4.2646055   2.0278509  20.7754574   4.3229308
   1.3040203  19.8630638   3.3561885  86.7441559  53.8331337  29.6560555
  86.8279648  54.7856216  29.6116486  86.3928833  53.5834961  28.8013496
  22.6589718  25.3849144  71.5676041  22.7076206  25.3768044  72.5235291
  22.4250393  26.2865715  71.3473282  83.0822372  50.5743980  37.5366936
  82.8201904  49.8492241  38.1038666  82.3883743  51.2250290  37.6437721
  62.6186714  22.3897018  18.3929443  61.8808861  21.9106960  18.0155087
  62.7416725  21.9976578  19.2574692  20.8496494  40.1050606  31.4426975
  21.7265854  40.4536095  31.6031094  20.5583954  39.7868309  32.2971764
   7.2584176  69.0156326  21.9101048   7.4764776  69.8585587  22.3077927
   7.2806473  69.1824646  20.9678173  30.1935883  33.2003937  78.1906357
  29.6433105  33.6305885  78.8451233  30.9513454  33.7778320  78.0979004
  60.5489655  63.8078728   4.4216447  61.3626900  63.6539726   4.9016476
  60.6704826  63.3484764   3.5907278  43.6727753  38.1114807  44.5718651
  43.2643166  38.2670593  43.7202873  44.6062889  38.2591705  44.4203110
  58.8697281  22.5772839  44.2643776  59.5905304  23.2071056  44.2650986
  58.5103455  22.6235600  45.1503410  49.8037758  63.5802040  19.3811722
  49.4169273  63.4040108  20.2388058  49.6297836  62.7881432  18.8726463
  84.8534393   6.4342322  50.2621841  84.2559891   5.8379297  49.8108444
  85.7168884   6.0355182  50.1539421  40.1520081   9.2160597  20.0912743
  39.8492851   8.4412813  20.5648861  39.9400673   9.9485006  20.6699314
  32.0514145   7.7794461  39.1468391  32.5617409   8.2354555  38.4776192
  32.3643074   8.1424999  39.9754066  45.8318291   1.4085212   3.1812088
  45.3672333   2.0360415   3.7349236  45.6829720   1.7205673   2.2886283
  54.9732323  63.4983788  66.3472595  55.0994987  64.3529282  66.7596207
  54.0958824  63.2286835  66.6188278  65.2095413  49.8113632  62.1338539
  64.8467026  50.4548874  61.5251999  65.1429977  50.2295227  62.9923096
   9.9102564  57.6264839  70.1319504  10.6266699  57.9046402  70.7025757
  10.1741838  57.9149017  69.2582245  22.0085278   6.0720282  11.1865816
  21.0873528   6.1235662  10.9316072  22.3086452   5.2349920  10.8322763
  65.9270096  48.4564629  66.1138458  66.5804367  49.1061058  66.3731232
  65.3584595  48.9206467  65.4994202  73.9661026  65.4252548  43.3795090
  74.0456161  66.3423080  43.6420364  73.2117233  65.1000214  43.8708000
  13.5692406  19.4542866  10.8229666  14.4741650  19.7366562  10.6902590
  13.2523670  19.2449322   9.9443359  13.9424143  51.1698647  55.8005180
  14.1163492  50.4844513  56.4456482  13.9583454  51.9831963  56.3049660
  56.9654121   0.5414003  85.3322601  56.5882492   0.1081217  86.0979309
  57.2307053   1.4038880  85.6515884  66.8328476  53.0292053  63.0675964
  65.9327164  52.7213974  63.1736679  66.7476425  53.9700432  62.9133492
  26.2698746   9.0965252  85.1078491  26.3745232   9.5097551  85.9648895
  26.5363541   9.7706795  84.4827576   2.2279861  65.1196671   5.3261991
   2.9621408  64.9389954   5.9132323   1.8716109  65.9517441   5.6374331
  15.8322210  11.5415630  16.6693935  16.5399227  11.9680567  17.1526051
  16.0591507  10.6117554  16.6832523  31.7443657  19.8843670  74.3919601
  31.6024570  19.5343552  73.5124207  31.0390873  20.5200195  74.5134506
  12.8479176  61.5871277  78.8771210  12.1682558  61.8866539  78.2733231
  13.3441763  62.3774033  79.0902405  58.7891541  11.4816685  64.8049850
  57.9653587  11.8490553  65.1253204  59.0032654  10.7909336  65.4320984
   7.8909359  55.5448227  67.3571548   7.1867104  54.9939613  67.0153198
   8.5405598  54.9248505  67.6885986  56.4874420  46.9653091  69.6907043
  57.1487541  47.4663391  70.1680603  55.6548729  47.2419128  70.0735245
  65.7855377  71.2595367  25.5347157  65.9691696  70.3345947  25.3703976
  66.1466980  71.7142868  24.7737980  10.7392225  63.6474419  59.2076683
   9.9555960  63.2368240  59.5731201  10.4904509  64.5621262  59.0746307
  17.5705242  28.2311630  16.3428745  18.3342648  28.7743263  16.5375729
  16.8275700  28.7342224  16.6763134  63.6936798  57.1943398  12.3923693
  64.6423035  57.0693779  12.4195004  63.5567360  58.0686188  12.7572174
  24.5127659  53.3847580  42.2304726  23.8140106  52.7334785  42.2921524
  25.2997799  52.9191933  42.5134773  38.2333603  48.3454742  75.4412766
  38.9311523  47.9068756  74.9544983  37.4248466  48.0298653  75.0376282
  43.7475548  68.6466599   2.6814070  42.8837395  68.9239120   2.3761399
  43.5785751  68.2158432   3.5193067  14.4671011  54.5340042  37.0515099
  15.4071922  54.4772720  37.2225151  14.2993145  53.8477974  36.4055977
  20.7241840  61.6898270  51.5859985  21.6415100  61.6732750  51.3131027
  20.5780792  60.8330193  51.9869499  56.5180435  28.7697392  82.5573578
  55.8789253  28.1371746  82.8854141  57.3468590  28.2909451  82.5499878
  12.0530167  14.4216089  63.6404381  11.8487940  15.1472330  64.2303467
  12.8380451  14.7067528  63.1728325  51.2023849   5.4316163  60.5493507
  50.8495140   5.8336186  59.7555580  51.9905777   5.9384789  60.7444763
  85.1031723  51.9054871  62.4887657  84.1805191  52.1553268  62.5389175
  85.4882889  52.5328979  61.8769913  53.0661774  55.1407776  66.2737808
  52.7561455  54.8086662  65.4312744  53.4094810  56.0121498  66.0760803
  36.2561569  67.8114014  63.0744286  35.4246788  68.1789474  63.3740807
  36.7595062  67.6723175  63.8766289  24.2704792  59.0350838   1.4801483
  24.2674618  59.1016388   0.5252696  23.5451546  59.5927849   1.7614062
  67.4090805  67.1553802  75.3071136  67.8993378  67.8065796  75.8089294
  67.2543335  66.4423676  75.9267044  80.6692886  43.9273987  53.3622284
  80.0738220  43.6462173  54.0569153  81.0554886  44.7388954  53.6917114
  62.8801079  40.7692375   3.4713826  62.7832222  40.4629440   2.5697002
  63.8185501  40.7021332   3.6476016  75.6146698  35.1681786  34.5321732
  75.7066193  35.3907051  35.4585953  76.2087402  34.4287720  34.4033470
  72.8965302  57.0703735  28.0332508  73.0078888  56.8402863  28.9556885
  73.7556763  57.3932800  27.7615376  37.0800552  50.3412399   7.7195859
  36.9467087  50.2454338   6.7765741  36.6341705  49.5857353   8.1025066
  34.5007057  52.9772415  16.9926224  33.7153244  52.4426918  16.8757324
  35.2234955  52.3957901  16.7565689  79.0729980  25.4326191   2.9774354
  78.5187073  24.9761219   2.3445027  78.7347412  25.1620560   3.8310227
  52.5776825  59.3154221   0.9371417  52.8607521  60.1013260   1.4045330
  52.1017609  58.8053436   1.5925449  49.0171013  21.0218658  75.0941925
  48.4152069  20.9761620  75.8370667  48.4593353  21.2381783  74.3469772
  69.5117798  17.5898514  76.9081268  69.1046295  17.3997478  77.7533035
  68.8175659  17.4348907  76.2675858  29.0918522   2.6056993   7.1015348
  28.5781784   3.3890369   7.2983942  29.0214558   2.0685465   7.8906755
  75.8781891  19.0306778  53.1200905  76.1548462  19.2374897  52.2273865
  75.6315155  18.1064224  53.0863419  62.2847366  62.3956642  67.6523972
  63.0442009  61.8189850  67.5694122  61.8438644  62.3345490  66.8049774
  32.8301468  44.5980148  42.0338860  33.2320633  45.1122093  41.3336754
  32.0577240  45.1027260  42.2885666  62.9311180  53.4699631  24.5991879
  62.0831909  53.1190033  24.3270149  63.4953041  53.3528748  23.8348465
  14.4671698  71.0577621  53.4250107  13.6955690  70.5778122  53.7258568
  14.7474966  71.5630875  54.1880989  43.4107666  70.8755112  76.3209763
  43.6690521  70.3423462  77.0728149  42.9394073  71.6158600  76.7029877
   3.0399678  60.5771484  19.5693226   2.2058635  60.2182922  19.2664604
   3.1083527  61.4259682  19.1322174  57.6000481  50.3163414  30.4259644
  56.8515472  50.6950264  30.8870182  57.6150932  49.4008560  30.7050629
  76.1081772  46.1980476  57.8672867  76.8063965  45.9864769  57.2476387
  76.1872177  45.5347061  58.5528221  54.3171425  10.0434523  25.3600483
  54.4214249  10.8827925  25.8082294  53.5506668   9.6452579  25.7725868
  60.8929977  28.5162411  72.7931671  61.6024284  28.1550102  73.3246307
  60.2014236  27.8558521  72.8360901  49.7365036  59.7326088  65.2545624
  48.9070129  59.7202072  64.7770462  50.1320915  58.8808250  65.0696182
   7.9995780  43.5684357  42.5916786   8.3258047  42.8262596  42.0827751
   8.0508690  43.2759247  43.5016441  64.0459137  23.7178726  67.7491760
  63.8878670  23.8431034  68.6848984  64.9368286  23.3711948  67.7010422
   4.3431330  31.5959167  28.1966648   4.5102019  31.1919327  29.0482025
   4.9699998  32.3175697  28.1468086  30.0129986  53.0019264  69.8379669
  29.9451103  52.0585022  69.9848480  30.8392544  53.1122284  69.3674622
  63.8586197  44.2938461  76.9239197  63.9875298  43.5570221  76.3266754
  62.9896240  44.6303062  76.7051239  52.4994049   1.9707435  23.7674274
  52.0711174   2.6760776  24.2525101  53.3669281   1.8987218  24.1654797
  44.4714622  64.8832016   5.6876168  44.8021660  64.3141632   4.9925890
  44.7291679  64.4451447   6.4987431  47.1741409  20.0985794  85.6298141
  47.8633080  20.1601143  84.9683838  46.5436172  19.4794788  85.2618637
  85.6223068  42.3253098  22.9733353  86.2465057  42.5223808  23.6717434
  86.1550140  41.9397888  22.2777557  38.3943748  43.8347855  30.9618149
  39.2149467  43.9362640  31.4440994  37.7509499  43.6002045  31.6305504
   2.2849534  25.2236748  24.5871964   1.4043109  24.8869820  24.4218502
   2.8058825  24.9037914  23.8506241  17.1637917  31.6360130  88.2541885
  16.4556274  30.9920692  88.2626419  16.7356796  32.4597855  88.0210571
  17.7140064  23.7428951  30.8876629  17.4282665  23.8800144  29.9844551
  16.9423275  23.3922272  31.3323841  56.7591858  23.0425129  69.7285767
  57.0704231  22.8474693  70.6125031  56.4821777  22.1952534  69.3797989
  10.8077097  65.4818573  75.3382721  10.8312349  64.7229996  74.7553329
  10.8117142  65.1074066  76.2191772  61.8194466  26.0452518  31.2099056
  62.1061897  25.9253082  32.1152382  62.4537582  25.5513649  30.6903343
   6.8438768  52.5001030  60.0090866   7.7258954  52.7814102  59.7658958
   6.2693439  52.9527054  59.3915939   4.9671793  70.7652893  36.3281937
   4.4130540  70.0021362  36.1645889   5.4120617  70.5660706  37.1519775
  77.0744705  19.6377907  10.8700418  77.9826889  19.7605648  10.5938215
  76.9747467  20.2136650  11.6281023  56.8352623  29.9039936  27.8903904
  56.4180756  29.1809692  28.3588200  57.4709892  29.4805317  27.3135338
  22.8446922  40.5865288  28.8426037  23.1676521  41.4454727  28.5703106
  22.8928185  40.6045265  29.7984238  39.2174568  60.7718353  23.9093819
  40.1363106  60.5511932  23.7568989  39.0211563  61.4442406  23.2570267
  70.7647781  52.1261177  26.8714218  70.5664139  52.0504341  25.9380646
  70.3927383  52.9700050  27.1276894  22.1303310   0.7356110  49.9149857
  22.7280426   0.6700178  49.1702232  21.3488998   1.1580914  49.5584679
  71.6903152  40.1602287  26.6534996  71.8037796  40.4152603  25.7379036
  70.8154907  39.7732620  26.6876926  47.9149933  70.1517639  15.5158806
  48.1167984  70.6143112  16.3292427  47.8173180  69.2365494  15.7787132
   8.2508545  28.5174255  76.4627914   9.0890760  28.0804119  76.6132507
   7.6363306  28.0612583  77.0376892  42.9399452  57.1953697  34.5123711
  42.5808830  56.5383224  35.1086884  42.6234055  58.0302887  34.8572578
  37.8788567   4.4263926   2.9084096  37.5803680   3.5949953   3.2770736
  38.5480957   4.7331452   3.5201724  13.3407869  38.5370255  55.8171844
  14.0227642  37.8782425  55.6862373  13.6479950  39.0551987  56.5610580
   3.6152925  45.2008057  73.1428833   2.9916778  44.6134453  72.7158661
   4.3904619  45.1759720  72.5818787   3.8158870  51.7915421  72.9115601
   4.1121440  51.3037338  72.1431122   3.6384704  52.6726112  72.5821991
  74.4433746  57.4949036  71.5475388  74.7704239  56.8951378  70.8770523
  74.6569519  57.0668068  72.3766022   8.5889435   2.9817703  17.8992748
   9.4194851   2.5442860  18.0864658   8.8330088   3.7453303  17.3761673
  48.9765015  64.7694397  43.3754807  49.6610870  65.4216690  43.2266045
  49.1472244  64.4401550  44.2578964  81.5176849  48.9145966  43.1515121
  80.8500900  49.4649849  43.5609245  82.0957718  48.6633873  43.8718872
   5.5253272  53.8865395  75.5102997   4.7781143  54.3757133  75.8547058
   5.2874088  53.6928101  74.6036072  76.8098373  70.1761703  74.3963852
  77.6535110  69.7776108  74.1828156  77.0171432  70.8352127  75.0588989
  29.6376324  17.6758728   9.3427105  29.0058060  17.1842499   9.8674326
  29.4418259  18.5938950   9.5301342  25.4459286  70.5932388  30.2358894
  25.2059288  70.1301880  31.0385189  25.5300636  69.9035339  29.5775089
  85.7273636  35.5417519  29.5086288  84.9876251  34.9577675  29.6759243
  85.4967880  35.9939194  28.6970787  39.7914925  54.9197578  69.1602554
  40.4875412  54.6261711  69.7480927  40.1505547  55.6977882  68.7336655
  64.6854401  60.2393913  30.1015224  65.5978088  59.9901581  29.9542236
  64.6814499  60.6275558  30.9764748  82.9077988  10.2785778  51.9439812
  82.5001678  10.4580240  51.0967102  82.6415558  11.0122995  52.4980545
  60.5540695  18.0830917   6.8380399  61.1560593  17.3472919   6.7265096
  60.7405319  18.6595516   6.0969877  69.1648712  51.5560646  68.5433121
  69.5968628  50.7871857  68.9153824  69.7468643  52.2850800  68.7579041
  42.7672157  65.8320770  31.3407326  43.4401817  66.5127563  31.3458271
  42.4775887  65.7884369  30.4294453  16.4817677  46.3749771  15.8188477
  17.2002754  46.0373611  15.2840643  15.6905918  46.1318092  15.3380775
   1.5894761  35.8751030  62.3725395   1.8353492  36.7843704  62.2022171
   1.8119074  35.7352295  63.2929688  31.2601986  57.6887970  14.3960657
  31.3125801  57.9447517  13.4752102  32.1566963  57.7754860  14.7201214
  42.8260841   9.3276539  70.9400024  43.5308952   8.8700447  71.3983383
  42.8053589  10.1971312  71.3397675  31.0318375  39.1406174  73.1798782
  30.8243713  38.3714104  73.7104568  31.1642799  38.7942467  72.2974319
  59.7033615  35.1337357   5.3325791  59.5878410  35.5662346   4.4865122
  58.8655167  34.7009468   5.4967132  22.6043854  43.2281647  84.6280289
  22.7690392  43.2473373  85.5707703  23.4282494  42.9241905  84.2471390
  49.1912079   7.2502961  54.5989494  48.5117912   7.9229093  54.5518646
  49.0497894   6.7120810  53.8201294  80.3426132  51.7005081  56.1358070
  80.5154572  51.7964821  55.1992493  80.0792313  50.7859764  56.2382774
  43.4418259  56.4410400  61.1388702  42.8201447  56.5627975  60.4212914
  44.1634674  55.9473152  60.7493858  76.6764603  52.5609856   0.3599279
  76.4355164  53.4433327   0.6421296  76.1748886  51.9809532   0.9328307
  16.3724632  49.2518387  82.9915009  16.4184189  50.2077408  82.9721451
  15.4457397  49.0538254  82.8565674  22.0260906  29.7353268  23.6052799
  21.5049973  30.2684383  24.2056847  21.5800190  29.8184719  22.7624626
  48.8080444  62.0283813  87.5206528  49.7400475  62.1036911  87.3158722
  48.4312325  62.8591652  87.2307434  52.0589981  47.7144318  82.0001907
  51.3368797  47.8452721  82.6147232  52.6136398  48.4861336  82.1145630
  74.2968369  26.8854198  32.5258102  75.1975555  26.6155071  32.3466606
  74.1974411  27.7141285  32.0571976   1.7163168  37.5957489  64.6505737
   0.8045754  37.5384521  64.9363708   1.6868685  38.1396599  63.8634758
  67.9275513  66.3668213  36.8441315  67.0286789  66.1596069  36.5885544
  68.3012466  65.5261536  37.1084480  18.3328228  27.9389420  13.6786213
  18.6851692  28.8284473  13.6492310  18.1495285  27.7844276  14.6053143
  67.1784286  13.5912819  26.0233765  67.8111725  13.4408131  25.3210754
  66.7135315  14.3857203  25.7607555  16.7636318  15.2636757  18.3390675
  17.7107143  15.2098827  18.4670219  16.4351463  14.4094868  18.6195869
  55.2284393  32.5776825  67.4628143  54.4160652  33.0743103  67.5610046
  55.9186249  33.2405205  67.4856415  23.1048489  41.7574997   8.2542324
  22.6458416  42.3896065   7.7010741  22.4088268  41.3124428   8.7376690
  25.8298149  64.1619720  22.6181145  25.9241352  63.2422714  22.8660679
  26.3499012  64.2492218  21.8192844  48.9768486  66.0895157  34.5806427
  48.3080673  66.1535339  33.8988304  48.5100517  65.7462387  35.3425407
  72.9843445  42.9706268  83.1345825  72.2273636  43.0516777  82.5543823
  73.6896591  42.6611214  82.5662766  38.6873589  69.7326889  60.0772743
  38.3975258  70.4897537  59.5682678  39.6084175  69.9105148  60.2677002
  14.4142075  15.3565493  65.5454788  14.6751747  14.6306906  66.1122742
  14.4652224  14.9986534  64.6591721  24.2087269  12.0403137  71.7658157
  23.7677689  12.8729725  71.5970993  24.3591614  11.6685352  70.8966904
   8.7502069  34.6031303  26.0252972   8.6191444  34.7720566  25.0922813
   8.6370277  33.6569443  26.1156044  15.0642624  30.6737442  22.0450954
  15.4027014  30.0778484  22.7133770  15.1962061  31.5471001  22.4139709
  66.6310196  58.0063362   0.0793195  65.8767395  58.2186699  -0.4704157
  66.2907486  57.3853455   0.7233832  68.0542984  28.8050594  39.9051857
  67.6314240  29.2849350  39.1930580  67.4604416  28.0772896  40.0893517
   3.7263682  50.0553131  51.4240646   4.2203083  50.6695404  50.8809433
   2.8587816  50.0233002  51.0209503  23.1207047  70.4737473  37.1953392
  23.6128750  71.2143555  37.5496063  22.2061272  70.6793137  37.3890495
  30.3043652  70.1387863  85.6889954  30.9187279  70.8648071  85.7970657
  29.6176052  70.4886322  85.1213760  71.1950226  18.7736568  86.2455902
  70.3447037  18.3437786  86.3372421  71.5666428  18.4013882  85.4458694
  69.7814636  45.4299011  83.5057144  69.0412979  45.7630539  84.0130539
  70.0265198  44.6159706  83.9458237  74.8714600  42.2853737  37.1665230
  74.2397766  42.3198967  37.8848648  75.3629456  43.1034431  37.2402496
  76.2638321  22.9311028  16.5264988  75.8904190  22.2234497  17.0518761
  76.4609299  23.6212540  17.1598053  69.9699173  22.7473698  83.4839478
  69.3693619  22.8210793  84.2256622  69.5751648  23.2899685  82.8013153
  41.6708832  61.5060120  10.4861593  41.3553619  61.8928490   9.6694365
  41.5863190  60.5619812  10.3524008  45.5588341  54.4527359  27.2628040
  46.4105339  54.1083183  27.5315418  45.0964355  54.6162987  28.0847931
  84.1310349  58.6677094  56.5640793  84.8084259  58.2495689  56.0325394
  84.3018188  59.6053696  56.4754219  81.9825821  57.6316071  82.7517471
  81.3327103  58.1732674  82.3039703  81.6188202  56.7467422  82.7212830
  35.0943336  62.9776993  72.1771164  34.9494743  62.9110107  71.2332916
  35.9798203  62.6385880  72.3080750  52.9927902  70.8337708  62.5301247
  52.5514069  70.7344513  63.3736572  53.2750702  69.9481125  62.3017616
  68.8927307  65.1234741  56.0149727  69.1552353  65.4113464  55.1406403
  68.4137039  64.3084412  55.8650246  42.5936813  47.0884018  35.5528793
  42.9834023  46.7993736  36.3779907  41.6649132  46.8731613  35.6383095
  32.3477135  65.6321793  42.0768471  32.3213463  64.8449402  41.5329819
  33.1721344  65.5631790  42.5583038  58.2102089   0.5967050  15.0639048
  57.9055405  -0.2986741  14.9165745  57.4410324   1.1417676  14.8980570
  22.5345535  38.7932091  15.4607306  22.9461613  38.5733795  14.6249771
  22.1441574  39.6551247  15.3160639  72.2845383  45.5759544  32.4400177
  71.8958893  44.9436989  33.0445290  72.3983765  45.0885086  31.6241341
   5.5639672  61.2213898  54.8477669   6.2905402  60.9198647  55.3931122
   5.5638151  62.1727257  54.9535713  11.2559834  59.9415741  88.5050201
  11.6948423  59.9562683  87.6544800  11.0839100  59.0144920  88.6697617
  70.3249435  42.7855835  73.2541962  69.9187469  41.9909096  72.9081802
  71.2651901  42.6375999  73.1528625  57.0758934  56.3222313  18.9967518
  57.2831039  57.2567215  18.9919720  56.5671349  56.1856232  18.1975441
  62.2816963   2.5085416  46.1590576  62.7322121   2.4213924  45.3190155
  62.8374939   3.0979276  46.6689072  48.4483833  39.1539192  64.9932175
  48.0103455  39.5410538  65.7511673  49.0160751  39.8503342  64.6631241
  46.0074959  46.4532814  72.2463074  45.8281708  47.3935204  72.2513199
  46.7232018  46.3492928  71.6192627  53.8280678  69.4945221  81.0861740
  54.6335907  69.9494858  80.8404694  53.1689873  70.1865845  81.1399765
  58.3522835  60.9040871  27.0497856  58.7365227  61.6035728  27.5782871
  57.5040741  60.7330284  27.4590702  82.4134445  15.1144934  28.1473827
  82.0346603  15.4793339  28.9471645  83.1808319  14.6268482  28.4466209
  75.6634521  55.8508415  73.3498383  76.4251251  56.1708183  73.8332748
  75.9228668  54.9825554  73.0415955  44.5785370  67.7825241  51.4894981
  44.2756424  67.8962326  52.3903618  44.4521179  68.6404266  51.0842171
  10.5241947  55.4359360   1.5553769  10.4195910  56.3873863   1.5611627
   9.8473711  55.1169357   2.1523533  27.5120506  34.6871185  16.2737770
  26.8844662  34.7064362  16.9962692  27.5715637  33.7626457  16.0328693
  74.1754456  53.0028496  27.9753761  73.9069214  52.4913940  28.7386208
  75.1202011  52.8621445  27.9130917  49.1089363   6.8074269  80.4233856
  48.9759865   7.1965432  81.2877579  49.7758827   7.3578448  80.0129547
  10.3376493  44.6413651  82.3987274   9.7190037  44.7476349  83.1213684
  10.3616171  43.6975899  82.2407837  65.3358688  39.9603729   6.6293015
  66.0939941  39.8515854   7.2034507  65.4760895  40.8069839   6.2052526
   3.2649751  29.9351444  24.5696411   3.6433887  30.5883408  23.9811115
   3.6682563  29.1093464  24.3019581  67.8391953  22.3654671  63.8077660
  67.7988052  22.8598633  62.9891243  68.1821671  22.9892960  64.4476395
   3.2022710  41.4016418  53.9110680   3.4400418  42.1106834  54.5085258
   3.1149018  40.6328087  54.4745369  54.5420532  40.3796387  28.7999878
  54.1659775  39.7849426  29.4489384  55.4649734  40.1301575  28.7529297
  54.7176933  36.1655121  53.3503494  55.0281067  35.3689880  53.7809563
  54.9998360  36.8752251  53.9273567  23.4479752   9.7073584  80.7740021
  23.0952168  10.2931633  80.1042099  23.6634979  10.2839260  81.5070496
  35.6616096  17.2622242   0.6105554  35.2537270  17.0451393  -0.2277398
  34.9442635  17.6031933   1.1447729  78.2774658  25.3559532  58.3943825
  78.3271713  26.1028118  57.7977562  79.0522003  24.8328876  58.1884155
   6.3622646  40.1344566  86.8452911   6.8872085  39.3531609  86.6713791
   6.0653381  40.4206657  85.9814835   2.9996157  29.3010521  45.1854858
   2.6633091  29.0984936  46.0584679   3.2604785  30.2205944  45.2367249
  85.2901993  24.5614376  55.5634308  84.3515549  24.7078114  55.4461479
  85.4337692  23.6673203  55.2533035  76.8613129  43.3204002  78.8790512
  76.5643845  42.4194107  78.7514420  77.7397232  43.2329483  79.2491608
  33.9993935  22.5829029  74.1424103  33.7037811  22.4648285  73.2396851
  33.8454552  23.5097198  74.3255539  29.0452099   1.7269090  11.7159815
  29.1721992   1.6319638  12.6599569  29.8779888   2.0737555  11.3959684
   9.1195698  66.4983292  72.8073730   9.4312162  65.6334915  73.0741425
   8.8591480  66.3875122  71.8929672  82.3842239  16.0084934  83.2652512
  83.2594833  16.3208561  83.4945526  82.4864502  15.6286983  82.3925934
  47.0939941   1.4701053  24.1662140  46.2750778   1.4428617  23.6713734
  47.2414398   2.4008307  24.3342686  82.9473038  21.8959923  30.1702957
  83.1934204  22.2506943  29.3159866  82.1014328  22.3005009  30.3629189
  14.0511837  64.5563507   4.4277887  14.4294090  64.1709290   5.2181258
  13.1060076  64.4563828   4.5412865  76.3277588  60.5190468  50.5230370
  75.4224319  60.5616951  50.2151451  76.7482605  61.2877693  50.1376991
  21.4476433  29.6787701  11.6036682  21.8707047  29.9684219  10.7953663
  20.5176258  29.6290112  11.3827038  30.7609062  52.2959175  74.1881866
  30.4613590  51.4264679  73.9225616  30.0501766  52.8831215  73.9307251
  46.6062622  70.2786865  18.1593971  45.9215546  69.7472839  17.7531700
  46.2611160  71.1712341  18.1379318  31.5258904  66.7248535  61.3150787
  31.1283703  67.5870438  61.4369011  32.4292297  66.9115677  61.0594330
  23.7158489  37.7344513  82.3298264  23.5085487  37.4682922  83.2256088
  24.1459503  36.9701347  81.9463348  54.2990417  69.4750595  27.9163837
  53.5538979  69.7084885  28.4700089  54.0650520  68.6239014  27.5462284
  72.6910324  47.8798561  10.4582186  72.3496475  48.1193352  11.3198099
  72.9023972  48.7162132  10.0434122  69.5288544  19.5346012   5.8083777
  68.9615479  19.8610058   6.5068426  69.1272125  18.7081966   5.5401082
  46.4825897  19.7772331  15.2200594  45.6638298  19.3226490  15.0220327
  46.3849258  20.6363487  14.8094330  22.7886524  38.4060669  18.2194901
  22.6276188  38.5463829  17.2864246  23.6321907  37.9548073  18.2517548
  48.4163971  30.1914730  18.9644985  48.3473549  29.4026375  19.5022736
  47.5229340  30.5324841  18.9236889  35.8432693  45.5455132  23.9848728
  36.1193542  46.4518738  23.8487835  36.3026466  45.0507545  23.3063335
  34.8379173  62.6947479  40.1835175  34.0187073  63.0983543  39.8967590
  34.7291870  62.5764503  41.1271362  76.2327347  45.9130554  88.7766647
  76.5417633  46.0337715  87.8788071  75.2786102  45.8975563  88.7015305
  75.4766693  59.3738594  34.5916367  75.9200821  59.9201279  35.2406425
  74.6354599  59.1584816  34.9944000  40.5640526  57.0873947  51.3707085
  39.8740463  56.5358887  51.0019760  41.3583336  56.8175888  50.9096756
  54.0761566  59.3669434  51.3967171  55.0039978  59.3271179  51.6285706
  53.9531937  58.6482697  50.7765388  67.3394470  62.6107941  56.0584908
  66.8640747  62.8482628  56.8546448  66.6679535  62.5867500  55.3767624
  24.2390671  21.6740704  14.8714914  24.0885601  21.4037971  15.7773228
  23.3884869  21.9961758  14.5731764  16.4680729  56.5991554  62.8414574
  17.0683575  56.1862755  62.2206345  16.6620865  57.5342331  62.7764587
  80.4804993  71.6160583  34.5425873  80.8578720  71.3052597  33.7196541
  79.5439911  71.4363251  34.4596024   0.3964809  53.6416168  75.2944489
  -0.0989129  53.8397293  76.0891571   0.8273605  52.8078041  75.4824142
  72.5774002  60.5341415  57.1567307  73.2160187  60.3946190  56.4574966
  72.5181046  61.4858170  57.2405586  67.5802917  33.2529526  83.2982941
  68.3620148  32.9729156  83.7744446  67.0449066  32.4623604  83.2308044
  53.0394630  56.9487762  61.5209084  53.4526520  56.1423531  61.8294258
  52.9598656  56.8301849  60.5744247  11.9752140   0.5144823  59.3471336
  11.6783895   1.3173783  58.9187813  11.6637955   0.5947986  60.2486877
   6.5113506  39.8318100  12.7647076   6.1060228  40.2294464  13.5353088
   6.1611209  40.3297501  12.0260410  54.0952797  69.5287781  13.0415688
  53.6421089  68.7154617  13.2638083  53.5254669  70.2201996  13.3784342
  29.9611950  27.6241436  82.5592499  30.7810974  27.1611080  82.3872375
  30.0456657  27.9338493  83.4610138  26.0783348  61.8037605  79.1391068
  25.3449898  61.1887817  79.1238251  26.5715961  61.5688286  79.9250641
  60.4060059  35.7228050  67.1533966  59.9349098  36.1637421  67.8604126
  60.2941818  34.7899437  67.3364029  56.7739029  32.0795326   0.7260208
  57.6142235  31.6446667   0.5811560  56.3860130  32.1478043  -0.1463958
  75.0611725  60.1725464  54.9825859  74.8742447  60.8761902  54.3611565
  75.4622498  59.4844131  54.4516945  55.6499557   3.1190574  14.8011036
  55.2599525   2.3448339  15.2069435  54.9085693   3.5876782  14.4177332
  40.1056366  67.6682281  41.4555397  40.9917641  67.3379669  41.6036530
  39.7848740  67.1658554  40.7065582  48.6439247  37.5853653  19.9983025
  48.7250748  37.8876686  19.0937252  49.3777351  37.9966507  20.4550285
  77.7040253  12.2882500  31.6391964  77.2126846  13.1088762  31.6764622
  78.5024414  12.5087013  31.1594334  41.9147224  52.2907753  56.2634964
  41.4701996  52.0582390  57.0787010  42.7269592  52.7116508  56.5452232
  83.2978516  44.2772026  11.7565947  84.0480804  43.6916771  11.8593264
  82.5623016  43.7918625  12.1302776   2.9048917   4.9027762  21.1638260
   2.1461430   4.5700731  20.6844082   3.6438746   4.7580872  20.5728931
  86.8485413  53.5680923  72.4988251  87.0323257  53.6510582  73.4345474
  85.8938828  53.5235405  72.4452667  55.3611755  20.1321392  34.6446419
  54.8769913  19.3587265  34.3554535  55.6036949  19.9381886  35.5500717
  19.3869343  64.1334381  30.2380066  19.3989182  63.6769485  29.3967533
  19.4642010  63.4366455  30.8897305   1.3643900  19.1228943  65.0855408
   1.9295114  18.5361614  64.5829315   1.0158433  19.7339649  64.4364319
  70.9298477  59.8915672  79.0480194  70.6600266  59.5266304  79.8907776
  70.2599411  59.5937881  78.4325562  45.4030228  21.3710346   1.2880784
  45.9083595  21.0123825   0.5585336  46.0308228  21.9053230   1.7745290
  49.8989258  67.3619232  42.7836761  49.5139275  67.6755524  43.6019974
  50.5825500  68.0003586  42.5804596  60.0640869   9.8628817  79.5521469
  60.7523613  10.4650059  79.8349152  60.2019920   9.0765114  80.0802002
  58.4104691  37.3544998  76.9109879  57.7487221  36.9111900  77.4418335
  58.1901894  38.2834320  76.9802628  66.4632339  32.3227005   1.5540627
  66.3072739  33.2589378   1.6780139  67.3012009  32.1600761   1.9871801
   2.0942376   6.9203901  25.4669170   1.4544207   7.6274171  25.5504589
   2.9091702   7.2939510  25.8024292  47.8621979   5.6321077  68.6957779
  47.9966621   4.9414115  68.0468597  47.2978630   6.2677197  68.2555923
  68.7832947  45.8986855  62.5137596  67.8994598  46.2564888  62.4298248
  68.6751938  45.1185150  63.0577126  70.1774979  35.9682999   8.8383646
  70.4952164  36.6353378   9.4469252  69.2268219  35.9758759   8.9496622
  22.9168949  70.5431595  26.1850452  22.7763557  70.3232498  27.1059799
  22.0357494  70.6562653  25.8286438  19.4571495  54.5666389  76.0691605
  20.3259754  54.1691513  76.0110397  18.8533115  53.8542671  75.8590622
  79.7654877  20.7751217  58.0527992  80.2038727  21.3386974  57.4152832
  80.2549438  20.9062138  58.8648834  28.4125938  50.4979897   8.5527077
  29.0220280  51.2074471   8.7563934  27.5472317  50.9041939   8.6014786
  74.6051941  58.9338379  85.1871719  75.2120667  58.9223900  85.9273071
  74.7940521  59.7562447  84.7352829  30.0271416  24.7310867  81.5035706
  29.4428158  25.4128532  81.1719208  30.8432350  24.8590221  81.0199890
  14.6890974  13.7468910  76.7734909  15.0531044  13.9890518  77.6250153
  13.8094521  14.1243238  76.7729492  17.8335457  49.2697372  43.9698753
  17.2347603  48.5666771  44.2216568  17.3488884  49.7747879  43.3169861
  45.2424240   3.3704717  52.2119331  44.6889725   3.3703721  51.4309578
  44.8043327   3.9701102  52.8158722  48.9212265  32.8632545  28.2740879
  48.3035851  32.4571457  28.8822174  49.1848145  33.6752319  28.7070389
  66.4321976   5.5722160  11.4372292  67.1977615   5.7995729  11.9649143
  65.8047562   6.2739706  11.6106968  76.6879272  54.4706917  67.8826675
  76.5297852  54.0078201  67.0598831  77.6409683  54.4837494  67.9707870
  49.0968132   7.3982463  46.3741379  49.8609428   7.0474315  46.8316002
  49.2984314   7.2804294  45.4458580  50.9609718  60.0670280  19.9239178
  50.7008743  59.5085716  20.6565247  50.3456993  60.7997856  19.9511127
  69.2084122  53.5057030  37.1438332  69.5781250  54.3331108  36.8357048
  68.9919205  53.0273132  36.3435211  62.2267456  29.5553741  37.6391754
  61.7440529  30.1397800  37.0546188  61.9968185  28.6752338  37.3413200
  65.9669952  29.2966270  68.6558762  66.1270142  29.7224636  67.8136826
  66.8396912  29.1584148  69.0240173  60.8527260  15.5124121  55.8995171
  60.1741180  15.4354391  55.2288437  61.6184120  15.8416557  55.4288216
  34.7714348  58.3289032  73.1448746  35.5393486  58.1737213  73.6948395
  34.5985985  57.4834023  72.7307663  55.8073959  37.4249687   8.5900841
  56.6324005  37.9004898   8.6874466  55.1370277  38.0488625   8.8686514
   9.9498444  31.2529545  61.0731239   9.0099735  31.0756454  61.1110153
  10.0754671  32.0040054  61.6530991  35.6273804  67.1292343  15.2277937
  36.4642448  66.6812210  15.1046000  35.4053879  67.4650879  14.3593731
  59.4303474  22.4614124  29.1408672  59.5534630  22.9691219  29.9429302
  60.2277832  21.9375210  29.0642529  55.5895996  58.1289787  38.6333046
  54.9380646  57.4300804  38.6905251  55.3136177  58.6527061  37.8811226
  85.7683182  40.9756165  58.1527176  86.4516983  41.3284988  58.7225380
  85.3746872  41.7469139  57.7448044   7.0537844  58.0974388  67.5203018
   6.8774805  58.0238953  66.5823517   7.3372107  57.2208786  67.7801819
  23.8847790   7.1648693  28.6194229  24.3362637   6.9691229  29.4404449
  23.9612446   8.1142759  28.5244904  77.0548096   0.5421454  18.5690880
  77.7029190  -0.0839287  18.8919182  76.4134750   0.0047230  18.1042271
  85.8146744  51.5006294  31.5499840  85.4916458  52.2524223  31.0533047
  85.1855011  50.8033104  31.3652859  46.1372452  12.9908342  17.0359783
  45.2862015  13.1313076  17.4509716  46.3719368  13.8458958  16.6753922
  45.2054596  56.3877373  64.0680237  44.4459305  55.8373337  63.8772087
  44.8343925  57.2473984  64.2668304   7.4215689  52.1846085   5.8559880
   6.5335264  51.8708916   6.0268517   7.6863003  51.7303658   5.0561047
  27.4061832  35.4353180  86.3349304  27.1189098  36.3463135  86.3965530
  27.0295219  35.0126724  87.1067657  66.5344009  67.7957611   5.0822821
  65.7148132  68.2399368   4.8650064  66.4315186  67.5378723   5.9983282
  70.1349945  43.1305733  67.5088501  69.7026978  42.6004829  68.1784439
  70.8380661  42.5716515  67.1778946  20.7258244  39.1257172  27.3447647
  20.5580006  38.3124542  27.8208656  21.4254169  39.5527115  27.8392124
   2.6133785  48.3794098  11.5297155   3.5031347  48.3763428  11.1767902
   2.7322843  48.3584938  12.4792709  77.7791061  69.0061188  29.7843838
  77.2441406  69.7879410  29.9214668  77.2150574  68.4141922  29.2866936
  40.7450256   6.4689269  13.7134657  39.8461418   6.2244492  13.9336319
  41.0374146   6.9992275  14.4547625  78.1792450  19.2244129  37.5251694
  77.5826721  19.8026161  38.0005722  77.8602066  19.2406273  36.6228485
  74.3794174  22.0942116  84.7730942  73.4919281  21.7440548  84.6957397
  74.6620560  21.8386116  85.6511688  38.2270279  36.3390388  74.7487259
  37.4905281  36.9381256  74.6266937  38.0634499  35.9281807  75.5976486
  77.7149811  43.0945244  18.1816139  78.0399017  42.3076897  17.7439461
  78.5000610  43.6144714  18.3535061  19.3619156  14.8429098  69.2174683
  20.2686062  15.1487398  69.2421951  18.9895134  15.1299334  70.0512390
  68.7916107  39.1586609  48.9301224  69.5117950  39.4768867  49.4744568
  68.0057068  39.3283844  49.4495201  12.7875729  41.9587173  82.8908386
  11.8727589  42.1237640  82.6625671  13.2667809  42.0954933  82.0735931
  24.0375576  42.5605049  14.0210209  24.1438217  43.3793526  13.5368443
  24.5975628  41.9355583  13.5605125  83.4369431  52.1847343  33.7740326
  83.2526245  51.2731895  34.0006294  84.2165604  52.1409760  33.2203979
  25.7518959  19.3987522   9.1367540  24.9364128  18.9290733   9.3117466
  25.7762527  19.4896793   8.1841936  19.7519836   1.4685324  76.8109665
  19.9445038   1.4540820  77.7484970  18.8215733   1.6877562  76.7608643
  70.8645782  36.1508255  68.2680283  71.4354553  35.5154266  68.6999969
  70.2393036  36.4099960  68.9448547   3.9874730  70.0934143  41.7477760
   3.8192761  71.0213013  41.5835571   3.5252845  69.6380081  41.0440598
  56.5877991  25.8129158  12.7904224  56.7242546  26.3335342  11.9988623
  57.2580948  25.1309643  12.7470779  79.9797897   7.8614025  26.1167870
  79.7882385   8.7520533  26.4105186  80.4073563   7.4485102  26.8670826
  66.6345901   2.8618033  10.4485254  66.4367294   3.7321284  10.7943859
  67.3277588   3.0114594   9.8056002   6.6930728  20.6380825  67.5247726
   7.5993052  20.9439316  67.4869537   6.1708503  21.4079704  67.2994156
  53.6694183  49.9888611  67.0813828  54.1394272  50.3400764  66.3250885
  54.3533592  49.8111801  67.7270508  13.8023958  11.2050476  22.3222351
  13.1677866  11.1336861  23.0352631  13.2904549  11.0462809  21.5291767
  31.6865940  66.0842056  52.3338318  30.9531612  65.6394501  52.7586861
  32.3520050  65.4038849  52.2307358  50.1446457  61.6870079  53.5977058
  49.2228165  61.6098328  53.8436852  50.1371231  62.2256699  52.8064919
  22.2106152  11.9604692  66.4144287  21.2807064  11.7343979  66.4342346
  22.6607170  11.1412058  66.6204529   4.1106148  67.5934753  88.2841873
   4.4037590  66.8245239  88.7730865   4.3899961  67.4258804  87.3841400
  49.6744080  32.8781395  20.5422039  50.2353249  32.3556824  19.9689274
  49.4415512  32.2840576  21.2556992   2.6416516  33.6416473  34.3746033
   3.2219331  33.0684547  34.8755608   3.1868544  34.3948250  34.1472054
  33.0371132  45.0159683  27.7309685  32.3886299  45.2533531  28.3938046
  33.5917892  44.3650169  28.1608849  38.8518753  11.9855719  79.7640762
  39.4656181  11.9412413  80.4972763  38.0738258  11.5225420  80.0746841
  76.9004745  35.2368279  11.2831831  76.7515945  36.1661339  11.4577055
  77.6103821  35.2244186  10.6412268  81.0299911  46.5029793  21.2675209
  80.9025345  47.2614822  20.6977310  80.5831757  46.7368050  22.0811005
  59.3719254  26.4770851  75.7729492  60.2954559  26.5032043  76.0232468
  59.0233536  27.3228016  76.0548935   7.8441386   6.5605588  10.2599897
   8.2536707   5.9895105   9.6100521   7.0178151   6.1269364  10.4730473
  51.9867325  28.7449493  28.1248398  52.7079201  28.9500370  27.5298119
  52.2513924  27.9290543  28.5496941  64.0015869  36.2041359  12.7115335
  63.0619812  36.3862724  12.6974564  64.1964798  36.0218430  13.6307840
  11.0365963  67.9050369  69.3720551  11.1866446  66.9677811  69.4956055
  10.5305052  68.1698761  70.1401443  46.5554810  24.5678940  21.4737301
  47.1308327  23.8413925  21.2341518  47.1198845  25.1708965  21.9575348
  72.0932312  69.9380569  40.9402122  71.2135315  70.0687714  41.2941399
  71.9839706  69.2633972  40.2700424  54.3523369  29.1193466  87.8080597
  54.5193634  28.3246479  88.3148041  55.1953278  29.3284626  87.4057312
  19.6525631  40.2142868  83.8761139  18.8129349  40.4495277  84.2709732
  19.5239639  39.3223381  83.5534286  65.4850922  41.3737144   3.8002281
  66.3121872  41.0563431   4.1627498  65.7314453  42.1302834   3.2681167
  50.4663353  44.7965393  29.8630791  49.6394386  44.4779701  29.5011597
  51.1070251  44.6417503  29.1689682  17.3798561  61.7972717  14.0880222
  17.4670734  62.6662903  14.4797230  17.5311699  61.9394455  13.1536112
  56.1872673  10.0790186  54.3156433  55.3119164   9.7641649  54.5411682
  56.3516960   9.7242270  53.4419594  74.6955948  30.4119492  70.5919571
  75.3426056  30.6591015  71.2526550  75.0913010  29.6696930  70.1351166
  12.0976276  54.7043381  40.9218712  12.8795757  55.2097588  41.1439934
  12.4215727  53.8166542  40.7691956  67.6954041   9.9394426  45.6889267
  68.3402863  10.6429558  45.6152382  68.2117310   9.1350069  45.6386795
  20.6030865  46.2118034  87.0360184  20.6863537  46.4916801  87.9475937
  20.5517845  47.0280037  86.5386124   4.7947297  43.4239693  44.6849022
   4.1407614  44.0950928  44.4895859   5.6323829  43.8847198  44.6372108
  58.7523727  37.9080963  15.3032227  58.9571152  38.8359184  15.4192171
  59.6058846  37.4833870  15.2173815   3.4214709   0.6387832  81.0149002
   2.6007078   0.3046092  80.6530838   3.5285923   1.4996798  80.6104050
  65.0907593  55.4293327  31.5804214  65.4812546  55.2533531  32.4364471
  64.1636581  55.5783615  31.7661533  86.5175400  24.8959274  58.1269264
  85.7134476  25.3199291  58.4267578  86.3915176  24.7824039  57.1848717
  45.0593948   2.8101799  28.1939564  45.3593712   2.6202283  29.0828667
  45.7778053   2.5204110  27.6316833  25.3187389  44.5137329  22.9255867
  25.4800014  45.3233986  23.4100113  24.3652706  44.4312477  22.9075909
   4.6058431   8.1136446  36.1106911   4.8219862   8.6723213  35.3641052
   5.4213848   7.6537457  36.3097305  38.1093712  64.7274704  33.3307915
  38.9301414  64.6203003  32.8500824  38.2627029  64.2883911  34.1674042
  62.2591286  51.7340469  49.2684288  63.1340446  52.0236206  49.0097656
  62.1541977  50.8817101  48.8456497  10.3300457  13.2631235  15.3723955
  10.1600037  14.1914358  15.5322495  11.1350460  13.2527733  14.8546133
   9.5569248  61.7274132  28.8112507   8.8688354  61.7316856  29.4766426
  10.3733273  61.7254105  29.3109665  60.0837708   6.0835733  86.9941406
  60.1971321   5.8638439  87.9188614  60.3570137   5.2950306  86.5253448
  42.9281387  17.5602207  76.9600143  42.8215027  16.6113586  76.8927689
  42.6870766  17.8902645  76.0944519  48.5678940  52.2848434  64.3736649
  47.7726021  52.2568321  63.8417282  48.7826118  51.3655815  64.5320435
  41.1984253   2.1687174  71.4167557  42.1536980   2.1085877  71.4248047
  41.0065460   2.8464320  70.7685928  74.4317703  20.3452587  41.8087959
  73.9350433  21.0733624  42.1821022  73.8484650  19.5907021  41.8901978
  15.8285923  21.6660004  13.4388180  15.3616171  20.8457279  13.5979328
  16.6353073  21.5849304  13.9476099  80.1492538  48.6172562  65.5470276
  80.1032639  48.7347794  64.5981903  81.0793533  48.7068672  65.7546692
  56.7312965  35.8553619   4.0649939  56.6545143  35.1992760   4.7577314
  56.6265717  35.3596039   3.2529061   0.3786280  40.2993736  42.1863098
   1.1629397  40.8437538  42.1174660   0.6781524  39.5018959  42.6228294
  84.4012299  21.7210121  51.5165405  84.4451294  20.8258362  51.8526421
  85.0151367  21.7315140  50.7822075   8.6177568  71.1200256  49.7660255
   8.1649485  71.9410095  49.5732155   7.9463191  70.4458847  49.6614342
  25.3947392  47.2307472  83.3420639  25.4595013  46.5673485  82.6550827
  24.6348000  46.9656219  83.8601685   4.0453835  69.3750763  51.2589264
   4.2064133  69.4132614  50.3161392   4.3654356  70.2139435  51.5907402
  12.2222528  31.8619041   4.9054470  11.9157114  30.9611969   5.0102844
  12.7611885  32.0231628   5.6798992  21.2766075  67.5925369  47.6432343
  20.4202576  67.9257736  47.3751907  21.1384697  67.2641983  48.5316849
  40.7464828   8.3419828  83.6322861  40.1833000   8.9282637  84.1375885
  40.3870010   7.4691052  83.7906799  84.5027847  57.7061882  72.1032104
  84.5078964  57.1742554  72.8989792  85.1975174  57.3326416  71.5609512
  29.9684105  46.4269829  10.6872444  30.5485134  46.4402390   9.9259710
  30.5224400  46.7079926  11.4154720  81.6684799  32.2059097  43.6008453
  82.6137390  32.1027451  43.7107697  81.3586197  32.5012703  44.4569893
  32.8923149  61.5235825  72.8025818  33.5040436  62.1393967  72.3991089
  33.3969421  61.1081886  73.5018921  77.6363220  28.0163116  26.1807404
  77.2114487  28.1000175  25.3270950  78.4984055  28.4141483  26.0592422
  10.1282549  67.9846039  36.8200760   9.8606100  67.1478882  37.2002182
   9.8631001  67.9263992  35.9021797  67.0247803   9.0611191  11.6335869
  66.3461533   8.4359655  11.3788633  66.8762360   9.2085085  12.5676336
   1.8992075  52.1507072  26.3570290   2.1292644  53.0197906  26.6856594
   2.1974051  51.5497856  27.0398197  42.0498390   4.1748648  56.4466286
  42.6549797   3.6228886  56.9419670  41.2744293   4.2403154  57.0040207
  79.2642746  13.8750477  53.7757988  79.1542816  13.0676012  54.2779579
  79.4454498  13.5794334  52.8836021   6.4973712  70.7678528  67.0883255
   5.7816777  70.1703262  67.3050537   7.0112839  70.2978287  66.4316711
  36.9780655  57.4900398  10.2489576  36.9472427  57.0276413  11.0864944
  37.7114410  58.0986633  10.3382311  73.4765472  66.8042755  19.8615665
  73.7226334  67.7136765  20.0308914  74.2374802  66.2944946  20.1396656
  75.8116684  66.3106384  50.0078506  75.9028702  67.0020523  50.6634903
  75.6362000  65.5193405  50.5170593  25.1396275  66.7719421  68.3109970
  25.7708950  67.4627686  68.1097870  24.3128262  67.0899811  67.9483948
  18.4155350  57.3656464  48.8968353  19.1813068  56.9269562  49.2674789
  18.6671200  58.2880173  48.8502045  46.7949524  29.2813663   0.4777067
  47.7214317  29.1042881   0.3148865  46.3304443  28.6933002  -0.1178110
   6.8777256  46.5621338  69.4556656   7.4314523  46.1150627  70.0957794
   6.7175703  45.9057465  68.7776184  85.8024750  12.5289068  25.4001732
  86.7283173  12.5767288  25.1619320  85.7539368  11.8092060  26.0293846
  64.9547882  34.0672684  19.1449490  64.0298233  34.1046524  18.9014606
  64.9871674  33.4399109  19.8671722  81.5346680  36.1259079  63.2531662
  82.3911896  36.2968750  63.6447906  81.7008057  36.1116867  62.3106003
  61.8338852  21.2364445  28.7002945  62.1906090  20.3497505  28.6478615
  62.4187469  21.6946068  29.3038292  67.9233170  32.3067932   6.3985600
  68.3932953  31.4740829   6.3544507  68.5822906  32.9388161   6.6858373
  80.3423996  27.3209476  66.0305176  79.5401459  27.4710770  65.5304260
  80.1737518  27.7261772  66.8811569   3.7161055  45.6741066  43.3170547
   3.0186656  45.7720222  42.6688118   4.3576264  46.3444176  43.0817604
  61.7586861  69.3778000   2.9865508  61.6470680  68.7910385   2.2385654
  62.1260872  70.1777802   2.6106789  10.6015167   9.1015091  71.1596756
  10.2854347   9.2264652  72.0544968  11.0355158   8.2485065  71.1758881
   1.9923435  12.8627720  46.9355545   2.5768967  12.7998772  47.6909180
   1.3896917  13.5725431  47.1575165  13.8651037  46.9114151  85.3076324
  14.8031950  47.0478859  85.1749954  13.5949945  46.3684311  84.5670624
  16.1689491  69.8671265  34.3026428  16.5017986  69.0005264  34.0692940
  15.9504976  70.2735901  33.4640160  55.4718170  20.2349796  88.5430908
  54.8203545  19.5619850  88.7403336  56.0612602  19.8204079  87.9130707
  84.9548798  55.5127907  12.6101580  85.8487854  55.7300186  12.8747082
  84.6720047  56.2612610  12.0847979  50.4361343  59.5164299  36.5994797
  50.9188957  60.3030548  36.8532372  50.9333076  59.1568642  35.8647957
  75.1221390  15.2720928  41.4963608  74.8927307  15.7676239  42.2825241
  75.9725952  15.6227913  41.2318535  12.4063578  66.6603241  87.6667404
  13.2219019  66.2044754  87.4586105  11.8482237  66.5133820  86.9031143
  76.3206329  40.4105034  79.9063568  76.4278870  39.5120697  80.2186890
  76.0800629  40.3165436  78.9846573  22.0646896  70.8132172   8.9862595
  21.6459923  70.6999130   8.1329794  23.0026989  70.7711182   8.8002596
  60.3821640  23.0012226  12.0476713  61.0334358  22.9934349  11.3462315
  60.7973595  22.5228729  12.7653246  73.6366501   9.5923395  83.0429916
  74.0595627   9.9573088  82.2657089  73.1194000  10.3160973  83.3963470
  75.8133087  38.5331154  21.4181252  75.9373627  39.4096794  21.7820988
  76.6109848  38.3673172  20.9156723  18.4837933   6.3717403  48.2634354
  18.6599693   6.8811932  49.0544167  17.7822800   6.8502245  47.8216591
  83.4090424  15.0520430  32.6224632  83.5623398  14.1078768  32.6582947
  84.2833633  15.4338713  32.5449600  78.4062576   5.4445648   5.1255565
  78.1499405   6.3108082   5.4420342  78.9920197   5.6220937   4.3896236
  81.0306396  67.3888931  13.7855482  80.5955200  67.0961227  14.5862913
  80.3200226  67.5012283  13.1541681  41.8020554  60.7134705  48.0829773
  41.3824615  61.1847878  47.3632317  41.0883751  60.2337875  48.5034523
  10.7681303  -0.0374766  54.4503670  11.0683727   0.7635190  54.8798943
  11.4662971  -0.6720486  54.6119614  14.5488110  17.3748016   8.5593815
  15.2085581  17.9152832   8.1248169  15.0391474  16.8797951   9.2157116
  69.2638397  17.6342945  40.7723503  69.3202972  16.9562874  40.0990372
  70.0976944  18.1005898  40.7132187  41.0531273  55.2300491  25.2808418
  41.3016853  55.2756004  24.3576012  40.7620544  54.3268433  25.4062386
  41.3153687  18.5510311  68.3467712  42.0650177  18.0425968  68.6562119
  41.4980392  18.7073975  67.4202652  25.8307800  46.5036888  78.7062759
  26.4909649  47.1944809  78.6497192  25.0616646  46.9371300  79.0761642
  72.8989029  51.6766434  10.4813089  73.1259689  51.5263290  11.3989573
  72.3095322  52.4306297  10.5008135   7.6554942  69.3388214  40.0786095
   7.9944534  68.6371384  40.6344681   6.8037963  69.0186691  39.7813835
  62.9841957   4.0850754   9.2533312  62.2550659   4.4484324   9.7558975
  62.8957748   3.1373105   9.3541050  53.5784912  38.5178795   2.5957899
  54.3414574  38.9425888   2.2037029  53.1937485  39.1893234   3.1591456
  75.5617294  31.7075081  28.9808826  76.1474075  31.6450367  29.7354107
  75.7794418  32.5478745  28.5776234  46.2923241  32.7430725  81.6425781
  46.5866165  32.1355438  82.3212051  46.4198799  32.2661743  80.8224945
  71.2529678  67.0574417  32.3386574  71.1558380  66.6655960  33.2065620
  71.1539307  67.9977264  32.4879417  35.6891518  61.3174591  48.6367340
  36.0434723  60.5469856  48.1928215  35.2896919  60.9714890  49.4348373
  47.1740303  31.1809025  83.7430115  46.4535599  31.0865250  84.3661041
  47.9547577  30.9389496  84.2411575  82.9669800  22.8985596  53.6098976
  83.5691833  23.0343857  52.8783722  82.8518448  21.9492550  53.6522560
  70.2890320  34.0985909  19.4213028  69.8836365  34.1578598  18.5562172
  70.9978714  34.7414322  19.3981838  36.5092964  11.7340336  18.3792896
  36.3474045  12.3800659  19.0667973  37.1022377  12.1751404  17.7709503
  18.0971851   6.1696191   0.4370163  18.2747383   6.9446821  -0.0958853
  17.2127151   5.9036098   0.1856502  53.8592644  17.5338345  12.8327389
  52.9884033  17.4987354  12.4370098  53.8326874  18.3026295  13.4023695
  61.1159630  40.2242355   5.6470928  61.5240326  39.6874695   6.3265023
  61.7391586  40.2057991   4.9207850  60.8834686  14.5791864  68.2593765
  60.3108330  13.8359098  68.4487457  61.6988831  14.1816139  67.9539795
  68.1582336  58.6718750  51.0070190  68.4192352  58.2294197  50.1993446
  68.7590408  58.3330078  51.6706657  33.9847794  30.8052082  73.3810425
  33.7110786  30.4499493  74.2266846  34.9411736  30.8070240  73.4202423
  78.2137604  49.5352173  21.8352852  78.4089432  48.6785393  22.2150745
  78.9494247  50.0876274  22.0996265  81.6718674  68.8920288  69.4394989
  81.9848328  69.7806778  69.2704391  81.4793243  68.5367661  68.5717773
  48.9265823  57.6306458   1.9670712  48.2997932  56.9085541   1.9228797
  48.4690170  58.3698311   1.5664849  44.4353065  25.0283527  74.2669373
  44.4692307  25.0662308  73.3110886  43.5238037  25.2259159  74.4822693
  53.4898376  34.0718727  30.9590168  54.2292366  34.2867813  30.3903904
  52.9094429  34.8302689  30.8941326  82.8015976  38.3054848   6.1965704
  82.5305862  37.8136940   6.9717669  81.9808578  38.5494308   5.7686577
  24.3192120  57.0969925  74.1218719  23.8791676  56.2479858  74.0796280
  24.0517540  57.4637184  74.9646072  57.9239883   3.4260566  64.1720810
  58.5131531   3.9706571  63.6500359  57.8395309   3.8932078  65.0032654
  58.1243324  14.2339220  12.3992901  58.0416107  13.4020147  12.8654652
  57.3532181  14.7350035  12.6648626  11.1973476  48.4039726  40.6227913
  11.0136948  49.3285599  40.7890549  10.8778553  47.9521065  41.4037971
  68.2020645   9.3108807  66.2016373  68.5582886   9.2473125  67.0878067
  68.1479721  10.2514000  66.0321426  33.3761864  57.9822464  23.5371037
  32.9283257  57.9500732  22.6917515  33.0104103  57.2477760  24.0300446
  74.7714386  56.6551399  18.5032005  74.6540146  57.5108261  18.9158039
  75.1614838  56.1109047  19.1872349  75.9303055  48.1836891   6.9086623
  75.6303864  47.2747231   6.9007025  76.3989487  48.2740097   7.7383895
  79.8422775   5.5059285  51.5465317  80.3140564   4.9717393  50.9075470
  80.3626862   5.4372563  52.3469620  16.0017700  62.6173477   3.2976992
  15.6913261  63.4893951   3.5413949  15.5378990  62.4164581   2.4848645
  54.3141136  12.1441936  63.2767258  54.4761162  12.3385429  62.3535690
  55.1190300  12.4088421  63.7220383  80.9991531   7.2782402  61.8238678
  81.1430359   8.0238190  61.2410774  80.6921463   6.5789485  61.2468338
  65.7823105  17.0701046  44.2731667  65.3526077  17.7093086  43.7048302
  66.6670074  16.9892941  43.9167747  50.5411301  23.0618877  82.9471130
  51.0482712  23.6666431  83.4886932  49.6392403  23.3742771  83.0195007
  20.0445404  20.1207218  87.7698288  20.7452641  19.9600048  87.1378632
  19.3295021  20.4840355  87.2473831  16.0232391  58.7837944   8.4832220
  16.4728355  58.4642105   9.2655029  15.4279556  58.0739822   8.2423048
  23.3743477  62.3894424  67.6240234  23.2375393  61.9579659  66.7806168
  24.2361851  62.0872574  67.9106522   8.3416567  62.1584053  87.6835480
   7.4333553  62.4166451  87.5269241   8.3234758  61.2014160  87.6748886
  85.7438431  60.1683998  11.4492588  86.2094879  59.6757355  10.7734737
  84.9355774  59.6755714  11.5908623  54.3739815  51.9023705  54.0638504
  53.6845322  51.2484741  54.1792221  54.5797729  52.1927795  54.9524117
  52.2095757  43.7705193   3.4930573  53.1646919  43.7187004   3.5291159
  52.0270195  44.6876297   3.2885749  12.6535912  44.9178200  83.5750656
  11.7651167  44.9773788  83.2239304  13.2191515  45.1334076  82.8335190
  70.9776306  56.2046280  71.4155960  70.0570679  56.1823273  71.1542664
  71.2044144  57.1345749  71.4146652  82.2731628  68.4918976  62.8288193
  82.4151840  67.5455856  62.8522568  81.3374939  68.5979996  63.0005760
  31.0617981   5.8121524  84.1213989  30.3558693   6.2178793  84.6246719
  31.8614769   6.0689449  84.5805283  47.5255356  50.2302094  17.3069706
  46.7605515  50.4711952  16.7845173  48.1617203  49.9109268  16.6670017
  28.2550430  25.9981995  79.5920792  27.9295864  26.8928413  79.6917038
  28.6696033  25.9888229  78.7293625  15.3036766   2.3831174  71.9526901
  14.8283033   2.2278864  71.1365051  15.5917368   3.2939625  71.8925781
  19.1856537  12.5707197   5.3233438  18.2628326  12.3739767   5.4843602
  19.2878952  13.4817514   5.5986609  40.0816154  48.2890282  47.2821999
  40.4880295  48.1866112  46.4216347  39.4332809  47.5861969  47.3260651
  83.1446686  61.6221085  40.9433212  82.2814484  61.2746086  41.1676521
  83.7578201  60.9482498  41.2369003  86.1298141  33.6050873  35.2712135
  86.8248749  33.0782928  35.6656837  85.3874969  33.5074234  35.8675842
  53.8851967  32.4259377  78.7612991  54.6143723  31.8842793  79.0632019
  53.5138779  31.9392071  78.0254745  27.8552723  48.3298416  78.2730560
  28.3070698  48.7680817  77.5519104  28.1262550  48.8124428  79.0540161
  72.8842468  29.1106606  43.8257751  73.3027115  29.9675789  43.9082832
  71.9728165  29.2642403  44.0746574  70.3785095  37.9674149  21.0674038
  70.1139908  38.6656952  21.6662903  70.9080963  37.3785973  21.6050510
  27.0542603  29.7657394  82.4602814  27.3908176  29.6763592  81.5686722
  26.8812103  28.8674946  82.7421341  10.7796803  61.7127190  84.3557816
  10.9888783  62.1944351  83.5555191   9.8347969  61.5673790  84.3077774
  51.3567696  23.3112297  88.5698700  51.4310913  22.5532494  87.9900665
  50.4510803  23.2885723  88.8788147  17.6334705  62.2003479  66.1618576
  17.1296520  61.9806328  65.3781967  17.2116852  62.9882622  66.5046616
   7.1151381  46.7265205  54.9284706   7.5217366  46.5143471  55.7686462
   7.4641490  46.0735512  54.3218002  75.2355118  64.5226135  37.1344261
  74.5934906  64.7465897  36.4607162  76.0802078  64.7481461  36.7447395
   4.1570649  66.2433472  72.5781326   3.4726598  65.8971786  72.0054321
   3.8921869  65.9741821  73.4576874   3.5077131   4.4093523  69.6376114
   3.8891551   3.6014719  69.9812164   3.6587262   5.0571761  70.3259048
  20.7641792  55.5651207  30.1330547  21.4145889  54.9036903  29.8970280
  20.0339508  55.0640602  30.4962788  45.6270905  49.1075287  72.6096420
  45.0972939  49.8338852  72.9382095  46.1991081  49.5058670  71.9536285
   3.9089549  24.2049332  57.2306404   4.0614734  24.0677700  58.1656036
   3.0105615  23.9068584  57.0882568  11.3430557  19.6106892  16.2585545
  11.1639929  19.2634640  17.1323967  11.5682793  20.5290527  16.4072628
  12.9839535   0.5117979  23.7475586  13.7618742   0.0169107  23.4903488
  13.1599560   0.7835530  24.6483383  15.1469498  10.8669596  63.5212440
  14.2661400  11.0833120  63.2153091  15.6313782  10.6522570  62.7240868
  70.3777695  66.0570068  20.9411392  70.5825577  66.1633759  21.8701057
  71.1240082  66.4462814  20.4852676  66.0976562  44.5124626  12.7739182
  65.1846466  44.4294090  12.4987164  66.1878128  43.8902397  13.4956808
  51.8843155  60.3054543  59.4945602  51.8830948  60.1048622  60.4305038
  51.4306793  59.5657501  59.0904808   4.4209237  41.2028275   4.6532512
   4.0941172  42.0560303   4.3678193   3.7760980  40.9011993   5.2931361
  43.1118164  58.8466721   3.0046947  42.6803246  58.0912552   3.4039307
  42.6283264  58.9970207   2.1923740  58.7505379  14.5903912  41.9207001
  58.1304550  15.2273455  41.5657082  59.5366669  14.6972895  41.3851547
  82.7011719  54.8550491  34.0911560  82.8612595  53.9127884  34.1435928
  81.8393860  54.9741592  34.4903603  81.5420685  32.6488686  40.8587723
  81.3315964  32.4653015  41.7743263  81.1187973  33.4884491  40.6793938
  28.2147026  52.9271927  47.9027405  27.4393425  53.0439873  47.3537331
  28.5267181  52.0470505  47.6924286  69.9359512  33.9159012  86.2889252
  69.2301407  33.3189812  86.5374374  70.7212982  33.3687134  86.2825623
  33.2247009  63.6170578  32.8656158  34.1218681  63.9300613  32.7500725
  32.7824745  63.8509178  32.0495415  54.0040016  26.0523014   8.6170330
  54.0212364  26.2396011   9.5555716  54.5186729  25.2507076   8.5232782
  64.1474533   5.7184248  85.9042587  65.0013885   5.2872262  85.8712997
  63.9861069   5.9994168  85.0035629  69.8383408  59.1965675  40.3184013
  69.6092300  59.5877457  41.1614456  69.6194534  58.2699547  40.4169273
  47.2958755  41.0087471  55.9505920  47.2032166  41.5346107  56.7450180
  46.6037102  41.3266220  55.3708572   0.4208775  36.1175385  45.5249977
  -0.1977102  36.6678696  45.0446701   0.2231019  36.2831688  46.4467812
  64.7568665  29.9709129  26.8722744  64.8473892  30.7119198  27.4713974
  63.8165588  29.7930737  26.8516369  19.0851421  70.4979172  80.0201645
  19.8300018  70.7320404  79.4664459  18.4962444  71.2501297  79.9600677
  80.8811951  19.2743645  32.7268791  81.0322952  20.1215439  33.1460304
  79.9690170  19.3089466  32.4388466  83.1702805   4.4963942  33.0748825
  82.2428894   4.3872366  32.8645058  83.3977966   3.7094347  33.5700226
  10.2630672  36.2332344  60.6215134  10.0405321  35.4310913  60.1489906
   9.6513100  36.2552795  61.3573799  62.9095001  49.6160469  34.7337379
  62.1145973  50.0817604  34.9934998  63.1425514  49.0935249  35.5011253
  61.6253853   1.4880261  86.1761703  62.1815300   1.2944787  85.4215393
  62.2220116   1.4694084  86.9244537  53.8895950  63.2438354  70.6625824
  53.6156120  63.6947594  71.4612274  54.6174927  63.7683907  70.3290634
  86.1880493  64.7075806  58.3517723  85.4177475  65.1055984  57.9462395
  86.9065399  64.9124451  57.7534142  44.4361496  68.4055252  12.8307724
  45.0313034  69.1226044  12.6120844  44.9953995  67.6290817  12.8551369
  36.8287354  62.9611626  25.0546169  36.1038170  62.7572174  25.6454926
  37.6109200  62.6794128  25.5289917  68.2193222  35.6435318  39.7325859
  68.0546570  35.3058510  40.6129761  67.4096069  36.0947113  39.4937820
  41.5075798  21.3580952   1.9067471  41.6712341  20.8549442   1.1090699
  40.7163696  21.8613091   1.7144169  36.3940735  35.6119957  20.8098679
  36.3155975  36.1324196  21.6093864  37.2840576  35.2608490  20.8390427
  70.4107437  13.5508785  29.0218754  70.1280441  12.6419973  29.1230927
  71.0401001  13.5270910  28.3010578  44.3835526  47.9707870  60.2122650
  44.6533508  48.2406120  61.0901260  44.2338867  47.0283012  60.2867889
   5.9199986  38.9737206   8.5784378   6.6638517  39.5648460   8.4623232
   5.2330046  39.3411331   8.0223093  63.4727135  35.7183266   6.8939819
  64.0283813  35.2344971   7.5050278  62.6198082  35.7589645   7.3265672
  68.0026016   5.7420630  69.6890030  67.3969193   6.0583453  69.0186768
  68.0660400   4.8003988  69.5293884  10.0203123  35.3907852  16.5012112
   9.7112217  34.6282082  16.9902630   9.2430983  35.9397392  16.3971939
  22.1616802   4.4086819  37.1724358  22.3436470   4.2937059  38.1051216
  23.0137253   4.6092739  36.7851219  47.0867653  41.3179665  87.1915588
  48.0241737  41.2933884  87.3836365  46.7411499  40.5152664  87.5820084
  70.5150375   2.2095168  58.3976593  69.5602417   2.1657150  58.3459091
  70.6906128   2.9827960  58.9337959  35.2662048  69.1508408  21.4480133
  34.8303909  69.5680695  22.1911278  35.5014992  68.2794724  21.7667313
  85.2990494  25.5594521  29.4121552  85.0680695  24.6321621  29.4670696
  85.8414536  25.7173462  30.1848736  75.1067429   7.2414169  30.6530323
  75.0478897   7.3501916  31.6022091  74.5725327   6.4692826  30.4668579
  44.1214867  14.3966208  65.1340332  43.8996658  14.1668873  66.0363922
  43.6212082  13.7796421  64.5999069  83.0433121  36.3673706  85.2726746
  83.8395157  36.6383781  84.8156738  83.1197662  36.7618294  86.1414566
  48.0237350  19.2851715   5.8498836  48.4098663  19.3719025   4.9783268
  47.3398132  18.6238880   5.7441220   3.7216246  26.8974743  74.9228210
   4.1774230  26.2963657  75.5120087   3.6297803  27.7049503  75.4285660
   3.3193405  64.4742126  46.2411537   2.7317894  64.3427048  45.4970284
   3.1357844  65.3659897  46.5365829  38.8438148  61.2712555  50.2065163
  38.5828171  62.0196266  49.6698112  38.5636063  60.5065269  49.7036209
  80.4262924  57.2611580  69.5064240  81.1251450  57.2826309  70.1601562
  79.6947021  56.8338280  69.9518433   2.3677368   5.7527585  61.4839478
   1.5605288   5.2726202  61.2992477   2.7085607   5.3500214  62.2826157
  14.3165979   7.8490696  87.9878845  14.9853868   8.4482832  87.6563797
  13.4862919   8.2598438  87.7468719   6.0411644  44.8694916  79.7144241
   5.8682127  44.6923523  78.7897949   6.8631282  44.4137917  79.8959274
  45.9187012  39.2722130  88.5519257  45.0965691  39.7554512  88.4693909
  45.7160187  38.5556946  89.1533890  39.1681213  24.5098190  84.9337006
  39.6864624  24.9073505  85.6333618  38.6996078  23.7925720  85.3606491
  34.3456459   6.2047477  19.6320248  34.5083542   7.0468068  20.0571060
  35.1940422   5.7617249  19.6455460   5.8461051  38.0454254  37.8756065
   5.3208394  38.0356560  37.0754585   5.8724232  37.1306000  38.1560211
  56.1000404  30.1619492  76.6421280  56.5667763  30.7830467  77.2012558
  55.5320168  29.6791649  77.2425461   0.5368834  47.4919891  33.9680824
   1.1755018  47.8802261  34.5661354   0.0374589  48.2372169  33.6342545
  22.7882328   1.3871425  63.5278206  22.3960648   0.6615127  64.0135117
  23.1182594   0.9864382  62.7236099  46.4372177  48.1264801  88.0174866
  46.5624809  47.5139694  87.2926636  47.2870750  48.5552025  88.1183624
  56.4241905  63.7526932  88.4917755  56.4478798  62.9744530  89.0485611
  55.8608475  63.5054817  87.7584534  68.0392456  63.9877892  33.9655342
  67.4915009  63.9926338  34.7505074  68.0660706  63.0691681  33.6978607
  45.4889717  37.3909264  67.2233734  44.9289818  36.6635818  66.9520569
  46.3385620  36.9864883  67.3990479   4.0925460   2.4214680  54.1357117
   3.3302546   1.8991091  54.3852768   4.6611242   2.3983572  54.9053955
  39.6216965  62.0732231  14.4952545  40.0365982  62.5788002  13.7963409
  39.0402565  61.4653893  14.0384216  33.5202713  43.9630699  71.7080383
  32.7428055  43.4407425  71.5106659  33.2524986  44.8657265  71.5355759
  51.8526611  47.2673187   5.6355543  51.5092010  47.6531181   4.8296847
  51.2462997  46.5546799   5.8373070  68.2308960  41.8385468  56.9070206
  69.0092010  41.7152672  56.3636169  68.3607483  41.2478218  57.6489182
  50.9143677  36.7305450  82.4864273  50.4283485  37.2987900  81.8888397
  50.9441795  37.2182121  83.3095474  79.0718384  20.4625149  65.3672180
  78.9005203  19.9948597  64.5497971  79.2280121  19.7711239  66.0105057
  46.6584778  59.2805901   1.6661876  46.4811935  58.9399719   0.7893866
  45.7922707  59.4435959   2.0394800  67.8077698  23.9069786  84.6455765
  67.3934250  24.2636032  85.4313049  67.3106613  23.1121140  84.4524307
  20.7044926  37.3220444  70.3973312  20.7775841  38.1405487  69.9064865
  21.0969086  37.5172234  71.2483063  18.0974388  70.5046768  39.5140305
  17.3339939  70.7315140  38.9830589  17.7348289  70.0423203  40.2696571
  45.2909126  51.6842651  11.6708288  46.1658020  51.9334717  11.9686489
  44.8374557  51.4055061  12.4663801   6.6039963  29.1988659  28.0924339
   7.0231586  29.7855263  28.7220078   5.6757879  29.4293823  28.1314678
  53.6083794  66.8555603  32.1800995  54.5472031  66.9927826  32.0535736
  53.2429886  67.7383575  32.2383156  74.2060776  20.9447422  63.8598900
  74.1412811  21.6656895  64.4861984  73.4314194  20.4089680  64.0304260
  72.4550018  16.0773277   5.5170617  71.9076767  15.2935352   5.4687638
  71.9724350  16.6713867   6.0919137  16.0476227  59.5921669  20.8379765
  15.8451567  58.6584206  20.8958836  15.8497772  59.9346504  21.7096386
   5.9619012  69.7380905  46.1040688   5.7132740  70.4500809  45.5145836
   6.8407626  69.9708786  46.4034767  59.4950409  33.0575485  76.5084381
  60.0492706  32.4482841  76.0207367  58.9329453  33.4549255  75.8433304
  49.7105179  46.5688095  18.6154709  49.0152283  45.9468956  18.4009399
  49.8631096  46.4437523  19.5521183  70.6932831  58.1753883  44.2471733
  71.4668655  57.9682617  43.7228661  70.1455765  57.3928032  44.1854820
  64.4825058  41.1832085  26.7852707  64.7991714  40.5711784  27.4496288
  64.8731079  42.0228424  27.0275078  29.1206112  32.2606926  70.0076599
  28.6459427  32.8761597  70.5663376  29.3706837  32.7767487  69.2412491
  83.6239624   7.5016222  33.5786819  83.3501358   6.7391591  33.0688782
  84.5776443   7.5140185  33.4975929  62.1413269  53.1494370  79.1952972
  61.4138451  53.6543350  78.8318787  61.7457390  52.3214607  79.4677048
  20.8795662  62.8598709  82.6576385  20.6613636  62.9759750  81.7329025
  21.7017174  62.3697281  82.6500244  35.6747513  26.4865685   6.5582108
  35.5718269  25.9159145   7.3197837  35.4824677  25.9229164   5.8088398
  71.5737457  35.9128342  22.8346024  71.1433258  35.0579529  22.8469925
  72.0193024  35.9689293  23.6799221  86.0743027  28.2229805  73.6176758
  86.7194519  27.5171089  73.6596756  85.8389282  28.3869781  74.5308762
  43.1313400  61.9547119  35.2952347  43.3438530  62.2235031  34.4014664
  43.5870972  62.5874214  35.8503914  15.7678852  40.0208206  70.5480881
  15.4856176  39.9645119  69.6351852  14.9926424  39.7772369  71.0539474
  79.2781219  13.8131590  38.6233788  79.8404312  14.3361311  38.0519409
  79.2489319  14.3037128  39.4448013  45.9824142  22.2923660  67.1458969
  46.4710045  23.0819435  67.3784485  45.6173553  21.9836674  67.9751587
   7.4658122  18.0387001   7.8561606   7.5706797  18.8817844   7.4152050
   8.3390312  17.6471901   7.8351989  52.4062653  41.3807716  54.9475098
  51.4872894  41.5268364  54.7230530  52.5134697  41.7986832  55.8019638
  66.6859055  27.9335270  71.9989319  66.4408035  27.7537651  72.9065857
  67.6157532  28.1566868  72.0416412  57.9806557   7.9718313  73.9532318
  57.6767387   7.1836405  73.5030975  57.6223450   7.8958139  74.8375778
  58.2408829  20.8168316  15.2718735  57.6467972  21.2631283  15.8752899
  57.7974319  19.9945316  15.0635309   5.3651099  12.7527533  58.6660690
   4.5430255  12.5048294  58.2430534   5.1282988  12.9004745  59.5816727
  14.5215731  53.3080215  57.1168671  14.8909378  53.0169373  57.9505730
  15.2739296  53.6320419  56.6216850  31.6188717  26.6858921  23.4611588
  31.8698997  25.7782574  23.2896481  32.4455490  27.1326828  23.6434040
  42.0088730  33.1612854  66.6423492  41.2683220  33.6892548  66.9407883
  41.7355309  32.2568817  66.7958603  59.1636276  46.7450867   6.9266047
  59.4906235  47.3680458   6.2775826  59.3660469  47.1496620   7.7701559
  34.4960213  39.9254227  59.1310501  34.2651825  39.0044937  59.2528534
  34.0704117  40.3774109  59.8596077  29.5346184  39.6075859  89.1230392
  30.0866661  39.8412056  88.3767853  28.8221836  40.2465515  89.1032639
  78.9960327  36.8189087  32.9771118  78.3394775  37.1437607  33.5932579
  79.7715454  37.3526993  33.1499672  54.7010803  28.6684361   3.1713815
  55.1026077  27.8602486   2.8522580  54.0459442  28.8881702   2.5089996
  13.7296267  42.7791595  42.9796257  13.1753521  42.2971115  43.5933380
  14.4709473  43.0750122  43.5079689   1.6216673  49.3197098  61.7897072
   2.2898474  49.9386635  62.0840950   0.9618460  49.3318405  62.4830475
  23.1768818  64.9783859  55.0950890  23.7855015  64.6440811  55.7539177
  22.6865101  64.2077026  54.8090477  21.8061047  33.1550636   6.6266494
  22.1876259  32.7185097   5.8650107  21.2798862  32.4780731   7.0521011
  25.3302517   3.0021315  87.0546494  25.0576515   3.6685622  87.6853561
  25.8220749   2.3668478  87.5749893  76.0875168  36.7065048  54.8186951
  75.7002182  37.3852386  54.2659264  76.3205414  36.0057373  54.2097168
  68.2936401  11.1225719  31.3116951  68.6541443  11.0596485  30.4272137
  68.5987320  10.3291321  31.7516975  80.1557007   9.6509161  57.4169197
  80.5570068   8.8286734  57.6981697  80.8699341  10.2875967  57.4440041
   3.6660166   5.5921741  23.6224899   2.9526005   6.1233888  23.9761562
   3.3680785   5.3429036  22.7476597  52.6080933  53.8826637  49.4246788
  52.5691795  53.7571526  50.3728180  53.5437202  53.9219894  49.2264824
  31.2536659  70.9783173  53.0673256  31.9628658  70.3601990  52.8906975
  31.6564751  71.8405914  52.9650879  58.4435730  60.0549545  37.1172562
  58.2604523  59.8814316  38.0406113  59.2585297  59.5844040  36.9421577
   3.1218886  56.9231720  10.6595888   2.5112045  57.6170425  10.9082661
   2.6275296  56.1130333  10.7841473  67.5937500  22.0519104  81.5431366
  68.3117676  21.6001148  81.0997849  66.9729385  21.3572197  81.7627563
  19.8875999  53.9779854  35.8979340  20.8141594  53.7983856  35.7383690
  19.7667141  53.8018646  36.8309937  12.5099678   2.3445039  14.1499376
  12.9613571   2.8218482  14.8460855  12.4090023   2.9856818  13.4464254
  19.0783482  43.0608025  61.6075249  19.1993256  42.5192032  62.3874397
  19.8662834  43.6028442  61.5677605  53.9653397  61.5382309  63.3567963
  53.7284126  62.4654694  63.3387222  53.5453377  61.1990662  64.1472321
  30.8618031  66.0419617  21.2287006  30.8183594  65.3314972  21.8686867
  31.6951828  65.9072647  20.7775173   5.6892996  41.6444130  84.2984085
   4.7973046  41.5838165  84.6403275   6.0137830  42.4843025  84.6232605
  20.9100800  54.5781631   7.2014322  20.3548317  55.2247658   6.7657318
  20.8810654  54.8220749   8.1265783  41.5189896  34.0919838  11.8692894
  41.5334053  34.9116287  11.3751144  42.4288445  33.9555321  12.1334343
  37.1198120  60.1863098   5.0913363  36.3093414  59.8388748   4.7189665
  37.4802246  59.4600754   5.6001725  57.1481094  45.1647835   6.6062016
  56.3887291  45.6579399   6.9166408  57.8928299  45.7432823   6.7704077
  43.5567398  41.1408234  42.0113220  44.4508896  40.8085022  42.0906334
  43.0096703  40.3554840  41.9976654  82.6431885  24.8820839  76.6788177
  82.7786560  25.2429352  75.8026505  81.7122650  25.0203190  76.8534775
  51.5247498  48.5165672  46.4047966  51.8819962  48.6303024  47.2855148
  51.0775375  47.6708069  46.4351082  59.0614929  14.0079126  35.4002647
  59.9939957  14.2025471  35.3065338  58.6749077  14.2815790  34.5684662
  84.5109482   7.7977500  14.1872187  83.7612839   7.4905987  13.6774130
  85.0637436   7.0231953  14.2906961  55.2466698  68.0391617  54.5528450
  54.8724174  68.8833313  54.8049202  56.1131020  68.2547379  54.2078018
  62.8403435  50.1609879  38.9336929  62.8282318  49.4943085  38.2469406
  63.3036537  50.9008789  38.5410881  85.3263702   3.1470196  65.6918793
  85.1624298   4.0894437  65.6573486  85.5873795   2.9823506  66.5979614
  73.1778183  43.0765686  34.0082550  73.4610672  42.2185478  33.6923370
  73.9552612  43.4463539  34.4266739  42.1744270   4.0159054  81.8565063
  41.5056343   4.7006745  81.8628845  42.5996475   4.0884461  82.7109985
  26.2305279   3.9901819  20.2691193  26.5244827   4.9007673  20.2434940
  26.9523582   3.4945076  19.8824673  62.5791664  15.8449650  77.2178726
  62.5594521  16.4063377  76.4428253  61.6839561  15.5157003  77.2979584
  80.9422302  38.1955986  25.8648224  81.4464722  38.8941040  25.4476128
  80.4164124  38.6429787  26.5278435  16.0384216  36.5086174  11.5700016
  16.6628761  37.2160301  11.7307949  16.1247025  36.3208084  10.6353807
  22.3398533  19.0719967  61.1704178  22.6386185  19.3732662  62.0284462
  22.4342709  19.8363209  60.6019783  85.8647690  15.2308617   6.4060540
  85.7453308  14.9287300   7.3064337  86.0498581  14.4342546   5.9086695
  50.3705673  17.5946045  55.8165703  49.7716408  18.2928543  56.0810814
  49.9847488  17.2385273  55.0162010  47.3690987  52.0617485  54.1630096
  47.3401413  52.8192825  53.5785980  46.5244331  51.6294823  54.0368309
  26.2498398  57.5258331  40.0340233  26.2667980  56.9677238  39.2565536
  26.2487259  58.4183655  39.6881714  19.4170284  41.0965691  18.0351334
  19.8666115  40.3536568  18.4378586  18.6160126  41.1990128  18.5490513
  79.9648285  52.3819580  75.7745285  79.6613998  53.2086449  76.1497040
  79.2743225  51.7543488  75.9879150  18.9162388  60.5948029  35.3821220
  19.7870560  60.2096786  35.4800491  18.3184032  59.8482895  35.4214211
  69.7910309  36.2247124  32.7929993  69.6247101  36.6632195  31.9585667
  69.9439468  35.3098755  32.5565071  66.2893677  34.8351669  87.2175140
  66.9754486  35.4933472  87.3285294  65.5131378  35.2287750  87.6159668
  76.2061310  32.6189995  59.8340950  77.1351242  32.6656189  60.0600014
  75.9997406  33.4875412  59.4887466  78.7342148  57.1316643  35.0067635
  78.8812103  56.1861725  34.9808044  79.5420303  57.5092888  34.6588211
  84.2567673  44.5762787  23.9440613  83.7257233  45.0112915  23.2769871
  84.4742661  43.7266655  23.5605431  79.9435501  23.4836445  32.4243622
  80.3144531  24.3375015  32.6470604  80.4186401  22.8642826  32.9783592
  33.6665001   1.7220604  27.2582741  34.1991005   0.9528956  27.4606476
  33.2495956   1.9500670  28.0891972  10.1252003  63.8256645  66.8221283
  10.4644222  64.2352524  66.0262680   9.9036236  62.9331703  66.5564346
  29.5765209  56.1452751  25.7964649  29.2567463  56.2109985  24.8966541
  28.9860897  56.7039948  26.3018894   8.1677418  58.3505135  75.3439941
   8.8764877  58.2828636  75.9837875   8.4172497  57.7456894  74.6453094
  73.7403488  24.7473221  60.2962418  73.4711761  23.8301048  60.2463264
  74.6517334  24.7457390  60.0036621  46.4553642  47.4312172  12.2214136
  46.9952774  47.8797951  11.5706425  46.2773399  48.0974541  12.8852434
  35.9205856   6.0630231  83.1749802  35.0526009   6.1815867  82.7892685
  36.4826393   6.6675906  82.6903915  68.3738861   7.2064486  87.3130264
  67.4981155   7.4867105  87.5789490  68.2686310   6.2852874  87.0750885
  45.4429893  20.4847221   9.6000910  45.0521317  20.6786251  10.4520664
  45.5484467  19.5333595   9.5958996   2.5502820  16.0675011  57.3062782
   1.6387820  15.7753668  57.2987061   3.0509889  15.2969465  57.0383797
  84.1862335  70.6889725  29.5373020  83.9867477  71.4843140  30.0311356
  83.7538528  70.8165588  28.6929111  51.7231827  41.5468254  70.4582138
  52.0741539  41.4748878  71.3458405  51.2826080  40.7107239  70.3063736
  50.0643959  50.5808296  11.5400333  50.4172821  50.4062576  10.6675491
  50.2627831  49.7898750  12.0412998  18.0537548  42.0324669  85.3856964
  17.3625450  42.1099930  86.0433044  17.5856838  41.9209137  84.5582275
  23.3625622  32.5147934  24.4805012  23.7730637  31.6961880  24.7590771
  24.0606766  32.9924927  24.0325394  13.4252481   4.4823022  25.3218422
  12.7414494   4.9806972  24.8743458  13.0231915   3.6325474  25.5021191
  28.1919613  34.8934174   6.9406633  27.8533478  34.1042709   7.3635359
  27.4174099  35.3196983   6.5738001  42.8762932  49.2271194  66.4837341
  43.3509979  48.3967247  66.5201950  43.4800301  49.8292427  66.0487900
  21.7945995  44.5292244  47.5934906  22.2296734  44.6960449  48.4296188
  21.7596416  43.5749168  47.5278893  41.4115143  12.9373102  75.3760681
  40.8126144  12.3084393  74.9734879  41.7977600  12.4627895  76.1121902
  54.1851234  66.9809341  15.8259096  53.6024818  66.3243408  15.4442806
  53.5957298  67.6405945  16.1915493  65.1376266  67.8759460  71.1917267
  64.6331177  67.0896912  71.4003220  64.6171036  68.5960083  71.5478134
   7.2081141  36.0441933  68.9703827   7.0918598  36.3895836  68.0852661
   6.6699848  35.2528572  68.9912796  83.1620102  70.5302429  12.0043468
  82.5532608  71.1757202  11.6451626  83.2236633  70.7504349  12.9338331
   0.9716662  23.4500713  26.5291119   1.2340107  24.3260765  26.2462330
   0.1478614  23.2867699  26.0698624  28.4354839  65.7028427  79.0657425
  28.5906315  66.1227188  78.2196579  27.4959755  65.5198288  79.0736084
  85.7585678  49.6136894  74.3978348  86.0274429  49.0407677  75.1159592
  86.5232086  49.6526299  73.8233566  73.5340958  39.8993301  17.9580669
  73.0677795  40.6709595  17.6365566  74.0231552  39.5815315  17.1990833
  74.3827820  62.3244438  84.1798859  73.5804825  61.8159637  84.0615921
  75.0804977  61.7461433  83.8716812   7.2988086   1.2718008  86.8912201
   6.3571100   1.1054046  86.9330215   7.6815119   0.4255557  86.6596222
  31.4322929  47.8558769  35.5295067  31.6177425  47.0099792  35.1217155
  30.4768581  47.8983192  35.5691719  51.9947777  19.2099342  26.1491470
  51.4597626  19.5845089  26.8489227  52.8118553  19.7076015  26.1798363
  36.2535019  60.7439003  73.4218292  35.8093758  59.9862480  73.0411148
  35.5855255  61.1669502  73.9613419  -0.2607533  31.2699242  55.6562996
   0.6599294  31.0430336  55.5255508  -0.3021499  32.2108421  55.4854469
  10.0547848  38.8246193  10.3950062   9.2463999  38.5129433   9.9880638
  10.6826200  38.1159935  10.2539368  41.6880531  22.8386765  82.1523514
  42.2964363  22.5743923  82.8424683  41.3168449  22.0164070  81.8325043
  53.6424637  32.7499962  49.9997101  54.4813728  32.4381180  49.6603012
  53.0722237  32.7869186  49.2317963  77.2998734  47.1042442  67.0743637
  77.3331680  47.3556252  66.1513672  77.4968872  46.1675377  67.0747452
  57.3699570  40.6586380  70.2838440  56.4497528  40.3951302  70.2792206
  57.7234116  40.3087120  69.4660110   5.8867278  27.5184002  78.6255264
   6.4722157  27.8484020  79.3070908   5.0495887  27.9484863  78.8000412
  60.1141891  20.0406857   9.1435223  59.5200081  19.4245911   9.5720158
  60.5026855  19.5394611   8.4265327  62.3792267  20.2332458  16.0312004
  62.3169098  19.7891312  16.8768425  63.3195381  20.3065624  15.8678875
  17.0965595  12.8748751  25.5261669  16.5413074  13.3046684  26.1767082
  17.7939262  13.5068436  25.3514481  22.6408920  58.9442940  21.5093594
  22.2260380  59.8060226  21.5487404  22.0680618  58.4284058  20.9419460
  11.4914999   7.3919525  35.5950241  11.0539112   7.6193700  36.4154091
  12.4078550   7.2634139  35.8399811  31.1492634   1.7882141   2.2106194
  30.3547459   2.0258031   2.6886609  31.2289391   0.8422951   2.3335862
  77.6607895   8.7687254  21.7824879  77.9541550   8.8991251  20.8807316
  78.4664612   8.6191339  22.2772026  15.0912743   8.9920969  28.8998108
  15.5992193   9.1512241  28.1042595  15.5519104   9.4830093  29.5802898
  40.7827187  57.8966141  16.9748764  40.1524811  57.3187447  16.5446453
  41.2052956  58.3673248  16.2564831  79.0528717  51.0890541  89.2112427
  78.1654434  51.4444275  89.2604065  79.0447006  50.5311089  88.4335175
  16.1501141   8.6223316  76.4439621  15.7800808   7.7423701  76.3734207
  15.9741869   9.0250120  75.5935898  77.9599838   1.9715369  55.2420197
  77.9426346   2.1249330  56.1866913  78.8833160   2.0527980  55.0030937
  20.3140469   9.8226204  63.8979530  21.2130966   9.7821350  63.5719070
  19.7955055  10.0878134  63.1383324  27.1578293  58.9101181   0.5547298
  27.1754837  58.9043159  -0.4022897  26.2751617  58.6160469   0.7797870
   1.7329743  29.5269203  16.4600677   2.1859460  28.8303528  15.9848394
   1.6257675  30.2262192  15.8153038  47.0627785  55.9493942  14.0247536
  47.7521019  55.4048805  14.4049730  46.9978523  55.6540756  13.1165667
   6.7639208  44.0774689  46.8012199   6.7580280  44.4537964  47.6813202
   6.2663569  43.2640762  46.8852005  31.8180580  46.4234428  62.3203163
  32.3957672  45.8081093  62.7718124  32.3965607  47.1316948  62.0375786
  75.0475235  60.0587997  13.1761799  74.2601547  60.6023788  13.1478281
  75.0627365  59.7054749  14.0656528  63.2937317  46.0541534  21.3938313
  62.9646721  46.3567886  22.2402134  62.8525429  46.6109848  20.7523308
  52.3081779  23.9314899  10.6094465  53.0174828  23.5947742  11.1569328
  51.7541580  24.4265537  11.2129402  64.8873596  64.6520920  45.4620705
  64.6741180  64.3611984  44.5754242  64.3748016  65.4516144  45.5816040
  76.9336548  42.7061310  33.2355652  76.7393723  42.8326874  32.3068695
  77.5766373  41.9972191  33.2513161  19.1359177  20.8053589  60.9510612
  19.9908886  21.0936852  60.6314888  18.6147823  20.6770573  60.1584778
  63.0377617   3.2686734   6.0769987  63.3655167   3.5805466   6.9205284
  63.6263580   2.5514464   5.8416862  56.5463867  70.3556213  34.6547279
  56.6356392  71.1379089  34.1103973  56.0981102  70.6621628  35.4429588
  41.0151520  49.3837547  75.6495132  40.4988670  48.7538490  75.1466217
  41.4057350  48.8657150  76.3532944   9.9083242  52.0480270  32.1035385
   9.0219994  52.3511009  31.9065456   9.7913370  51.4025269  32.8005905
   1.6239531  27.9428444  70.5395737   1.4692461  27.5354538  71.3918228
   0.7546986  28.0086441  70.1442261  76.8872986   9.4552622  74.8371506
  77.5481720   9.0260658  75.3805313  76.2772141   8.7553587  74.6044083
  43.0532913  61.3626289  18.5618858  42.8805199  60.6329460  19.1568146
  42.1851234  61.6846504  18.3193684  50.9487190  44.6255875  75.2088470
  51.1549339  45.5353050  74.9940948  50.6531944  44.6553726  76.1187973
  83.2288742  63.7905312  13.2894440  83.2985916  64.1316605  12.3978148
  83.2019348  64.5709381  13.8430395  44.8601837  29.3058567  12.1775942
  45.3895607  28.6665039  11.7009211  44.8946533  30.0955086  11.6376925
  37.6681519  67.3825684  65.2203827  38.0755157  67.8299179  65.9621124
  37.7376862  66.4521637  65.4342499  48.6187286   1.7173777  29.6124783
  48.2581291   2.1452835  28.8358841  48.9184494   0.8642722  29.2984562
  23.4316616  44.1376228   3.1830332  23.1049328  44.8501053   3.7324448
  22.8235512  44.1064987   2.4444776  56.1145172  16.0938206  62.8956146
  55.9005661  17.0099735  62.7192116  56.9408035  16.1293316  63.3775101
  63.9023094   8.9109821  38.9530602  64.8372879   8.8881140  39.1568222
  63.5817871   8.0438852  39.2013397  51.8410339  30.0967484  19.7643261
  51.4356918  30.6180325  19.0713654  51.1245728  29.5693073  20.1174850
  11.6100216  60.5220032  81.2080765  12.2212248  59.7854881  81.1937866
  11.9161215  61.1008415  80.5098801  75.7358780  54.3505669  50.7911797
  75.3850403  54.4358368  49.9046860  76.6795044  54.2491417  50.6665916
   5.3187652   0.0183405  52.6448135   6.2397404   0.0290246  52.9054337
   4.9046617   0.6778051  53.2014618  29.0833035  59.4308815  28.0818653
  28.5699043  59.6126595  27.2947140  29.9760265  59.3025475  27.7612286
   5.1720262  14.2463408  84.1668701   4.4853234  14.5011158  84.7831192
   5.9178071  14.0162230  84.7210236  46.6318855  65.9662094  79.0014648
  46.0138359  66.4653091  78.4674683  47.1217537  65.4385986  78.3706818
  35.5503578  61.1464539  59.1141510  34.7193756  61.1911354  58.6411743
  35.3903542  61.6284409  59.9255180  86.2152176  64.1142426  80.0162277
  86.0150375  63.5871964  79.2426758  85.5032578  64.7524033  80.0620422
  37.8725052   6.4944234  73.8120117  38.4890785   6.1746287  73.1533737
  38.4118042   7.0017986  74.4186020  77.8691940  38.6189766   4.6275897
  77.7480774  37.7362404   4.2778187  77.4997559  38.5798378   5.5097551
  47.4788933  64.3720703  76.9774246  48.3916435  64.3892899  76.6896286
  47.0714989  63.6917801  76.4412613  21.2035732  57.7779312  19.5889568
  20.6080570  58.2745323  19.0277252  21.6473503  57.1746979  18.9927998
  28.1572151  25.0455303  21.8948631  27.6606827  25.6577892  21.3518848
  27.5208931  24.3747482  22.1426105  66.0119324  65.4373474  80.8020172
  66.2277679  64.5100555  80.7031097  65.0897522  65.4425735  81.0585251
   5.9107885  66.1742172   0.9760731   6.5800986  65.5858688   0.6266487
   6.3548918  67.0177383   1.0625472  71.5308990  13.9069242  23.9597034
  70.6600647  13.6094055  23.6963501  71.3641434  14.6051617  24.5928593
  32.4035034  21.1477280   3.1447179  32.5341187  22.0755310   2.9488802
  32.3071785  20.7332115   2.2873211  66.4922028  19.0702190  30.6926250
  66.3878860  18.1426468  30.9046669  67.1118164  19.3968372  31.3450336
  66.5563812  59.6128922   9.8501863  66.2287979  59.4137878   8.9731016
  66.5386963  58.7729301  10.3088598  12.2883091  26.3903427   6.0494347
  12.9012384  26.1324482   6.7379403  11.5651770  25.7680244   6.1271048
  73.6664352  32.8062820  54.3766594  72.7912674  32.9512978  54.7362099
  73.6471252  31.9047222  54.0556450  84.4816818  42.6509857  75.6518555
  84.4349594  43.6066170  75.6805344  84.9193420  42.4573593  74.8228836
  46.2004128  18.0639801  17.4878616  45.5715942  18.6299229  17.9356613
  46.5953865  18.6255131  16.8208466  56.7374649  60.9048653  63.2186394
  56.3218498  60.2626877  63.7940559  56.0127106  61.4375534  62.8912239
  79.0857010  41.2124100  50.3200035  78.7091599  40.3371048  50.4110374
  78.8236465  41.4959679  49.4441299  40.2325287  13.0367327  71.7570038
  40.1236801  13.5129061  72.5801926  40.0543175  12.1238279  71.9830017
  36.5503540  43.5371056   0.2028935  35.9105186  43.4420128   0.9084424
  36.2334442  42.9551735  -0.4878712  53.9580917  22.0936108  40.1955414
  53.4645576  21.8659496  39.4076157  54.2027473  21.2504311  40.5768890
   4.4219885  70.3514023  88.6751938   3.5272880  70.5821533  88.9251862
   4.4053273  69.3993683  88.5772705  59.6394119  47.0085793  22.2975922
  60.3472099  47.4628067  21.8405018  59.9219093  46.9836426  23.2118168
  56.2585945  40.0636292  58.2750435  56.8209229  39.6103897  58.9032097
  56.3693085  39.5757790  57.4589691  86.5900879   4.7375827   5.3523388
  86.3726730   4.5620193   6.2678385  85.7514191   4.9521604   4.9438972
  58.7028275  67.4463730  18.2016525  59.3486099  67.1494675  18.8427792
  58.1549492  66.6782608  18.0402088   7.8141212  22.7229538  34.4128876
   8.4770193  22.5645561  33.7407951   7.0334306  22.9814663  33.9230652
  59.9424973   4.3308620  60.6389389  59.8328247   5.0730672  61.2333603
  60.5923119   3.7742755  61.0681114  69.5052948  67.7631836  34.6487274
  68.8224716  67.7746506  35.3194313  69.0796509  67.3834534  33.8800545
  42.5481873  17.2150440  17.8268890  42.4997826  16.5058079  18.4678822
  41.8183212  17.7918510  18.0523262  68.4140472  70.3943100  35.5400467
  69.2099838  70.5902863  35.0457687  68.4823685  70.9337997  36.3277779
  62.2129745   3.2315810  78.1542206  62.1512222   4.1283126  78.4832993
  62.6305885   3.3191128  77.2973862  86.7684021  67.9688492  31.5132179
  85.8769989  68.1379700  31.2082214  86.6597824  67.3635330  32.2467194
  42.8639069  63.4049683  61.1804276  43.6565323  62.8688622  61.1564713
  42.6621895  63.5754814  60.2603912  44.9422913  62.9642639   3.7681239
  44.9134445  63.4027367   2.9177480  44.1767616  62.3896370   3.7673995
  65.7798386  70.1922379  53.7963982  65.4628983  71.0739365  53.6004753
  65.3094101  69.6269684  53.1837044  43.4857674  51.0103722  84.4504395
  42.5582619  50.8982506  84.6587601  43.9078064  50.2294807  84.8086700
  73.0554581  11.2169981   0.0791785  72.3876266  10.6364698   0.4441766
  73.5806961  10.6516294  -0.4871376  35.4050102  47.8405914  78.1364059
  36.3372269  47.6508560  78.2422867  35.3729782  48.7736435  77.9251709
  62.4889107  61.3718910   8.7844524  63.3203659  61.8447990   8.8201313
  61.8379707  62.0094414   9.0777750  22.4019508  22.5888920  67.1909485
  23.3426876  22.7656593  67.1895065  22.1760025  22.5019283  68.1170197
  16.5088062  29.8437939   6.3337841  16.0597553  29.0525894   6.0361557
  17.3198547  29.8643150   5.8258371  85.8758545  57.0442314  46.7747421
  85.3737106  57.6446114  46.2237206  85.3386154  56.9329071  47.5590973
  22.6661377  46.2343483  21.3317699  22.4215832  47.1558418  21.4170952
  23.3423901  46.1034813  21.9964428  32.2930870  55.2080002  65.3193817
  32.1775970  56.1502190  65.1964264  32.3097610  55.0906715  66.2692184
  81.3603134  55.5620804  21.2681217  82.0196228  56.1542473  20.9063454
  81.8477097  54.7694588  21.4926777  19.4514847  30.3027496  16.9483013
  20.2886448  30.6120548  17.2943134  19.4147415  30.6555519  16.0592480
  53.3474846  45.2925034  46.1389351  53.1375580  44.4830856  46.6047783
  54.2909775  45.2426872  45.9854126  50.8441925  67.6589966   8.5337830
  50.1168137  67.8312073   7.9358702  50.6141624  68.1322708   9.3333635
   2.9079912  55.4104919  67.1376343   3.3320191  55.7344208  66.3429642
   2.1829185  56.0173721  67.2866211  41.4000549  31.3500099  46.8616562
  41.4089966  30.7059460  47.5697060  40.6009560  31.1561852  46.3716469
   7.9499760  34.0944252  55.7607880   8.8522234  33.7770462  55.7226715
   7.4266243  33.3702240  55.4174690  38.6448555  20.2525272  74.0705338
  38.1858253  20.2586823  74.9104691  39.1644058  19.4487762  74.0874100
   9.5515633  31.0477333  65.0284042   9.9294128  30.4682102  64.3668747
  10.0970831  30.9142170  65.8035202  48.6545181  66.7078018  84.7595215
  48.1424828  67.2154846  84.1299896  49.0688438  67.3659973  85.3175049
  63.4352989  43.9842224  79.5298538  63.2819061  43.4646759  78.7406921
  64.3572388  43.8348656  79.7394867  69.7466202  29.4633770  13.9922886
  70.4739075  29.3079033  14.5948744  69.8160553  30.3911896  13.7674055
  61.8718643  67.6123734  58.7740746  62.6602554  67.6142120  59.3169098
  61.2563210  67.0528259  59.2476158  12.2654047  24.9313736  19.7701550
  11.9890890  25.8450413  19.8415012  12.7772722  24.8983574  18.9619884
  34.8394012  54.6538429  57.7439880  34.5948334  55.5073051  57.3861885
  34.1483307  54.4515877  58.3746605  58.6700172  47.1719017  55.8896484
  59.0941162  46.5994911  55.2503395  59.3778191  47.7220078  56.2252502
  69.5443726  11.7275229  13.5352612  70.0965500  12.4151831  13.9073477
  70.1631927  11.0873022  13.1839695  29.0350342  46.9971848  73.7432327
  28.3298264  46.3871689  73.5269165  29.1464691  46.9085388  74.6897812
  34.1538734  52.3604279  52.8469086  34.7255745  51.5989914  52.9449158
  33.3830795  52.1506691  53.3742676  38.9372253  61.8294983  26.7800694
  39.0793228  61.2370148  26.0418262  38.6349602  61.2612000  27.4885254
  55.0401764  19.8939819   9.0705595  54.1934433  20.3035297   8.8929491
  55.4031219  19.7089424   8.2043839  54.4850578   6.0091472  60.2380943
  55.1546211   6.1969652  59.5803413  54.9732971   5.6613007  60.9843216
  61.1341934  62.8458710  12.7164640  61.8401451  62.2104797  12.8353968
  61.1559296  63.0560913  11.7828856  81.5568466  42.4243355  13.4439087
  80.7507019  42.8921204  13.2258663  81.7300491  42.6578140  14.3558960
  13.8879042  44.3075333  25.5261497  14.7512636  44.6752090  25.7149849
  13.8812227  43.4657135  25.9817009  17.6883030  63.9468460   8.2376003
  17.0039921  64.6123123   8.3090763  17.2141476  63.1153564   8.2319689
  45.1814766  20.9728374  12.3650570  44.3591652  20.5698338  12.6436653
  45.0468750  21.9106598  12.5014620  69.0538483  37.0553398  62.8887558
  68.4551620  36.7853508  63.5851173  69.8450012  37.3361588  63.3485832
  81.2934799  34.2946968  11.2033110  81.9546738  33.6593018  10.9288616
  81.2745056  34.2235451  12.1576748  40.9357529  51.2804260  84.5708847
  40.2698479  51.5990601  83.9615555  40.5664406  50.4729996  84.9285202
  65.8330536  34.5972824   2.5319276  65.0087433  34.8713608   2.9339566
  66.1659088  35.3870773   2.1057143  21.3964081  65.4953232  74.4887543
  21.7150345  65.7992859  73.6388626  22.1697006  65.5074692  75.0527573
  42.6991272  50.9520760  63.3532028  43.4396858  51.2669144  62.8348579
  42.0054016  51.5918427  63.1929665  31.1026402  13.4408026  70.9526215
  30.8954754  14.0323277  70.2291489  30.2514343  13.1215887  71.2522583
  56.0917015  23.2741184  78.3117905  56.0832787  23.8972874  77.5852814
  55.1684418  23.0749989  78.4672623  22.2808609  27.1221981  59.2895889
  22.8501225  27.8223286  59.6089478  21.5041447  27.1721191  59.8467712
  36.5371284  59.9484291  15.5278330  35.7482834  60.0745544  16.0551357
  37.2473221  60.2830276  16.0754681  84.4442596  47.3830490  58.7718163
  84.9162979  47.2008781  59.5843582  84.7124863  48.2702560  58.5327530
  83.7582169  21.6537590  34.9208107  83.6716080  21.7125683  35.8722687
  84.1713867  20.8035946  34.7700119  59.6389313  61.6116714  72.2381592
  59.3505402  60.8949814  72.8033371  60.4197884  61.2723732  71.8007050
  47.3064766  43.0468254  84.4669113  48.2125473  43.2595978  84.2433090
  47.3413544  42.1396637  84.7703476  62.7516556  32.9344292  48.8212128
  62.2156982  33.2072449  48.0765305  62.5269547  33.5520897  49.5170784
  14.1633081  25.5360012  14.2564602  14.1159172  26.4621944  14.0194921
  14.7711554  25.1571121  13.6214819  41.6387100  25.7289200  72.2210541
  40.9736786  25.4051266  71.6135025  41.4300804  25.3042088  73.0531158
  47.0831413  59.2013168  19.1272659  46.2554703  58.7908630  19.3777084
  47.7347527  58.7942581  19.6981754  14.8235321  70.4365005  41.3539848
  15.0173416  70.0953217  40.4809074  14.6990976  69.6559982  41.8939514
  47.7568283  62.5676384  12.0758743  47.8706512  61.7633591  11.5695028
  47.5847588  62.2666168  12.9680672   6.6570225  27.7484512  11.0156069
   7.1152191  28.3073139  10.3879452   6.5170679  28.3095970  11.7783394
  78.9413376  63.3956490  39.2345619  78.3475113  64.1436539  39.2984581
  79.7668152  63.7132149  39.6005974  21.2322712  56.0370216  37.9662285
  21.2915573  56.4016495  38.8492699  21.1317959  55.0948944  38.1023750
  55.8657990   2.5248680  71.3915024  56.0264969   3.4117732  71.0693130
  55.3716507   2.1009977  70.6898041  55.6476784   4.3516207  75.8585205
  54.8301506   3.8568101  75.8033676  56.1947479   3.8442447  76.4581146
  20.7659798  45.7776527  41.2747345  21.1122303  44.9974174  40.8416405
  20.9484730  46.4915886  40.6638145   4.8926506  31.9433136  60.6198235
   4.6219945  32.3364716  61.4495277   4.2317500  32.2327118  59.9907837
  57.5943489  20.9637089  47.1799355  57.6651917  20.7340393  48.1064682
  57.1391945  21.8057594  47.1760254  50.8831482   2.9365807   4.3853712
  50.6060829   2.1921320   4.9194698  51.8395538   2.9050195   4.4082766
  85.6649017  51.2666092  68.0833206  86.3824615  51.1797066  68.7108459
  85.6622162  52.1948318  67.8495865  19.7780590   9.5861664  12.2014303
  20.6337204   9.8744612  11.8836851  19.6827164  10.0125723  13.0530872
  10.2034569  59.3344727  21.4398861   9.4073544  59.5781746  20.9675903
  10.0698919  58.4167519  21.6769047   4.8847919  19.9134483  45.6595039
   5.1012383  20.4734058  44.9139633   4.0381675  19.5288982  45.4323921
  59.1734924  25.4015102  27.0061378  58.8456688  24.8705826  27.7320004
  58.9620056  24.8933029  26.2230492  62.7989426  52.6093712  21.9544220
  63.4346924  52.0679512  21.4865379  62.9674568  53.4990005  21.6439400
  71.0585251  29.8763657  19.4975147  71.4540710  30.5943489  19.0032673
  71.5923691  29.8078480  20.2890644  45.4212990  51.6298981  15.7839365
  44.6801720  51.3446007  16.3183174  45.3314667  52.5817909  15.7385292
  75.4192352  56.6923141  33.5648079  75.7912140  55.9005203  33.1763153
  76.0250473  56.9205208  34.2698936   8.9984198   3.8032501  57.0049248
   8.4868746   3.9695981  57.7966843   9.3066645   4.6676702  56.7329025
  78.2360382  67.6160583  26.5384197  78.8526917  67.2596512  27.1779079
  78.4022903  67.1146774  25.7401638  69.9760361   9.0628996  27.1567230
  69.3959579   8.3743296  27.4816952  69.4201202   9.5959291  26.5883350
   3.6301165   8.7312794  67.6929092   3.1431444   9.2761354  67.0746689
   3.1393015   8.8009472  68.5117340  44.6953583  13.0260878  69.8610611
  44.6691055  13.8494005  69.3735199  45.5080338  13.0718069  70.3647461
  85.7505341  38.2658997  40.7562027  85.9532471  37.4770203  41.2590027
  86.2906647  38.9487839  41.1539001  25.7564583  59.4351082  75.7682648
  25.4061966  60.3064270  75.9536133  25.0259628  58.8414116  75.9418488
  62.6539192  20.3640480  45.4846764  62.7677078  20.2851562  44.5375443
  63.1629372  21.1387501  45.7233620  83.5360718  22.1580677  44.3642921
  84.0331573  22.9743423  44.4174767  82.7310181  22.3357697  44.8506546
  62.6039085  56.9641075   9.9071560  63.1580238  57.1370239  10.6682663
  63.2207222  56.7807846   9.1985216  81.9589310  64.7680054  85.5575867
  81.3220367  65.1867371  86.1366043  81.4484711  64.1254807  85.0648117
  85.5865784  21.2062073  10.8386154  86.0002213  20.6172028  11.4696531
  85.8503494  20.8651085   9.9840326  23.5733776  11.2177811  82.9600677
  23.9701176  11.8072329  83.6014557  22.6819611  11.5486603  82.8499374
   5.8461032  24.9360657  88.9843140   6.3404660  24.7419472  88.1879807
   5.3602128  24.1317635  89.1666336   5.7259784  44.1016350  39.8257713
   6.0751357  43.5122986  39.1571884   6.1814842  43.8493423  40.6289482
  17.0825977  58.4843864  35.0856667  17.0233746  58.3517380  34.1395569
  16.1730499  58.5587883  35.3744888   4.6286540  46.7332687  85.1600952
   4.1222863  47.3144073  85.7276306   3.9726436  46.3018570  84.6125870
  75.3490906  44.6478577  72.5156708  75.9655457  44.6470413  71.7834091
  75.3406448  43.7412643  72.8226700  69.6379395  45.4822884  72.2871933
  69.9494629  44.6658859  72.6779251  70.0416946  45.5019188  71.4195404
  71.4852524  13.2543211  44.3303528  71.9731598  13.5113325  43.5479698
  72.1567764  12.9584150  44.9449501  40.1313133  71.1759415  71.4981232
  40.1777954  71.1208038  70.5436478  40.3968773  72.0732727  71.6994095
  81.2321701  25.5825043  28.0566845  80.7804947  24.7568436  27.8820286
  80.8709412  26.1936111  27.4145813  22.5293407  27.9695053  34.0336189
  21.9491196  28.1271954  34.7784081  22.7569275  28.8440247  33.7179413
  39.1277199  46.5308533  84.2586594  39.9745903  46.2108765  84.5695572
  38.6079369  46.6447563  85.0543213  63.9559288  28.3433189   8.6343145
  63.7784500  27.4462585   8.9171858  64.6803894  28.6307716   9.1899729
  61.7454300  53.2358131  81.8795395  61.5977020  52.3142891  81.6669235
  62.1842499  53.5924416  81.1072083  14.3534241  63.5047913   6.8620758
  13.4371843  63.2519493   6.9752531  14.8484898  62.8161583   7.3058400
   9.9276123  32.1486282  34.2342644   9.5318108  32.7802696  34.8347702
   9.4122581  32.2260590  33.4313660  12.0865641  29.8011570  56.3057480
  11.4572344  29.8687344  55.5876884  12.5920582  29.0127888  56.1078033
  36.6717834   4.0098658  85.3424530  36.0403061   4.5531816  84.8709869
  37.4923820   4.5003610  85.2948685  64.1738586  17.1099091  23.1341381
  65.0201035  17.4059334  22.7987633  63.6508904  16.9422607  22.3501568
   9.0873604  61.8764648  60.3548965   8.7036629  61.0015869  60.2948952
   8.6540537  62.2768555  61.1086655  64.5294724  33.7806740  60.5787544
  63.7236710  34.2006721  60.8796158  64.7098160  34.1877937  59.7314262
  67.5643158  70.2315140   8.5778313  68.1950531  70.3385849   9.2898245
  66.7103882  70.2464752   9.0100594  11.4840288  48.3160286  61.2170029
  11.1368999  49.0150681  60.6628571  10.7096462  47.9215431  61.6181831
  39.0906067  70.1054688  10.7687073  39.5394287  69.3311310  10.4293089
  39.4028511  70.1875610  11.6698160  49.3023338   1.1300073  76.9473648
  49.8618317   1.1913700  76.1731415  48.4457207   1.4353180  76.6486435
  51.9092789  43.2508240  49.6376038  51.4732018  42.8226929  50.3743324
  51.8207054  42.6308479  48.9137115  45.3572121  68.9053421  26.8608665
  44.7994614  68.8450546  27.6364384  45.0564575  69.6945114  26.4103222
  38.7310905  38.7008896  34.8476906  38.9777374  39.6257133  34.8575325
  38.6881409  38.4743347  33.9186821  43.3496933  43.3939400   3.1552336
  43.6556282  43.2253151   4.0464139  43.1714020  44.3342171   3.1370993
  79.4766846  45.4123497  81.4556961  79.4596329  46.3658295  81.5382538
  79.7017899  45.2553291  80.5386887  63.7744370  31.3424911  14.1534033
  64.2780762  31.8741646  13.5370398  63.4920731  30.5848389  13.6410894
  81.6837997   1.5533041  63.6823616  82.1151352   1.2354763  64.4755554
  81.1155090   2.2611768  63.9860001  48.9514847  24.1236477  27.0902462
  48.4027863  24.4697456  27.7940769  49.2167015  24.8962917  26.5913353
  49.9018250   5.6392069   4.8384361  50.5152359   5.0500455   4.3992920
  50.1450157   5.5923615   5.7630420  58.8932076  62.9232407   8.7759657
  58.8001518  63.8735390   8.8430882  59.0892563  62.6381493   9.6684456
  41.4333916  48.8883934  68.8189621  41.8801765  48.9276466  67.9733429
  40.6426926  48.3765450  68.6485519   7.5498900  57.6071053  64.5056305
   7.3482337  58.1745834  63.7616310   8.4127636  57.8973808  64.8013000
  25.6285725   4.1581712  42.8272400  25.4584980   4.3664455  43.7458954
  26.3832512   4.6991329  42.5947495  65.1436539  49.2688904  83.4513931
  65.2159729  49.6634674  82.5823059  64.9045944  49.9964561  84.0256195
  80.7965927  63.2226562  49.5810852  80.4001541  63.2686386  50.4511108
  80.5813751  62.3448334  49.2658997  77.6325836  61.4942207  72.3047333
  77.2537079  60.8399658  71.7176743  78.3269958  61.0263443  72.7685318
   8.7962971  28.7050591  30.1309719   8.5579042  28.1324692  29.4019032
   8.9975948  28.1061268  30.8499928  77.3290558   1.7334059  22.9383335
  77.6917191   1.0143516  22.4209671  78.0951996   2.1752717  23.3043957
  59.8121414  36.4379578  81.2417831  59.6189995  36.0716133  82.1047516
  60.0847778  35.6849594  80.7174759  81.2542648  20.7537422  18.6506252
  81.4176254  19.9981632  19.2151108  81.9468079  21.3750153  18.8756580
  41.4534912  41.9241562  73.7429962  41.6223717  42.4671898  72.9730453
  42.0722847  41.1981049  73.6644135  56.8800087  42.3954239  31.9580669
  56.9667664  43.1934166  32.4795189  56.9342537  42.6951904  31.0506382
  57.1466866  35.4551086  61.4820862  56.5389442  36.0530815  61.9171829
  56.7398605  35.2748833  60.6345940  15.1498852  30.6820335  85.4352188
  14.4781418  31.3289471  85.2195892  15.7663050  30.7240391  84.7041245
  84.2994766  49.3582077   2.7695227  83.5734253  48.8573723   3.1413367
  83.8898163  50.1483765   2.4173305  42.1889076  27.8460503  10.1702738
  42.5434532  28.1423359  11.0085716  42.5960884  26.9917870  10.0265064
  75.4000626  48.9443359  46.9595604  74.6995087  48.2981644  46.8705864
  75.8449326  48.7048759  47.7725639  85.2609940  17.9202385  77.9025116
  84.3538666  18.0802689  78.1627731  85.3559418  18.3813286  77.0690765
  84.6754456  48.2036667   6.5646310  85.3632431  48.4781380   5.9581423
  84.6292343  47.2533112   6.4601436  36.2956314  53.7990913  54.3109207
  35.9701958  53.4591942  53.4773750  36.6718063  53.0363235  54.7501335
  23.3479633  51.7201385  10.2919550  23.6365147  51.6689720  11.2031908
  22.6621132  51.0562859  10.2202673  37.3413124  54.5273247  70.3419952
  38.2477531  54.3564949  70.0862274  37.1086235  53.7899399  70.9062271
  45.8228493  58.2702179  13.3846970  46.2621078  57.4458618  13.5938025
  45.6335716  58.6635551  14.2365713  73.1531372  23.8892937   8.2333393
  72.4235764  23.3828773   7.8762612  73.1708984  23.6610756   9.1627645
  22.7387753  45.7556686  50.0189247  22.7088318  45.8314590  50.9726486
  21.9383774  46.1866417  49.7191620  22.3919792   2.6450183   9.4164295
  22.2223358   1.7400285   9.6780529  23.0106850   2.5722787   8.6896954
  11.1713228  44.2970085  61.0290298  11.2726269  43.4191704  60.6611023
  11.8165226  44.8282166  60.5623779  67.0373764  55.6743660   2.1280010
  67.4810486  55.4805298   1.3022832  67.1320114  54.8739815   2.6443920
  80.6765137  35.7406120  55.9783096  79.8758926  36.2370377  56.1480293
  80.9990463  36.0838585  55.1450119   5.9713149  25.1125031   5.1527185
   5.6521311  25.9484348   4.8127632   5.8263879  25.1670513   6.0973096
  40.9636078  53.8037949  73.0741348  40.5262146  52.9540634  73.0204926
  41.5574684  53.8153000  72.3235168  26.1306000  22.7436275  10.0318975
  27.0706825  22.9205189  10.0663862  25.9127960  22.7866268   9.1007996
   2.9491661  24.0475521   5.8890185   3.1711833  24.8628864   6.3386545
   2.7172515  23.4414749   6.5926633  63.9797096  10.5962791  31.9327602
  63.3353539  10.7865582  32.6145477  63.9620171  11.3665638  31.3647976
  65.3896866  55.8973389  40.9116096  65.2773209  56.8478851  40.9037971
  64.8917465  55.6035576  41.6744843  76.7882996  24.4173679  62.4867096
  76.7246933  23.6104488  62.9976578  76.3088303  24.2285118  61.6800652
   2.8534510  45.9624100  88.1643372   3.4252293  46.7096825  87.9885864
   2.0123088  46.2087288  87.7795792  49.1380577   2.2711091  87.0217667
  49.6488838   3.0534859  86.8139877  49.4744301   1.9838959  87.8706436
  41.5732841  54.9012833  22.3889427  42.4980316  54.9942780  22.1599789
  41.2253532  54.2922058  21.7376328  10.1572552   4.0539165  68.9299698
   9.9542351   4.9001341  68.5313110  11.1121120   3.9961493  68.8961639
  63.5904808  57.5126381  70.1343918  63.4923401  56.8214035  70.7892151
  64.4801102  57.8411217  70.2643585  12.7347660  45.6542740  22.8738365
  13.4568348  45.6738625  22.2457714  13.1610565  45.6907234  23.7300949
   6.2391372   9.0280886  74.6629028   6.6992517   9.0350752  73.8235703
   6.8231492   9.4955597  75.2600937  55.9352722  42.4710960  86.2875290
  56.6452484  41.8295670  86.3120575  55.6005440  42.4923058  87.1840439
  51.9394188   9.3518057  27.3542004  51.2743263   8.7073660  27.5962353
  51.6516953   9.6853266  26.5043697  71.7312164  33.1494560   5.2422361
  71.4168472  33.3582878   4.3625827  71.1762772  33.6684532   5.8243999
  73.7382126  20.5076103  10.9704733  74.2944794  20.2041912  10.2530184
  72.9257126  20.0116920  10.8697948  46.6272392  11.2742271   2.7004073
  46.2889900  12.0728626   3.1053789  46.3131104  11.3122091   1.7970178
  12.1522751  52.0073090  30.6500301  11.2633696  51.8890877  30.9848480
  12.5218992  51.1244812  30.6348972  18.8810768   3.3417914  32.6925354
  19.0609589   3.2250993  33.6254082  18.9379654   2.4596069  32.3254585
  81.4814987  38.5418549  50.4627876  81.7645798  37.6295052  50.4018974
  80.9723816  38.6883774  49.6655655  39.6065331   2.3937960  33.9729118
  39.5873756   3.3507752  33.9654350  38.7313538   2.1344585  33.6847458
  69.0118027  22.1153450  59.9204674  68.9695663  22.7450123  59.2007713
  68.0978622  21.9683876  60.1640854   9.0165119  22.2583809  86.0266418
   9.4514589  22.4894676  85.2058792   9.5572796  22.6612644  86.7059708
  53.5004349  50.7482147   9.0372810  53.5572815  50.2184944   8.2420464
  53.1374283  50.1548729   9.6948576  45.5766068  32.4893608   8.3546524
  44.7210350  32.7440681   8.0091763  46.1993942  33.0440712   7.8848991
   0.6409590  27.2671051  56.8159828   1.4205526  27.7803364  57.0282516
   0.1463288  27.2330952  57.6347694   6.7700214  69.1669006  84.3484726
   6.8439498  69.8471603  85.0178070   7.4058990  69.4194336  83.6790619
  23.5139408  38.3647270   0.1514199  22.9127140  37.7315941   0.5437159
  23.6987648  38.9871216   0.8547674  72.7837906  44.3215027  48.3692551
  71.9645004  43.8570251  48.1981964  73.1246033  44.5339279  47.5003738
  34.3233109  53.4301567  71.9830399  33.5739212  53.9019012  72.3465042
  34.6220779  53.9780045  71.2572098  45.6233253  63.3688583  24.1881294
  45.2801781  62.4760437  24.2250385  45.6571198  63.6504478  25.1023483
  49.2773018  28.0595016  88.9991226  49.9514542  28.0965614  88.3206100
  49.6856232  27.5744324  89.7162170  42.9358521  24.3716087  86.5678635
  43.8514366  24.5296879  86.7979736  42.4841957  24.3118973  87.4096909
  63.7997017  50.6774254  81.4212341  63.8663406  51.0619659  82.2952576
  63.9044037  51.4187279  80.8247986  84.9504318  55.2965851   1.8597972
  85.4123383  55.2506523   1.0226806  85.2689056  56.1031227   2.2651379
  55.4048576  36.8182220  37.5234795  55.3249779  37.7720375  37.5329056
  56.0269737  36.6230316  38.2242661  78.4822540   0.5644440  60.1604919
  78.4237900   0.1747479  61.0328140  77.6570740   0.3281819  59.7368240
   4.6244283  42.0171738  48.3528519   3.9678915  42.5043030  47.8549614
   4.6139150  41.1402702  47.9692268   2.3523562  15.9525652  50.2226410
   2.0441382  15.7977009  49.3297539   2.9022288  16.7330723  50.1542206
  36.6179276  24.9264832   4.2608485  37.1962013  24.2333279   4.5792313
  35.9256973  24.4631348   3.7893002  64.6764145  17.7741222  82.5966797
  64.4087982  17.0150280  83.1147461  64.1240311  17.7379322  81.8157806
  20.3577042  50.4188194   3.4609277  19.6742935  51.0366211   3.7207365
  19.9137611  49.8008690   2.8801632  79.0703125  25.0621777  43.6387482
  78.5215988  24.5643539  44.2448120  79.3283005  24.4261227  42.9715843
  46.0909195  44.3138924  36.6337509  46.2941856  43.5088921  37.1100769
  46.5302544  45.0038223  37.1309586  56.8726616   8.4730539  82.4871445
  57.5819473   7.8393855  82.5949097  56.9840355   9.0834665  83.2159958
  47.7906685   8.8238792   2.3083818  48.3183784   8.7372112   3.1022599
  47.0840683   9.4208651   2.5544639  71.5381241  64.2720947  16.7136955
  71.6984787  64.7203598  15.8832874  71.1903992  64.9526672  17.2900105
  81.0983505   9.5691729  13.7118731  81.0472641  10.0902891  12.9105864
  81.3509674   8.6954069  13.4136305  71.7042084  26.7245789  47.3007355
  71.7625961  27.5165920  47.8350906  72.5579147  26.6611156  46.8724823
  22.0728970   9.9636974  10.5781050  22.0472965  10.9204855  10.5896273
  22.8940964   9.7407770  11.0164766   2.7813904  59.2469063  87.1284103
   3.3985553  59.9502716  87.3299408   2.4976542  59.4267349  86.2320938
  77.1102371  36.2939758   3.7518573  77.0508499  35.3437347   3.6531372
  77.1399460  36.6265831   2.8547931  64.6836548  22.1304398  81.3961029
  64.8115616  21.9769974  82.3322296  65.3050690  21.5403900  80.9695816
  42.2356720  39.7899818  34.9015045  42.2826309  39.2151070  35.6654053
  41.8485527  39.2458725  34.2157097  40.2589226  56.7084427  79.2040405
  39.4613075  56.2358856  79.4422150  39.9472809  57.5424500  78.8525543
  42.5424652  59.1050911  37.8420792  41.9970665  58.6738243  37.1842194
  43.3740387  59.2655067  37.3959999  13.1675005  51.4856758  59.2174873
  13.4408264  50.8237686  58.5823479  13.9871559  51.8317833  59.5704842
  53.5108223   1.2267100  52.3951645  53.4158478   1.0904266  51.4524879
  53.3745956   2.1663988  52.5162392  84.3438492  23.1708927  75.5476532
  84.2403564  23.4685345  74.6438141  83.8720245  23.8202343  76.0691605
   7.9209590  18.5686588  81.1118698   7.2908182  19.2817402  81.2151566
   8.1894608  18.3549957  82.0054474   2.7415774  54.8547020  81.4298477
   2.9948416  55.5107307  82.0792389   2.6121840  55.3536148  80.6232605
   4.4693394  37.3799171   4.6934886   5.4101167  37.4250984   4.5228171
   4.0663447  37.7734184   3.9195476  64.2440491  65.2726593  62.9964981
  64.5172272  66.0689926  63.4519844  65.0565414  64.7866135  62.8556328
  27.0230579  66.8934860  41.9076500  26.4471416  66.3204880  41.4014626
  27.9073772  66.6240005  41.6594810  63.0322609  36.5451775  20.4367580
  62.8228683  35.6143417  20.5138092  62.8983002  36.7449150  19.5102654
  75.6556320   6.5931778   8.2246923  76.5246735   6.4369292   8.5942497
  75.8055344   6.6645951   7.2820048  19.4304066  15.5784168  18.7803555
  20.0127373  16.2572994  18.4394073  20.0125256  14.9699678  19.2355003
  83.0804291  63.9574394  10.2966290  83.1221008  64.3186798   9.4111919
  83.8341980  63.3700104  10.3513613  12.2628412  66.3884430  60.9529266
  12.2758389  66.3183746  59.9983826  11.4118681  66.7784348  61.1528854
  31.2492943  64.1128845  63.8265419  30.6980553  63.3600502  64.0400848
  30.6297722  64.8089218  63.6075439  14.4293165  59.7126236  63.4754105
  13.8270416  59.0601997  63.8329582  15.2740631  59.2639885  63.4385223
  72.9593353   5.4926271  72.6181870  72.4272766   5.7105641  71.8529129
  73.8345795   5.3346996  72.2642822   3.8692629  35.5527763  71.9296570
   4.6486049  35.8485565  72.4001617   3.5998292  36.3113670  71.4117966
  44.4005852  70.4779968  50.5084038  44.9662209  71.0151443  51.0631714
  44.3820152  70.9376755  49.6690102  71.6062469  25.8335514  72.5657043
  72.1763229  26.1903801  73.2468185  72.1958008  25.3439770  71.9921417
  84.1182404  63.5488014  24.1202602  83.4638672  64.1707916  23.8022079
  83.6107712  62.7813377  24.3842869   8.3622551  51.2066078  29.3535690
   7.5531745  51.3196068  28.8547192   8.1078444  50.6698914  30.1041965
  84.4739304  25.3471012  78.7808914  83.8024292  25.2567101  78.1047668
  84.0580826  25.8751888  79.4623718  21.2462959  31.6497650  86.6719742
  21.9977303  31.5757313  87.2602768  21.0957527  32.5917549  86.5931091
  18.7778664  69.6455383  50.2555351  19.1575184  70.0237808  49.4624176
  17.8740368  69.4420319  50.0148964  62.5041008  25.6384487   6.1690493
  62.3467636  24.7856255   6.5742259  62.2071075  26.2722683   6.8219652
  62.2753868  58.4289818  73.7767029  61.4727745  58.6077690  74.2666931
  62.2139969  57.5018959  73.5465317  27.5041618  39.2942581   3.0312426
  27.7901173  38.4625626   2.6534200  27.8128262  39.2646484   3.9368258
  16.2533684  41.5171280  26.5890827  16.4833965  41.9775352  25.7820263
  15.3072767  41.6367531  26.6717415   3.1450994  28.9872532  82.1567764
   3.0108011  28.0398636  82.1313553   2.8501189  29.2476463  83.0293655
  44.7431679  36.5592155  19.1412029  44.8447723  37.5030632  19.0184956
  45.2653160  36.3611755  19.9186172  11.7383060  36.1673126   9.8460398
  11.4826536  35.2476234   9.9171162  12.2768412  36.3267937  10.6211376
  74.7467728  26.1160164   2.5331724  75.0061188  25.2197990   2.7471020
  74.0421295  26.0151615   1.8932184  64.9590530   1.0560414  33.8613968
  65.2693253   0.9480120  32.9623489  64.0408859   1.3103410  33.7689705
  83.5822678  54.8652725  19.1916389  84.5305939  54.9647369  19.1078606
  83.2192764  55.5760460  18.6631756   8.3540764  48.0149307  36.1019440
   8.9786606  48.1407204  35.3875885   8.3751268  47.0738449  36.2755699
  50.8128662  12.9791632  75.5365906  51.1477928  13.3612089  76.3478241
  51.4505005  12.3023558  75.3094635  51.0295410  40.7485886  27.5615559
  51.1371422  41.4605789  28.1922112  51.9042091  40.6191750  27.1948967
   1.3443452  27.7689743  51.3228340   0.8448160  26.9653072  51.4671288
   0.9573420  28.1535797  50.5363617  16.9491367  53.3760910  23.3231430
  16.0606747  53.7290268  23.2751369  17.4934101  54.1282959  23.5559216
  68.8894043  36.2138062  88.2750092  68.4275894  36.8553047  87.7351608
  69.3205338  35.6365013  87.6448746  57.0023003  22.9447327  42.2495499
  56.3032684  23.3939590  42.7247162  57.6818733  22.7963314  42.9071121
  70.9816513  44.1688843  59.9474792  71.0666809  43.5928078  60.7071724
  71.2405319  43.6245193  59.2039223  52.1907845  29.1209984  12.4719419
  52.0202408  28.4120827  13.0920916  52.4377251  28.6758652  11.6613188
  18.9082890   5.2385964   8.3426390  18.5777416   5.8387957   9.0110168
  18.7691994   4.3671470   8.7133970  37.6201973   1.8802252  29.7328701
  37.9960861   1.3828546  30.4592056  36.9448776   2.4236856  30.1388569
  61.4409294  59.9310036  68.8335953  61.8419991  59.9248123  69.7026978
  61.3290558  60.8591537  68.6280441  34.7524261  54.8750534  44.6371536
  34.6117630  55.8000031  44.8394318  35.0028229  54.8673019  43.7133179
  76.7853775  21.7352505  63.2008858  77.0102997  20.8065472  63.2570343
  75.8526459  21.7690525  63.4132423  48.3061180  52.1528893  10.3930988
  48.9357986  51.6965790  10.9512339  48.6058083  51.9777603   9.5010519
  33.1413841   5.0918961  78.4096985  33.8084564   5.7319679  78.6578064
  33.4025726   4.8000636  77.5362930  82.0205612  18.5898705  16.4772129
  82.7342224  18.4986744  17.1085625  81.3244934  19.0305576  16.9645653
  11.1317406  66.4181671  64.2752762  10.3371315  66.5904770  63.7701607
  10.9709158  66.8319473  65.1233063  45.8260612  44.7483253  12.8123646
  45.2541084  44.6404076  13.5722685  46.0793533  45.6711884  12.8323679
  85.8579559   8.1381636  57.2779045  86.1501160   7.7441387  56.4559441
  85.6332626   9.0390244  57.0451088  22.6568394  36.0840988   3.4835706
  22.0627213  35.4876022   3.9390335  22.0791054  36.6761131   3.0019336
  59.8475533   1.9620527  77.5759125  59.2155571   2.0136304  78.2929535
  60.6159401   2.4321952  77.8996124  64.3743515  60.9455681  20.8578014
  65.1737289  60.9405899  21.3843021  63.9136887  60.1466522  21.1142254
   9.3422527  56.7269897  18.1341820  10.0201826  56.1445770  18.4768734
   9.5773611  57.5919342  18.4700794   1.0351340   8.2404442  84.7463379
   0.8593335   7.3969026  84.3294907   0.1974493   8.7025108  84.7145615
  51.5438271   0.9495550  55.8866386  51.4019737   1.8955930  55.8531380
  50.6699104   0.5807255  56.0149727  54.5026512   4.9019151   7.6321750
  54.8285980   4.2257004   7.0382690  55.2922554   5.2951374   8.0038309
  30.0742741  67.1229477  50.1362610  30.3546658  66.6122513  50.8957291
  29.7619267  67.9490967  50.5052452  53.1877518  58.9390602  77.6017303
  52.6120529  58.6559982  76.8913193  52.9925270  58.3392105  78.3216553
  26.1170311  22.5157280  13.0912018  26.0211773  22.6430836  12.1473665
  25.2878208  22.1240349  13.3654652  11.4274578  66.5425949  40.6422539
  11.8082247  67.1645432  40.0222321  11.9724150  66.6209335  41.4252701
  60.6743851  29.9280338   9.1503963  61.5739403  30.0515194   8.8474407
  60.1340637  30.3081341   8.4577150   0.7434053  25.3420734  43.8227043
   0.4943524  26.2414417  44.0356407   1.6868522  25.3108616  43.9813423
  78.2967987  63.2205925  32.0781517  77.3828354  63.1243782  31.8104858
  78.2741394  63.1615257  33.0332565  18.0140457  40.3031425  77.3630371
  18.9037037  39.9790154  77.2227402  17.7726555  40.7083969  76.5301285
   7.9765720  66.0513306  87.5057373   8.3623743  65.5542068  86.7844467
   7.0404267  66.0738373  87.3073502  11.5279675  38.0850220  23.4824123
  10.8932295  37.6463318  24.0488815  11.0057316  38.4250679  22.7558651
  17.4559765  14.5365829  30.2106266  17.9011765  13.9813395  29.5705223
  16.5250607  14.3607149  30.0738773  80.7018204  71.2362289  28.2160950
  80.6081009  70.3569412  28.5825615  79.9007492  71.6908798  28.4764996
  17.1230507  41.2111397  47.5125160  16.1904793  41.3640213  47.3603058
  17.4034748  40.6800461  46.7671776  36.5735703  56.1408386   1.5331781
  36.5078926  55.7052727   0.6833537  35.8134270  56.7217560   1.5639580
  85.9969711  49.7882462  14.0673580  85.5746002  48.9488831  14.2498741
  85.3237076  50.3035545  13.6230516  58.7384872  19.7301197  44.1140289
  57.8076324  19.7225857  43.8911362  59.0200577  20.6275520  43.9363518
  17.4980488  54.5005760  78.2620850  17.7316532  54.8192139  77.3902283
  17.1754131  55.2756500  78.7218628  42.0947495  51.8276901  78.8734360
  42.3847656  51.7778664  79.7842789  42.4776382  52.6408920  78.5443039
  63.7088051  32.6127014  34.0674438  63.5900993  32.0989189  33.2685890
  64.2010422  32.0363083  34.6519966  24.3584175  41.5475311  22.5546284
  24.8688450  42.3531570  22.6362381  24.8356152  40.9071579  23.0823021
  59.4369507  43.3087273  86.4165268  59.2091751  44.1367683  85.9938049
  59.2371292  42.6416283  85.7598038  74.4003067  60.2585335  41.4165916
  75.2340927  60.1307983  40.9641342  74.3139496  61.2085190  41.4959602
  52.0353203   8.4287319  68.8334503  52.0606766   8.8316593  67.9655533
  51.1027489   8.3557062  69.0364609  25.7082100  43.0241318   7.5642791
  25.7409859  42.2278023   7.0341668  25.0124702  42.8596764   8.2007790
  67.3938370  27.0951748  50.4174118  66.5743408  27.4405994  50.0633888
  67.8222427  26.6804104  49.6686325  58.0344200  21.1268082  24.0435238
  58.6139793  21.0657825  23.2841702  57.5117455  20.3255730  24.0109100
  82.3606339  19.8678055  84.3091507  81.8919601  19.4957848  83.5620346
  83.1725540  20.2108574  83.9358597   5.2858062  47.1437912  26.8339024
   5.5263405  46.2193222  26.8949795   4.4094949  47.1890450  27.2163467
  74.6732254  28.8312817  25.7908401  74.2325363  27.9819183  25.8154373
  75.2335815  28.7880249  25.0160122  62.9405899  47.8964500  54.8860130
  63.6198044  48.4331512  55.2944870  62.6650543  48.4006500  54.1204414
  47.2535782  42.8081360  67.7964935  47.2885971  42.0498543  67.2133865
  47.5936584  42.4846687  68.6307297   9.0565825  55.5457115   8.3760977
   9.1672935  55.1457329   9.2386484   8.3606548  56.1913185   8.4990063
  83.5449829  61.3147240   8.2064333  84.1021652  61.6407280   8.9131908
  83.8777618  60.4357262   8.0251598  64.3478317   6.6163416  64.2836227
  65.0891571   6.0809402  64.0007477  64.7451096   7.3338761  64.7771225
  29.8281898  36.9104614  13.8387566  30.7224827  37.2507820  13.8132076
  29.4408131  37.3130913  14.6159697   5.6805215  37.2663956  72.9512863
   6.5583954  37.1524239  73.3153992   5.8003297  37.8769684  72.2239075
  17.4367447  35.2765312   4.7878375  17.1417294  34.4720306   5.2144284
  16.6484089  35.6338463   4.3790793  65.5861893  18.9912586  36.3318214
  65.6311340  19.0926647  37.2825737  65.5606995  19.8873711  35.9963150
  50.4061089   8.3056126  33.6988449  50.2559204   7.7690024  32.9205627
  49.7722397   9.0189362  33.6239166  83.1688309  12.5175428  67.4562302
  82.2594681  12.4614315  67.1627197  83.6229858  12.9679918  66.7441406
   6.7268524  10.3213263  49.0657730   6.1813836   9.7157335  48.5638237
   7.5557194   9.8569117  49.1820908  37.5700493  64.6265793  54.3707581
  37.5027466  63.7468987  54.7420578  38.1221008  65.1057816  54.9886856
  25.5847702   0.8924814  67.2562485  26.0828457   0.7209246  68.0554428
  25.0816936   1.6828018  67.4525604  24.2198410   2.1160235   7.5387440
  24.2727852   1.1644057   7.6273556  24.1250229   2.2640498   6.5978246
  31.8905087  50.5252876  88.1994629  32.1041374  51.4450874  88.3562012
  32.5373764  50.0387344  88.7104111  48.5632896  35.8105164  56.1665535
  49.1062927  36.2493973  55.5117531  47.9307747  36.4757004  56.4379997
  14.8759031  16.4753494  30.2495518  14.2565422  15.7803564  30.4722843
  14.4459696  17.2806416  30.5374622  29.2293186  35.7533607  18.3473167
  28.7891102  36.5854111  18.5209217  28.8785229  35.4682770  17.5035744
  73.0671616   0.7877640  41.7900276  74.0110779   0.6784929  41.6746979
  72.6934433  -0.0482193  41.5112801  65.1321793  21.2173824  72.2863312
  65.3473511  20.3453674  72.6172714  64.7540817  21.0587444  71.4213943
  12.1008759   1.5386252  49.9553719  11.8088112   0.8269359  50.5249596
  12.0602102   2.3194110  50.5075951  36.5663071  16.7863750  69.9426041
  36.2246399  16.6192093  70.8209839  36.0524559  17.5279636  69.6228561
  47.8616638   2.5542886  51.4387360  48.3566132   3.0599918  50.7941284
  47.0655899   3.0655034  51.5842018  19.3383083  10.1112671  23.8570690
  19.7578125  10.4987135  24.6252689  18.7483406   9.4480610  24.2152958
  56.4465714  15.7143860   9.3675737  56.6833649  15.8215647  10.2888079
  56.4906311  14.7700911   9.2172470  18.9825859  24.3881435  79.4779358
  18.3109360  24.3320503  78.7982483  19.3526115  23.5064754  79.5223465
  31.0043011  16.4329853  14.7317238  31.7952423  16.8076286  14.3440571
  31.2860126  16.1131783  15.5888090  84.6270294  18.8200970  65.9738846
  83.7480316  19.1630478  66.1350861  85.1201859  19.0446873  66.7629242
  51.1217728  24.2916851  30.8069744  50.7998810  24.3635197  31.7055607
  52.0206604  23.9758549  30.8990841  26.5329628  69.8371048  80.6494904
  26.3034668  69.7972260  79.7210693  27.1616497  69.1257172  80.7715759
  31.0047188  67.2030106  55.8399925  30.5469704  67.2212448  54.9995384
  30.5001965  67.7926559  56.4003563  12.2228098   3.6430650  -0.0754913
  11.6635523   4.0466752   0.5882567  13.0483713   3.4730020   0.3781147
  35.2418709  49.0901375  80.8879547  34.9166870  48.4308586  80.2749023
  36.1018028  48.7654190  81.1549835  46.3748817  23.7295246  12.0937204
  46.4789848  23.1999855  11.3031607  46.9291420  24.4953747  11.9437170
  22.0605907  22.7285004  13.9027500  22.1876240  22.8745537  12.9653263
  21.2293205  23.1593189  14.1017904  40.4870682   1.5202229  55.3087883
  40.6127548   2.4299746  55.5785789  41.2623520   1.3162140  54.7857704
  76.2351608  24.1753178  59.7781982  76.9497604  24.5361652  59.2534447
  75.9891586  23.3686638  59.3253975  26.2430038  52.9450035  39.9378204
  25.4989586  52.5453606  39.4873581  25.9184513  53.1294136  40.8192329
  69.5907822  32.5244293  78.3797531  70.3362732  31.9282188  78.3089981
  69.8422165  33.1418419  79.0666351  83.9419861  39.7770500  27.7317238
  84.1657257  40.5813446  27.2634449  83.4660263  40.0756073  28.5066814
  12.0168018  13.0589943  18.1825695  11.2188377  13.4528389  18.5352345
  12.3562956  13.7123833  17.5709667  43.5470390  54.3022995  59.1615562
  43.0619354  55.0730133  58.8667603  43.9201889  53.9334755  58.3609581
  65.1334152  10.0328312   6.9704957  64.7419205   9.1775990   7.1480904
  65.0054169  10.5275660   7.7798691  55.1647758  50.0655479  79.9597473
  56.0156364  50.0725365  80.3981781  55.2267532  50.7614632  79.3054581
  37.8274574  71.2421570  88.9028397  37.9980240  70.3269958  88.6801147
  36.9815483  71.4335785  88.4978333  66.8444366  45.1885490  53.0272980
  67.0910797  44.5387878  53.6854858  66.9094772  46.0277596  53.4830704
  79.1223984  30.2210560  51.9335403  78.7182388  29.4483681  52.3283043
  79.0979080  30.8833981  52.6241455   6.1059113  69.4661102  80.5806351
   5.3673568  69.3497009  79.9829559   5.8878441  70.2527847  81.0804596
  32.4470940  47.3260231  47.5669746  33.2338104  47.4681396  47.0405540
  32.4385452  48.0555191  48.1866455  24.2416763  53.2316856  52.9046783
  25.0957966  53.5143394  53.2315102  23.6233444  53.5059433  53.5819359
  11.9533014  30.9373302   0.1358081  11.3478270  31.5739155   0.5157969
  12.7238569  31.4525833  -0.1029156  74.8665161  66.4079819  81.0072556
  74.8784409  65.4932098  81.2888412  75.0413742  66.3714066  80.0668716
  36.7680473  11.8146725  72.8716812  37.2510223  11.3949671  72.1597748
  35.9951401  11.2634859  72.9943161  42.5631447  54.1502762  42.6230011
  41.9533386  53.7924957  43.2682610  43.0944672  54.7752151  43.1163368
  14.5908813  47.1420135  50.2764778  13.8029928  47.6651649  50.4240532
  14.5980587  46.5114517  50.9965973   0.8506016  61.6667824  83.0319290
   0.1683391  62.0445023  83.5869751   1.3969487  62.4123154  82.7831039
  54.3244553  16.0645638   7.6654568  54.9462662  16.2927094   8.3564949
  53.4701462  16.3078690   8.0220909  76.2397156   7.1681490   5.4669447
  77.0857010   7.6127591   5.4134202  75.6359634   7.7449627   4.9989715
  10.3550177   4.9175706  78.6729965  10.1931868   4.6415491  77.7708588
  10.8184319   4.1799283  79.0696869  44.5694656   5.5488586  60.7005119
  44.6955910   4.9747672  61.4559860  44.4764175   6.4237852  61.0774422
  64.8397369  60.7395859  76.6541290  64.7814560  61.5906906  77.0882416
  65.5597000  60.8373642  76.0309753  65.4117432  23.1493454   1.0898507
  66.3673248  23.1868591   1.0486815  65.1947632  23.5089626   1.9499825
  67.8527603  17.4079914  24.2135811  67.6485138  17.2315216  23.2952290
  67.2831802  16.8151398  24.7038250  56.3971443  64.4074707  48.1918488
  55.9301910  64.3947220  49.0273247  55.7842979  64.0167542  47.5689545
  85.0660629  18.2457237  74.9539337  84.6466599  19.0861721  75.1382828
  84.6075439  17.9134045  74.1822128  47.4012299  19.3737144  67.3909378
  46.7511406  19.3016720  68.0898132  48.1486435  19.8072433  67.8028336
  66.8228836  19.2351875  53.3527832  67.2139740  18.3715858  53.2206039
  67.4270020  19.6836700  53.9445076  75.1242981  41.6363716  65.4129028
  74.8460007  40.9313469  64.8283310  74.4432449  41.6735573  66.0844727
  34.3877754  67.9329071  35.7227402  33.9997787  67.1546936  36.1228256
  34.7726784  68.4126663  36.4561691  16.2204933  42.1048851  56.9521713
  15.9136658  42.8680000  57.4418106  15.4746017  41.5049896  56.9514961
   4.2100010  55.6884079  24.9140472   4.2430992  56.5470123  25.3358688
   5.1172361  55.5070114  24.6685848   0.4550750  17.8680248  67.4502792
   1.3271275  17.9928875  67.8246689   0.5048637  18.2760849  66.5858536
  36.2826462  10.3169451   0.7254657  36.3590965  11.0825911   1.2948278
  36.1466179   9.5843086   1.3262757  14.8488503  70.4441833   3.0699334
  15.0181389  70.4178009   2.1281917  14.5231829  69.5687866   3.2793555
  68.8840942  10.6142683  50.2888527  68.2574692  10.4056702  50.9817123
  68.3936310  10.4885416  49.4765282  47.3803024  53.4208107  83.7397842
  46.6091614  53.7936745  84.1670456  47.0327988  52.7213326  83.1864319
   4.9151611  16.0942860  88.1223602   5.7557116  15.6471195  88.0236282
   5.1276507  16.9038677  88.5867538  26.6307983  62.0900154  33.2740784
  26.2792377  62.7925987  32.7272568  27.0308857  61.4808922  32.6534920
  23.0015488  59.8217239  35.7368546  23.6158218  59.1060944  35.5732231
  22.2002869  59.3874168  36.0294075   3.8735716   4.3161917  44.5645409
   3.5009212   4.9207759  45.2062912   4.8036833   4.2744131  44.7867546
  84.3650818  59.2976303  53.0993423  84.8079453  60.1461639  53.0891380
  84.2174530  59.1156540  54.0274162   1.9997153   0.4065052  88.3191833
   1.4570624  -0.0373804  87.6674805   1.3842471   0.9449039  88.8167343
  53.5589180  12.0088682  52.8796310  53.0917091  11.4464865  53.4974289
  52.8989677  12.6329117  52.5775223  18.3674488  42.5737419  52.6813850
  17.6716480  41.9826546  52.3937950  19.1354809  42.3020096  52.1788712
  36.9584579   1.9708877   4.2215877  36.2797165   1.6341794   3.6366346
  37.7030640   1.3846526   4.0869708  79.4829102  68.2798691  11.9123411
  79.7528152  68.3353043  10.9956579  78.6140671  67.8793182  11.8823929
  17.1911182   5.5832767  63.8856239  17.9235058   6.1894493  63.9969444
  17.0867348   5.1734796  64.7443466  81.5798950  64.2136688  40.3593178
  81.7366409  64.4268951  41.2792091  82.0668259  63.4022789  40.2151985
  41.5303345  52.6372070  48.2836914  42.0385323  52.4423637  49.0710907
  41.0856209  51.8153763  48.0761909  80.2048340  55.4007988  44.3621063
  80.1855469  56.3536453  44.2729950  79.3763123  55.1079292  43.9826241
   7.5714340  19.9315071  74.3217239   7.2564592  20.6352215  73.7544479
   8.2460985  20.3430614  74.8618011  37.5906563  32.6779404   8.2984629
  38.3487091  33.2193985   8.5184984  36.8356438  33.2066574   8.5566082
  38.4953766   7.3530154   6.2172871  37.5920219   7.6268582   6.3759966
  38.6891861   7.6670303   5.3340740  28.1338081  45.6212769  60.5311623
  27.2830868  45.2071495  60.6760788  28.2113609  46.2626991  61.2374191
  29.4852161  44.4768677   4.5419769  29.0047798  45.1608658   5.0084090
  29.3607197  43.6911926   5.0743756  36.6286201  61.7011299  19.7502251
  36.6295967  62.4022751  20.4018593  36.7224808  60.8979759  20.2624397
  67.9183884  37.2125282   6.7624307  67.5622559  36.4687004   6.2765069
  67.7482910  37.0023422   7.6806455  78.6867294  16.8845615  33.0490417
  78.2654343  17.7328606  32.9107246  78.8215561  16.5374775  32.1672325
  54.5568008  38.1410179  86.0023575  53.6489487  38.1405830  86.3057327
  55.0718994  38.3229332  86.7883682  42.7481651  34.0343285  -0.0993961
  42.7849121  33.4689026   0.6720807  43.6386528  34.0190735  -0.4501610
  52.2684669  25.2221622  86.8643875  52.2199173  26.0916824  87.2616425
  51.8494225  24.6439056  87.5017700  33.4385643  11.4949474   1.6643806
  32.5237389  11.5484705   1.3878628  33.5939026  10.5600204   1.7985960
  85.5013657  66.3605957  33.1847305  85.2869797  66.9775391  33.8844833
  85.4954910  65.5035400  33.6109352   7.7827845  31.2313232  69.0276642
   7.2017164  30.9713993  69.7425308   8.5805931  31.5301037  69.4640884
  48.3917084  33.8315315  88.3734512  48.3458595  33.4860229  87.4819641
  49.2955818  33.6728821  88.6456146  39.1975479  60.2056198  88.3328171
  38.4392090  59.6252518  88.3985825  39.8216515  59.7236710  87.7901840
  17.4306049  57.8244476  87.7947006  17.2836990  58.1679955  88.6759644
  17.4379063  58.5998306  87.2334976  44.5722351  25.5771885  71.4323273
  45.3234825  26.1451626  71.2612610  43.8122215  26.1050072  71.1873322
  77.9347534  37.0885277  83.4901733  78.7214203  37.5642509  83.7567825
  78.1724548  36.1653137  83.5762405   4.3444967  62.6464386  23.7179699
   4.4631042  61.7345657  23.4521637   5.0403771  62.8022461  24.3564892
   9.6814671  70.4024429  31.8480988   8.8648567  70.6469955  31.4126987
  10.2873774  71.1128235  31.6372471  69.9865265  15.1476097  21.1742229
  70.3777313  15.8375139  20.6382923  70.3337173  15.3010349  22.0529423
  83.2961807  38.0848312  80.9522171  82.7190704  38.1211205  80.1894226
  83.4617386  39.0018349  81.1711426  69.5506897  15.2064495  68.1025848
  68.7328873  15.0830421  67.6207047  70.1124191  15.6940651  67.5001602
  19.1324177  56.5997200   5.9771686  18.9540405  57.4324493   6.4141726
  18.3508377  56.4335632   5.4501414  31.1468925  50.0122452  10.6644173
  31.5464516  49.7482491   9.8356285  30.7222195  50.8477936  10.4701538
   1.2807570  60.1292229  60.9658165   0.6473626  59.4210434  61.0821075
   1.4609351  60.4376373  61.8538742  67.7442932  32.6786728  75.0590744
  67.6456757  32.2385368  74.2148056  67.8124695  33.6075859  74.8383942
  28.9937344  63.1928368  74.9161606  28.7434425  63.1413116  75.8386230
  29.5026970  62.3970985  74.7612762  30.6728916  13.9467688  88.1170731
  31.4231224  13.3709860  87.9692307  30.5662174  13.9617195  89.0681915
  68.7211838  24.1130600  49.3588829  69.6285706  23.9188881  49.1239738
  68.5170517  24.9172707  48.8815918  20.1886864  43.6487732  21.4492722
  19.9859085  44.5435715  21.7221203  19.3443756  43.1979332  21.4600601
  58.8337784  19.0130482  11.4987917  58.8783760  19.7199039  12.1426830
  57.9074211  18.9616680  11.2633028  15.5157623  39.5474701  11.0120525
  14.9288645  39.2148552  11.6911345  16.1649132  40.0647011  11.4888172
  66.0950241  21.8923683  60.6095428  66.5395050  21.2975464  60.0055122
  65.7556534  21.3229694  61.3000832  53.0192909  29.5801620  80.5005875
  52.2273483  30.1177120  80.4905396  53.6466522  30.0875511  81.0155716
  29.6940861  48.5426407  32.4030533  30.1427002  49.1277771  33.0134506
  29.8953438  48.8991280  31.5378113  40.6198616  61.7290497  84.3885880
  39.9997787  61.0023918  84.4494019  41.2612572  61.4427986  83.7382736
  82.6933899  28.8454666  29.9930801  82.8665237  28.9995613  30.9217968
  83.2602158  28.1093521  29.7626953  85.9154129  30.5827999  68.4517899
  85.3935394  30.5661430  69.2540436  86.7090836  31.0608158  68.6922302
  31.1321163  40.3512306  63.8600578  30.4850140  39.6494370  63.7894974
  31.6175594  40.1498604  64.6600723  79.4449768   9.5065689  47.9664116
  79.3453751   8.5691738  47.8002777  79.0535507   9.9283056  47.2014580
  66.7884827  13.2308607  52.3642044  66.1995468  12.5601130  52.7098694
  66.2571182  14.0266542  52.3398285  66.6185837  15.7176104  75.5249863
  66.1670609  15.6084795  76.3619156  65.9527664  16.0770588  74.9387207
  67.1594086  64.5316925  60.6517563  67.9613342  64.6839905  61.1517067
  66.5773087  65.2466660  60.9090767  76.7013321  66.0119629  71.2852020
  76.7238770  65.3697662  70.5757599  76.7576294  66.8591614  70.8432541
   4.8308687  54.9262085  36.6474876   5.4245100  55.4960747  36.1585388
   3.9554098  55.2109871  36.3853722  86.5939178  21.7527351  84.8735428
  85.9841232  22.4527874  85.1065826  86.0392456  21.0641003  84.5069962
  33.0196152  42.1747932  29.2256470  32.6489029  41.3051720  29.0754223
  33.7035789  42.0337715  29.8802757  50.0515060  37.2660179   6.4233723
  50.3016891  38.0293465   6.9439201  49.8020134  37.6274452   5.5728683
  34.1423874  27.7893200  19.4654732  33.6797676  28.2235241  20.1821918
  33.6680756  28.0558987  18.6779480   9.3156910  40.9824142  63.4766769
  10.1457710  40.5763130  63.7262383   9.5413313  41.8938446  63.2906418
  71.6078262  23.8901825  48.9706039  71.7989349  24.8210621  48.8558273
  71.2888031  23.8203316  49.8703690  38.7117538  27.0380497  70.7620850
  38.6933670  27.4443474  69.8955917  38.4672050  26.1261711  70.6042862
  27.1105728   4.7455692  17.3773117  27.5224781   5.2955441  16.7109089
  27.2343197   3.8511333  17.0596581  47.9634209  31.7598114  35.2213669
  48.8536911  32.1112289  35.2089462  48.0288925  30.9599915  35.7431259
  39.3499832  65.1404343  62.9549980  38.3933640  65.1072540  62.9579048
  39.5574570  66.0490799  62.7369232  62.8563919   1.3201813   9.0939837
  62.3332214   0.7805479   9.6867056  62.2151985   1.7252151   8.5099897
  67.2522278  37.8369064  81.5423355  68.0191345  37.2829208  81.6879044
  66.5714417  37.2312622  81.2491455  36.1590958  33.3323174  73.0394058
  36.1032257  33.9211807  73.7919693  36.1421204  32.4543991  73.4204636
  51.4017830  20.9014778  42.0340614  52.3377380  20.7281837  41.9331284
  51.2342949  20.7758141  42.9680786  30.6145725  16.8376999   3.5861473
  29.7362175  16.8555164   3.9661560  31.1985607  16.7345734   4.3375149
  62.4736290  59.0142288  41.9354897  62.0458298  59.6492081  42.5099602
  62.4236603  59.4076691  41.0643158  28.2228680  66.2106857  36.7349014
  27.7119179  66.9429169  36.3899422  27.9093189  65.4490433  36.2472229
   5.5612278  36.7148781  41.3440132   5.6682887  35.7641258  41.3730354
   4.7203536  36.8744087  41.7726288  34.3862915  59.0193901  12.0146484
  33.6576347  59.1856461  11.4166079  34.7673721  59.8829231  12.1737537
  69.3625946  42.2250404   1.2043989  68.8591309  41.7079887   1.8332200
  68.7007980  42.6875114   0.6902189  69.8610306  47.3527870  74.6720505
  69.9363632  47.0421333  73.7698059  69.0958481  47.9278336  74.6642609
  36.4459915  30.9969501  74.5534821  35.7878799  31.1480160  75.2319412
  37.2777748  31.2154312  74.9737549  51.0319366  40.3963470  74.5416718
  50.2655830  40.9333000  74.3401413  51.1587181  40.5041122  75.4842987
  77.9916382  37.4391937  19.5472775  78.3483047  37.3959846  18.6600590
  78.6916275  37.0976753  20.1037083  65.3033218  51.8349457  24.5960960
  65.0394440  51.8150177  25.5159893  64.9364624  51.0328331  24.2242603
  22.3883114  41.6821213   3.6368766  21.6480217  41.8732071   4.2128015
  22.7681427  42.5390167   3.4427259  46.4339333  53.3925743  42.5816116
  45.7666626  53.7599678  42.0019569  47.2163773  53.3260727  42.0342598
  17.9126854  27.2426414  76.4468231  17.2177925  27.8060856  76.7872467
  18.4091873  26.9798279  77.2218323  62.0411987  40.3729935  49.7540779
  62.8827667  40.2022705  49.3311691  62.2714119  40.6694946  50.6346016
  81.6338043   2.4401786  69.8523941  81.2383728   2.5925732  68.9941101
  81.7332458   3.3145633  70.2289505   1.2082502  47.9517937  30.4355736
   0.7254587  48.3587265  31.1549816   2.0976861  48.2954636  30.5193920
  67.9370117  29.4502850  26.7423248  68.0579758  28.6464844  27.2477970
  67.0769577  29.7742901  27.0098228  37.9633408  39.5356636  16.3853378
  37.8280334  39.5964546  15.4397011  37.0998459  39.3197212  16.7374477
  53.8388443  63.6150055  16.6612358  54.0296783  62.9342613  17.3065300
  54.3364067  63.3560333  15.8856106  36.2869339  18.1102200   8.0118523
  36.8038101  18.5602512   7.3436127  35.5739288  18.7167187   8.2118845
  75.2591934  70.4267502  40.3586349  76.1735229  70.2773819  40.1179581
  74.9399948  69.5668259  40.6322479  39.0760422  48.2948112  56.7753372
  38.1238747  48.3491707  56.6937523  39.2455215  48.4424057  57.7057800
  45.6181297  67.7967606  24.2656460  46.5697365  67.7170105  24.1999149
  45.4767227  68.3525772  25.0319996  78.3745575  40.7602158  25.5633259
  77.9650650  41.6250534  25.5878906  79.0166321  40.8192368  24.8558693
  73.6083679  15.2147493  15.4492378  72.8709335  15.6991119  15.8204689
  74.0113678  14.7792902  16.2003708  44.4981766  64.5327530  76.2987061
  44.2375374  64.6690598  75.3878174  44.9276733  63.6773186  76.2994919
  66.4868698  52.1274719  58.9592667  65.6850204  52.5667152  59.2426949
  67.1657486  52.7984276  59.0311890  78.0202332  15.4287624  64.6344452
  78.0544128  15.6767035  65.5583420  78.8043442  15.8223171  64.2516708
   1.7710946  71.6938934  50.2716141   1.2336849  71.2550354  50.9310303
   1.4747859  71.3273315  49.4385071  29.3614597  69.7280579  47.7190094
  29.2303505  68.9001312  47.2568588  28.4814568  70.0934753  47.8101044
   5.8677473   2.9727778  27.5632915   5.3746510   3.7430401  27.2808304
   6.6024742   3.3287311  28.0629959   0.7049059  58.5850945   5.5391245
   0.1909268  58.6905212   6.3397136   0.3229738  59.2121429   4.9249845
  46.4855118  39.9038467  67.1489410  45.9862747  39.0905495  67.0745010
  45.8557091  40.5919838  66.9343491   5.3499684  28.3527184  68.2599487
   6.2402892  28.4114437  67.9133759   5.3447342  27.5432873  68.7708511
   9.8551426  39.8225517  67.5952148   8.9473286  40.0241013  67.8221130
  10.3068581  40.6650658  67.6437073  66.0690536  26.5899372  17.3447647
  65.2422104  26.8429108  16.9341984  66.1055679  27.1079865  18.1488304
  59.7027321   5.8283482  39.1180649  60.6182137   6.0611577  38.9633865
  59.2198639   6.6404662  38.9646606  83.6277313  27.1822872  63.8900871
  84.3674316  27.7332783  63.6341667  82.8609543  27.6288528  63.5311127
  44.8159370  69.9530640  84.3988419  44.8152046  70.4561539  85.2131729
  44.5624123  70.5853882  83.7264404  29.3777866  68.1812057  20.3430500
  29.8451252  67.3459549  20.3566742  29.4795971  68.5271149  21.2297363
  40.4713974  55.9370499  11.8648033  41.3244057  55.5989799  11.5921850
  40.0059776  56.1020966  11.0448179  63.8300705  39.1488838  70.3883972
  63.5002747  40.0384407  70.5154877  64.6331406  39.1146355  70.9081421
  40.9461746  62.7849693  58.9104805  40.6527634  62.5280647  58.0363274
  40.4078712  62.2641602  59.5064850  12.2024260  55.9735451  37.1349716
  11.5043268  55.3637352  37.3737602  12.9915648  55.4328537  37.1011200
  71.8154755  68.6472092  79.7910080  72.3353882  67.9291992  79.4299164
  71.2740402  68.2356949  80.4646072  43.7688370  13.7021236  22.9160805
  44.5839996  13.4229469  23.3329754  43.1443443  13.0063324  23.1212997
  13.0134077  65.9708939  15.6597099  12.7357283  66.8869019  15.6518497
  13.5526066  65.8908157  16.4465294  85.1793594  48.0808029  36.8489799
  85.1752319  48.7226067  36.1388359  85.8992920  47.4883919  36.6322365
  33.9267120  57.6869278  79.3032684  33.8995514  57.1582756  80.1007767
  33.1205177  57.4616585  78.8390121  30.3507748   1.1289121  66.9164276
  30.8568497   1.3443871  66.1330414  30.9944267   1.1289977  67.6249084
   8.1003675  16.1149559   3.5920789   7.2183752  15.7560616   3.4945281
   8.5629015  15.4712210   4.1286411  17.3073273  45.3719864  80.4832535
  18.0674210  45.2662430  79.9111404  17.5885296  45.0115051  81.3242111
  22.1061039  51.4210052  42.6134224  21.4039707  51.9658394  42.2578926
  21.6760864  50.5982704  42.8467026  27.9378147  44.4887886  17.3607254
  28.3458786  45.2670403  17.7402515  27.0186596  44.5492325  17.6209831
  83.9856873  63.3960190  59.4835472  84.6860962  63.7223625  58.9186020
  83.4382477  62.8658180  58.9043846  27.7343941  42.8646889  46.7971954
  26.9621677  43.1446342  46.3057365  27.6451931  43.2936935  47.6482162
  65.7988968  55.9148712  22.7449093  65.3634491  56.1403923  23.5669556
  66.7331467  55.9652519  22.9470787  79.2481613  44.2944489  12.0822916
  79.0700607  44.7593842  11.2647648  79.2581177  44.9798775  12.7503624
   2.8919532  50.6767082  19.2534084   2.3635135  50.9530907  18.5046787
   2.4354501  51.0356865  20.0143108   2.1191738  69.1732025  73.2277756
   1.8618950  68.6365814  73.9774857   3.0448165  69.3656540  73.3773727
   9.9345407  55.9760208  79.4248199  10.5257816  55.6739311  78.7353287
   9.0950336  55.5657005  79.2172241  51.0314140  39.0423126  33.5525436
  51.7526245  39.4154816  34.0593262  50.9840736  38.1302490  33.8391266
  33.4165688  43.5619965  85.7558136  32.5560646  43.2730217  85.4520798
  33.8451538  42.7612953  86.0581818  19.8255653  21.5041142  57.8751907
  18.9983959  21.2896309  58.3064919  19.9537697  20.8001289  57.2394257
  14.0266275  14.2574930  87.7524338  13.2059526  14.6606798  88.0355682
  13.7574806  13.5642214  87.1498032  40.7955399  64.8154068   2.2395751
  41.4894257  64.9376831   1.5916549  40.6718903  63.8671761   2.2820482
  13.5188828  12.6309195   6.5288320  14.3402481  12.5172243   6.0506439
  13.7800961  12.6638613   7.4491115  85.5622101  27.5149403  27.7520924
  86.0266800  28.1414165  28.3070946  85.3904037  26.7681751  28.3257275
   3.9177585  68.4213715  35.8763390   3.3712037  68.0564194  35.1804047
   4.2585888  67.6561050  36.3394051  71.3571320  47.7803535  46.2775002
  71.2095566  47.8772316  45.3367195  71.1490021  48.6404419  46.6424103
   6.6475925  30.2794628  19.6379890   6.6567345  31.0039234  19.0124454
   6.3329406  30.6706734  20.4529610  39.7220459  49.1459389  66.4272842
  40.3097038  49.8768539  66.6187286  39.0176315  49.2303200  67.0698700
  41.8079262  52.1686668  30.7417126  40.9596329  52.6093102  30.7913265
  41.6199913  51.2600784  30.9770355  58.6109543  40.2526093  32.2773628
  58.1297989  39.4365044  32.4140854  57.9377060  40.9328766  32.2917786
  18.4068508  28.0576382  29.8067818  18.5262108  28.7202568  29.1264000
  19.2593231  27.6275902  29.8744717  69.0065689  59.6224556  42.8942375
  68.8925095  60.4913750  43.2792130  69.7792435  59.2658730  43.3324738
  57.0275078  26.0107174  73.3993683  57.5960808  25.2714539  73.1838455
  57.1149178  26.6052723  72.6543198  26.6485023  50.7396317  74.6692276
  26.2165642  50.7987022  73.8170700  26.2044487  50.0172234  75.1132660
  67.5993652  59.8959770  36.1084557  67.0493164  59.3095741  35.5890236
  68.1539230  60.3368988  35.4648056  38.0254784  50.6454048  10.7063274
  37.7831879  51.5048103  10.3614368  38.9416008  50.7413712  10.9666014
  80.3649063  63.3513641   2.3912420  81.0411758  63.7498398   1.8434135
  80.7255173  62.4987755   2.6347332  79.7550049  67.4645538  84.7420502
  79.9163666  66.5348892  84.9030304  79.1853867  67.7368698  85.4615021
  13.1522617  41.3103218  80.1014938  12.2277470  41.4992104  79.9407959
  13.6166325  42.0694199  79.7488403  13.6192636  63.4219780  31.4425755
  14.4914207  63.4464684  31.8362408  13.0244150  63.6206017  32.1657181
   7.1998315  35.8753891  16.2139759   6.8633409  35.5383415  17.0442791
   6.7285876  35.3785210  15.5451851   0.6605895  23.5414352  22.7744713
   1.3605089  22.8885918  22.7862320  -0.0969818  23.0740700  22.4224968
  65.1161270   2.2330270  73.1906204  65.0669327   3.0129929  72.6379318
  66.0370636   2.1779447  73.4457169  37.6077194  51.3216324  20.8883533
  38.3855438  51.7509422  20.5321007  37.6475525  50.4294968  20.5437660
  47.9158516  25.0522194  18.6670094  47.9435158  25.7332077  19.3391113
  47.4161415  25.4432068  17.9503117  61.1843300  38.8418846  59.4609909
  62.0836792  38.5145111  59.4458466  61.1559944  39.4966202  58.7633133
  68.8620071  69.2372055  80.8559570  69.5898361  68.6577072  81.0810928
  68.5837555  68.9460068  79.9876251  17.8338184  60.5751038  68.2810898
  18.3400574  60.9544678  68.9994431  17.8305626  61.2536049  67.6059189
  48.0431252  27.5744781  63.8370132  47.9393311  26.9587898  63.1114883
  47.1843834  27.5938644  64.2594070   9.2710781  40.5929832  86.0057449
   9.3400440  40.3761406  86.9355087   8.6878014  41.3514824  85.9793320
  59.8771019   9.0314083  52.1321983  60.2716866   9.3777761  52.9325523
  60.5208893   9.2162256  51.4483757  85.8078079  55.6043587  52.9173203
  85.4376755  56.1958084  53.5726204  86.7157974  55.8916283  52.8210526
   4.8516521  67.0483932  11.5116482   5.5521297  67.2059021  10.8785982
   4.2683091  67.8012009  11.4156380  85.1550522  13.4899569  61.3806419
  85.9626160  13.5407476  61.8920021  85.0481415  12.5572805  61.1937828
  56.9203491  10.7558222  39.8141785  57.1397552  11.1640244  40.6517105
  57.3155899  11.3291779  39.1574593  -0.0867657  11.2511415  32.3241959
   0.3705855  10.5261402  31.8982430   0.1079779  12.0118284  31.7767830
  24.6082554  63.3979530  88.9339523  24.8197784  64.2613144  89.2890549
  24.8115215  63.4662971  88.0010834  14.4558525  50.7102966  51.8988266
  14.7854834  51.0510025  51.0672646  13.7561798  50.1064301  51.6497612
  25.5392342  52.0994034  81.5767136  24.9913101  52.0557098  82.3603592
  25.4381542  51.2409096  81.1656113  58.3892593  28.7276840  13.6742840
  58.8699379  28.7874928  12.8486919  58.7920990  27.9905090  14.1331158
   8.1963959   6.4286189   0.6803162   8.9511738   6.2437406   1.2392098
   8.1433926   7.3840837   0.6577531  21.5940647  42.4331131  79.8464203
  21.0963688  42.2301064  80.6384583  22.5088062  42.3107605  80.1004105
  23.4585648  48.5719109  52.8297386  23.1008396  48.7816124  53.6924591
  23.3547783  47.6235809  52.7514725  38.7517662   0.4780655  31.8638058
  38.8673019  -0.4721293  31.8601704  39.3099365   0.7844778  32.5784988
  12.6810627  33.0621414  86.1299057  13.4865885  33.0883865  86.6463089
  12.0516920  33.5700874  86.6418762   9.6088743  65.4406281  38.0078583
  10.4393015  64.9651794  38.0317001   8.9427853  64.7562103  37.9436417
  58.2298241  16.0963593   4.0266032  58.4059982  15.2029076   3.7317498
  57.2758522  16.1443100   4.0888519  23.8549843  17.3162289  10.4805193
  23.2302532  17.9427891  10.8457108  23.4266014  16.4659004  10.5788145
  70.0216141  57.5138893  65.5251160  70.9362030  57.6626129  65.2850113
  70.0609283  56.8652573  66.2279434  81.9768372  14.9919882  44.0882149
  82.4545441  14.7613401  44.8849792  82.0604477  14.2209787  43.5271568
  43.1973724  38.4584770  11.5418110  43.6234436  37.6292496  11.3248396
  42.3190727  38.3811646  11.1691923  24.7848892  45.5333633  33.6579971
  25.1819515  44.6648674  33.5925026  24.0059242  45.4829826  33.1040077
  58.9414406  44.4511452  75.4119034  58.4716797  44.7869987  74.6485138
  58.2517586  44.1632233  76.0099564  49.9995346  70.4396973  67.9567719
  49.6478500  71.1734085  67.4525681  49.2301483  69.9231339  68.1964340
  29.5728436  40.0337982  59.3521156  30.3448925  39.5459557  59.0654411
  29.4868393  39.8214951  60.2815056  51.2381058  27.0327969  70.4712219
  51.3137093  27.8245983  69.9387131  51.2780533  26.3146667  69.8396149
  45.5000458  61.4137726  88.6538010  45.8940163  60.5482216  88.5450058
  45.5480843  61.8098755  87.7837296  40.8623962  10.0399113   3.5741796
  41.6949692   9.7068815   3.9090588  40.8184891   9.7144575   2.6750779
  61.9098244  33.8400230  12.5265503  62.3456116  33.6657677  13.3607912
  61.9958878  33.0225792  12.0360317   4.6186433  45.4770355  37.0232697
   4.9180341  45.7189865  36.1468811   5.3067636  45.7950325  37.6077347
  73.5284119  11.9089241  51.5316429  72.8158951  11.3361368  51.2479820
  73.3397903  12.7499723  51.1153603  48.0155334  34.8656921  14.0329552
  48.6284218  34.2912674  13.5740061  47.2986107  34.2889938  14.2968979
  65.1147614  62.8823547  28.2563801  65.5083313  62.9933357  29.1218395
  64.2173996  63.1993141  28.3589058  17.9562798  15.8908262   4.1072941
  17.3171329  15.5597486   3.4763346  17.4995365  15.8627968   4.9480262
  65.0775528  41.7373199  48.2338829  65.6141129  41.8454552  47.4486237
  64.6767960  40.8739128  48.1331100  60.7367973   1.6795394  48.4445763
  61.4333916   1.3983356  49.0377998  61.1960754   2.1048336  47.7204056
  70.5330353  28.1636391  30.6840458  70.6759872  27.4353390  31.2885094
  71.1212921  27.9849796  29.9503841  23.0747013  57.8184814  16.2818069
  23.7246838  58.1966438  16.8740463  23.5692348  57.1946716  15.7502718
  31.6086559  48.5460205  79.8821106  32.1573448  49.2782402  80.1632309
  30.9702587  48.9396515  79.2873535  27.4519196  46.3854752  30.5101700
  26.7438583  47.0223389  30.4138088  27.8854599  46.6311493  31.3274307
  22.7854328  26.9856911   2.0511827  22.8019009  27.7105961   1.4263029
  22.8873253  26.2018051   1.5113932  46.9095993  34.1548424  34.4841805
  47.1216812  33.2516594  34.7197914  47.3551712  34.6855659  35.1445084
  74.5122604  58.6756248   1.3959770  75.1335144  58.2800598   2.0073740
  75.0349426  58.8759613   0.6195079  12.2812376  59.4754066  45.3074608
  11.9218531  59.0616341  46.0922318  12.4610147  60.3772469  45.5731506
   2.9320469  24.1103458  33.1415558   2.8859055  23.1797066  32.9224396
   2.8958640  24.1333447  34.0977936  50.6701775  37.7705231  54.6059341
  51.3912086  38.1311493  54.0898972  49.8834343  38.0002022  54.1114464
  16.2146168  56.1819420  57.8504410  16.1256275  55.7070465  57.0241318
  17.1563339  56.3257332  57.9438362   3.0527759  14.2387838  21.5350647
   3.2474327  14.6472502  22.3785667   3.4050014  13.3520250  21.6113987
  53.9180756  58.2422333  83.1350174  54.0422363  58.0646210  84.0673599
  53.0789146  58.7003174  83.0881348  64.2397308  27.5712929  34.9336128
  65.1362152  27.7134056  34.6297226  63.8926735  26.8974285  34.3490715
  74.4699936  16.5540371  47.9970322  74.3116531  17.4962006  48.0561028
  75.0434189  16.4547195  47.2370644  83.5007553   1.0546657  14.1107416
  82.7065125   1.4928627  14.4163380  84.2164383   1.5932404  14.4483309
  23.1977577  42.7878571  59.0173988  23.9311104  42.1758308  59.0794449
  22.9892845  42.8179855  58.0836601  73.1244125  17.9436951  31.5957146
  72.3496933  17.6703434  32.0869598  73.5849457  18.5393620  32.1867561
  38.4857864  49.6705666  32.9819260  38.2212067  48.9370461  32.4267883
  38.1414490  49.4519501  33.8478775  66.7213669  24.5154343  13.3679447
  66.9547348  25.2605362  13.9216518  66.5618057  23.8001461  13.9836845
  86.2112503   9.8894386  38.8188667  85.4280319  10.3532066  39.1150475
  86.5457611  10.4212313  38.0966988  67.2882996  47.6873016  53.7430000
  66.6876068  48.0336075  54.4029045  67.8275299  48.4375191  53.4927330
  27.0378933  56.4559364   7.0213037  26.5314674  57.0968704   7.5202732
  26.9045868  55.6303558   7.4870062  64.2726898  26.4676266  60.4073448
  63.7263985  26.2469311  59.6529655  64.1883011  25.7148895  60.9925804
  12.5270643  17.7294502  77.0912781  12.6928673  18.2151489  76.2832947
  12.1014929  18.3632603  77.6686935  43.9076691  14.0842171   1.1431209
  43.3017921  14.7532463   0.8244624  43.3463402  13.3458223   1.3795846
  14.3404827  13.3850183  11.6351976  13.5556431  13.8143415  11.9756966
  14.5512705  12.7180910  12.2886562  50.7062340  16.2327480  39.7665901
  50.6539421  16.6138535  38.8900871  51.2066040  15.4255095  39.6473122
  68.5089798  44.9947548  59.6464882  69.3059540  44.4652596  59.6202736
  68.4775085  45.3361244  60.5401917  82.0364304  62.2413101  73.5036850
  82.7523651  62.7867470  73.1778488  81.8506851  61.6359673  72.7858505
  71.6339645  13.0734425  68.1202469  71.3569565  12.5830212  67.3463058
  70.9155731  13.6836624  68.2869186  65.2397156  11.0033150  53.7662315
  65.1050262  11.7123346  54.3950272  65.6409302  10.3015566  54.2788620
   0.0818296  59.7370491  37.1007767   1.0128621  59.9552002  37.0581131
  -0.0501183  59.1101608  36.3895569  26.8325253  59.4026031  44.8962059
  26.5124645  59.9378929  44.1700821  27.6279640  58.9912758  44.5581017
  19.9986897  31.9492111  83.0299988  20.1852989  31.4288692  82.2485580
  19.6092701  32.7561073  82.6931000  61.5954933  56.8821373  26.3421631
  62.2230453  57.4897499  26.7335949  61.3063431  56.3336716  27.0714149
  65.6879654  44.6679611  23.4795036  65.0692062  43.9380341  23.5034275
  65.7480087  44.9007797  22.5529919  52.1332550  45.3861160  57.8637314
  53.0214767  45.6559525  58.0971451  52.2229996  44.4709282  57.5980110
  55.9416389  20.1938896  79.1643448  56.2965012  20.7143841  78.4436569
  56.1200562  20.7153778  79.9469376  25.1671696  49.3182755  81.3476105
  25.5603714  48.7212029  81.9841080  24.2436581  49.0677834  81.3229446
  59.2839203  26.4498615  63.7362938  59.5163536  26.2668114  62.8259621
  59.9621315  26.0107899  64.2495956  72.1732788  36.2250633  78.5390854
  72.8226089  36.7661781  78.0898666  71.3331985  36.5128365  78.1817627
  63.9565887   6.5578103  83.3968124  64.0322342   7.5117493  83.4193878
  64.7510071   6.2650485  82.9502563  68.5280991  26.6617432  47.8911705
  67.8243942  26.5990486  47.2453384  69.3288574  26.7099266  47.3689613
  34.7998238  36.1797829  72.0275497  35.7290497  35.9511604  72.0051041
  34.7822456  37.1255226  71.8809433  35.1704903  49.7990685  33.2468681
  35.3336830  48.9417953  32.8535728  35.8318787  49.8769684  33.9344215
  36.3147621  29.8716431  19.7281551  35.9582901  29.7113762  18.8543835
  36.0140343  30.7524605  19.9516621  34.2410889  63.0292587  42.8140526
  34.2324066  63.7977104  43.3847008  34.7683678  62.3855400  43.2871666
  55.8548775  13.8875713   6.9737659  55.9591064  13.2662020   7.6943679
  55.2460480  14.5449514   7.3105302  59.0407372   5.7924314   5.0422401
  59.5542030   5.7209840   5.8469024  59.2410049   6.6664047   4.7071347
  75.4198914  51.6485023  68.1397400  75.1944656  52.3563004  68.7434311
  76.2403488  51.2938118  68.4821930  28.4839020  45.1801949  22.1450100
  28.4323597  44.2996368  22.5167465  29.1780109  45.1227303  21.4883976
   8.9817104  56.4763641  15.3865576   8.7777023  56.5358887  16.3198681
   9.7192459  57.0740700  15.2640085   5.6560946  46.8959885  49.2109604
   5.5120993  47.1727333  50.1158981   4.9232640  46.3105469  49.0200424
  58.2369041   2.6931977  68.7756577  58.0319519   1.8876387  68.3010025
  57.6000977   2.7190015  69.4898300  27.9114208  60.6023140  25.8202381
  28.7053318  60.7159843  25.2977295  27.2555332  61.1429405  25.3800468
  65.6307983  65.1820221  13.6290026  65.0643005  65.8469696  14.0203524
  66.0685196  65.6345062  12.9079714   6.9746013  26.2702770   2.4441113
   6.7318940  26.0904865   1.5358163   7.9313889  26.2422714   2.4463975
  26.7000446  63.7342949  11.1825218  26.9596500  64.6492157  11.2909298
  27.2202110  63.2593269  11.8306437  14.3106022  69.9893265  36.1537209
  13.5757933  69.5020599  35.7810783  14.9279184  70.0836868  35.4282913
   3.7202108  49.0362892  30.5480785   4.3424563  48.4751091  31.0108089
   4.0675797  49.9213295  30.6588459  50.8310814  13.5122852  27.2157516
  51.5498962  13.5591736  27.8460999  50.0433350  13.4450579  27.7553501
  81.8022232  15.6352777  25.6321030  82.6621399  15.2343750  25.5054131
  81.6239853  15.5295134  26.5665951  52.6471786  22.1490574  81.3655777
  52.1327171  22.7341576  81.9216461  53.4274673  21.9511185  81.8834610
  71.6554489  65.7992325  59.7501564  70.7643509  65.4517517  59.7121239
  72.0409088  65.3859558  60.5227203  50.9862823  44.6790085  60.1397667
  51.1649704  44.6695366  59.1994400  51.5322952  45.3876762  60.4801941
  45.9342270   6.0920997  47.0973129  46.7792282   6.1695175  46.6543579
  45.2894936   6.3018417  46.4216194  82.6664581  37.4344711  14.3617048
  81.7804565  37.1795654  14.6191101  83.1473160  36.6085434  14.3082762
  38.2201080  46.6321602  27.1573048  38.3741913  47.4509354  27.6285763
  37.2669792  46.5501060  27.1250134  26.7885323  47.8953781  63.4401817
  26.7306576  48.0875511  64.3761063  27.6346798  47.4599342  63.3369560
  71.5298843   4.4937582  74.6620712  71.0976410   3.6438854  74.5777359
  71.8898849   4.6667480  73.7921829  34.8914795  18.2624245  82.1450195
  34.1821976  18.3138828  82.7857208  35.5995903  18.7790508  82.5296097
   6.7248559  37.6366386   1.6198773   6.8302121  36.8504791   1.0840768
   6.2038054  38.2283554   1.0770991   8.7801199  66.5809784  40.5188026
   9.7177486  66.4071426  40.6016655   8.5785608  66.3772888  39.6055031
  15.6192474  56.9835815  21.6121063  15.0300474  56.6334572  22.2803059
  16.3670139  57.3210983  22.1052170  73.3738098  21.2799644  27.5463772
  73.0811615  20.8582535  26.7384472  73.2687302  20.6073589  28.2192764
  66.3107910  11.1048603  77.0411530  67.1309738  11.4655094  77.3779984
  65.6282501  11.5659380  77.5287781  13.8700953  45.6264381  54.4815598
  14.4170265  44.9046173  54.7915154  13.4593410  45.9729576  55.2736702
   2.5402691   4.8158283  67.0326385   2.6380694   3.9178069  66.7160568
   2.9104152   4.8002892  67.9152374   4.9583869  26.2943344  72.6164246
   4.8434930  27.0085716  71.9896088   4.5111589  26.5954990  73.4073181
  55.5797005  49.8757515   4.0152521  55.1259460  49.0335312   4.0469279
  56.4826736  49.6705933   4.2577038   7.6247644  70.6389389   9.7011938
   7.0489106  71.1544876  10.2658491   8.5075579  70.8403473  10.0115824
  26.4455471  34.8329544   9.7286263  26.3955326  34.5259895   8.8233604
  26.8377151  35.7038040   9.6649199  34.1784401  57.5084991  88.0600281
  34.1377335  56.7766075  87.4444656  33.5121040  58.1209412  87.7483521
   0.4528079  -0.2076330  86.3028717  -0.4350521   0.1406671  86.3842545
   0.8704253   0.3517322  85.6479340  25.4343910   6.2992015  30.7049484
  25.2200871   5.8553276  31.5254860  26.3902893   6.3490458  30.7021656
  34.8854332  48.2535362  87.1103668  34.3229332  48.5639420  86.4008102
  34.6101913  47.3483505  87.2556839  52.2769241  49.5531921  16.0310726
  52.7835884  50.2205162  15.5682545  52.7121849  49.4674225  16.8792610
  53.0929413  16.3500786   1.9668188  52.3315125  15.9716091   1.5272530
  52.7539139  16.6645145   2.8049240  43.7078018  68.5821991  35.8140182
  43.1159134  67.9103775  35.4755630  43.3508110  68.8048172  36.6738052
  44.2112503  52.4400024   6.9342432  44.7547874  53.1879120   7.1820951
  44.4723244  51.7439232   7.5371890  28.3570099  36.4855232  75.4555511
  29.2151260  36.7998924  75.1708755  28.2451687  36.8547897  76.3315506
  82.2385941  48.4948235  11.9365969  82.5744171  49.2938843  12.3427477
  81.3389282  48.7107391  11.6912155  51.5630302  42.9111328  81.2199631
  52.2698822  42.5403175  80.6916733  51.9859047  43.5943565  81.7401733
  22.8425446   0.8837020  40.5417175  23.0931244   0.4551301  41.3601112
  22.6676216   0.1623161  39.9373703  41.7033844  59.4988022  59.4734383
  40.9345665  59.9907494  59.1851006  41.8567963  58.8629303  58.7746124
  46.6911469  30.0800362   3.2756021  47.6113815  29.9749088   3.5171559
  46.6205826  29.6663780   2.4152887  33.4186935   4.1592512  87.9003601
  32.5600166   3.7393608  87.8494110  33.3355713   4.9414353  87.3549194
  63.2209892  67.6001816  55.8396797  62.9013290  68.3078918  55.2800446
  62.8470535  66.8058167  55.4583855  68.6440887  43.4041786  64.5552292
  68.0215607  44.0878639  64.8027344  68.8665314  42.9727364  65.3802185
  79.9295197  32.4029617  23.7965012  79.7740631  31.5178928  23.4667740
  79.0594177  32.7293816  24.0258427   7.7574463  59.4711151  87.8006668
   6.9001694  59.1324997  87.5425034   8.3309507  58.7048264  87.7893753
  23.2740250  39.9279137  35.7703362  22.7385063  40.6809921  36.0199890
  23.7422600  40.2161865  34.9868279  26.3360996  33.6226692  78.7088242
  27.2730484  33.6555748  78.9018936  26.2898445  33.3510094  77.7921448
  70.3987122  33.9727097   3.0107841  69.7180862  34.5839348   2.7290208
  70.8926468  33.7802429   2.2137821  32.4506187  61.4860954   5.8197184
  31.8754883  60.9976311   5.2307682  32.9397392  60.8115196   6.2908239
  85.9697571  41.9237442  73.4109573  85.3615112  41.5345688  72.7826233
  86.5678253  41.2116776  73.6379166  81.8386765  51.1677475  16.1252384
  82.1256943  51.5135918  16.9703712  80.8875351  51.0968094  16.2060127
  31.4001999  63.8837852  59.0961113  31.1914234  64.5061569  59.7927399
  30.8560066  64.1587830  58.3582344  28.3085136  56.4953690  31.9335880
  27.7332172  57.2248192  32.1641655  28.3631058  56.5260506  30.9784393
  20.6832066   3.4620032  42.2917061  21.4872169   3.0531635  42.6120949
  20.6974525   4.3433022  42.6649895   0.9880936  52.1701279  53.8622589
   1.0314696  52.1371460  52.9066124   1.5696279  51.4675369  54.1528053
  64.4647980  60.5970917  35.7688675  64.9356613  59.7767830  35.6218414
  63.9336205  60.4320526  36.5478706  17.4811096  56.9418640  17.7480469
  17.2752934  56.2806358  17.0872517  16.9379044  57.6937561  17.5117989
  80.0477295  61.1092033  18.1105137  79.8151550  61.9223480  17.6622543
  79.4438095  60.4578629  17.7537689  60.9511986  50.7398224  61.4089203
  61.7426834  50.6054115  61.9301872  60.4073105  49.9751282  61.5977631
  15.4453278  31.9134655  63.9007530  14.5092926  32.0734291  64.0210876
  15.5499201  30.9748859  64.0568237  13.9712305   8.4725571  66.8381882
  14.2595072   8.1054935  66.0024872  13.8927078   7.7151055  67.4181290
  70.4046478  25.7333260  39.8659401  70.6551361  26.3300076  40.5712471
  71.1493683  25.1381626  39.7799034  61.5450821  23.9465199  20.7156010
  61.0267754  24.4757767  20.1094017  62.4497757  24.2141323  20.5539188
  69.6507645  28.4348736   7.4641204  70.2248535  27.8207798   7.0063601
  70.1007462  28.6133213   8.2898941  46.6175690  61.2096672  63.5639648
  47.0865707  60.8360023  62.8178825  46.0146980  60.5186615  63.8383560
  35.0249596  42.5373535  54.9290962  35.4254341  43.2800636  55.3810196
  34.6847687  41.9842072  55.6323280  10.7490349  10.7536421  77.2721558
  10.9587517  11.5101280  76.7244492  11.5478191  10.2262335  77.2681427
  60.9734840  12.0414886  82.8863678  61.4487534  11.5185728  82.2406845
  60.0557175  11.7999411  82.7615128  53.1938210   6.1865253  35.3495483
  53.5280685   6.5303640  36.1779747  52.9285431   5.2894201  35.5521851
  15.3840017  19.0643005  80.5919571  15.8210468  18.6952400  81.3594284
  15.4327955  20.0115147  80.7209396   5.1237631  22.4436703  66.0080261
   4.3709168  22.0847149  65.5383377   4.8285937  23.3013554  66.3137741
  28.5316467  46.2407570  33.5943756  28.6691475  46.0669785  34.5255699
  28.7789726  47.1587181  33.4829636  14.5315924  14.9072094  62.7066422
  14.5326662  14.3714933  61.9133949  15.1975822  15.5755157  62.5452194
  56.9824715  17.5668564  72.5035248  56.7106323  17.5962009  71.5862045
  56.1926804  17.3097038  72.9792709  26.4398766  14.8571157  32.8412209
  25.7522392  14.7904940  33.5037537  27.2029629  15.1810474  33.3197594
  25.2360554  12.1414537  31.4535580  25.5962429  11.9858856  32.3266525
  25.9444981  11.9020262  30.8560505  23.3708000  29.7043724   6.2735529
  23.6712456  28.8718739   5.9089837  22.4635868  29.7816830   5.9782248
  58.9425545  46.5652122  36.1908226  59.2430496  46.2549667  35.3366089
  58.0028114  46.7072334  36.0770416  45.3663216  20.1478806   6.6810236
  45.4719429  20.5401173   7.5477571  46.2067795  20.2954197   6.2473249
  54.9364738  18.7966251  25.6737461  55.6236191  19.3259697  26.0785370
  54.9246902  19.0783157  24.7590084  10.9833117   5.1943283  61.6707840
  11.7844772   4.8015327  61.3242645  10.2825031   4.6186924  61.3646126
  12.3548222  56.8506737  87.9603043  13.0511856  57.2845306  87.4672775
  11.6787615  56.6663551  87.3082352  47.3946037   0.6255642   8.3635550
  48.0072975   0.8198544   9.0728416  47.8519974  -0.0170224   7.8212409
  74.1481018  19.1329460  25.1558495  75.1000519  19.0815544  25.0698986
  73.9436264  18.5645142  25.8983498   0.5292634  12.4502630  73.3076782
   0.6331818  12.6152010  72.3705368   0.7345572  13.2881012  73.7225418
  38.9692841  69.1737442  46.5434952  39.0210991  68.4186630  47.1295013
  38.8394089  68.7940292  45.6744843  33.7746849  40.0790253  84.5198822
  33.8693390  39.2367592  84.9646988  34.1591644  40.7137337  85.1244888
  72.1748962  11.1013117  15.0934343  72.0697708  10.4241247  14.4251547
  73.0976028  11.0503864  15.3429489  66.9999466  51.2431679  27.5286255
  66.2594833  50.7091331  27.8162918  67.4654694  50.6893845  26.9018478
  77.6004639  13.1380558  23.6673336  77.8844070  13.0053291  24.5717621
  78.4139633  13.1806688  23.1647034  46.3468208  36.6704979   5.2043128
  46.2842293  36.9953194   4.3060894  46.9061813  37.3063126   5.6505017
   3.2650757   4.4629178  35.8892288   2.5998507   4.5997915  35.2147141
   3.2340384   3.5232732  36.0690536  84.0485229  38.1818810  22.6961308
  84.1218262  38.2320595  23.6491985  83.6359177  39.0079155  22.4438286
  61.0258179   0.0720728  57.1530724  60.6019745   0.5687497  56.4531441
  61.9550285   0.0798075  56.9234238  13.8018827  56.1921234  80.8454666
  13.2448378  56.5409966  80.1496048  13.3904619  55.3627129  81.0884476
  56.3723869   1.8962023  22.6104984  56.7357368   2.7718396  22.7426624
  56.0414238   1.6417062  23.4718494  70.9107971  36.4884186  56.7636948
  71.2999268  36.1591759  57.5738869  71.1291962  37.4203262  56.7545357
   6.5467443  34.0695572  35.0655327   6.5080428  35.0053444  35.2631073
   7.3664293  33.7747002  35.4622765  78.4287643   8.0931072  10.4880114
  78.8504715   7.4495864  11.0574617  77.8344345   8.5714502  11.0661049
   1.5225028  49.5780411  49.9694595   0.9875723  48.7842674  49.9715996
   1.0072216  50.2127762  49.4716339   9.5322132  12.8204603  26.6224976
   9.7510414  13.3316746  27.4016037   9.3126440  11.9519739  26.9597683
  74.9284821  54.2135239  39.7423439  74.1062012  54.2948914  39.2591515
  74.9557877  54.9902115  40.3011284  72.7464523  28.3588810  55.5303192
  72.0130310  27.7873421  55.3030014  73.1446915  27.9445229  56.2957878
  69.2467041  56.6916466  28.8311577  69.8781586  57.2416573  29.2948265
  68.8385773  56.1643982  29.5179443  18.9962311  31.4346046  14.2155809
  19.4333134  31.3768845  13.3659582  18.4684143  32.2311783  14.1597719
  12.3676062  38.2389145  41.8200264  11.5229187  38.6856880  41.8759499
  12.8439875  38.7118416  41.1376534  75.5430450  20.5342407   8.6230402
  76.0729675  19.8880825   9.0898275  76.0831451  21.3244381   8.6125813
  33.0375404  56.8523445  56.3759575  33.0028648  57.4341736  55.6166763
  33.4827690  56.0676231  56.0562439  85.6638107  66.7657852  44.6888046
  85.4027634  65.8451309  44.7104912  84.8860321  67.2421799  44.9792175
  86.1220779   2.7601469  68.2639694  86.7052460   2.0323424  68.0484543
  85.4908218   2.3871388  68.8792801  31.7651844  51.7926216  27.7608948
  31.3542652  51.0664864  28.2300510  31.0565186  52.4215431  27.6249409
   0.0623160  48.8140106  41.1864662  -0.0297203  49.7284012  41.4541435
   0.9259196  48.7703781  40.7759590  50.2985687   6.7685871  58.3241158
  49.8737030   7.4627466  58.8279648  49.6087494   6.4306469  57.7529945
  55.9334373  65.1780472  19.9014969  56.6905899  64.7973099  20.3464584
  55.3861237  65.5186920  20.6090546  45.2439919   2.9793482  13.6017361
  45.1364784   3.0461261  12.6529408  45.7725143   3.7418947  13.8371487
  31.4790421  10.5470066  76.6316452  30.8818550  10.8892403  77.2968369
  31.0668736   9.7358856  76.3342743  36.1048698  14.8747387  16.0107441
  36.8056450  15.3172321  15.5318460  36.0335083  14.0167971  15.5923223
  23.7081966  38.7701187  20.9200516  23.6670284  39.7221794  21.0101471
  23.4265556  38.6022377  20.0207596  67.9008408   1.9465712  86.4622192
  67.7475586   1.5256612  85.6163101  68.1921234   1.2362454  87.0339050
  25.3957691  27.0827160  78.0465469  25.4161148  26.6645222  78.9073257
  25.5968552  28.0019512  78.2220535  58.9521828  62.1466446  33.5686836
  59.8421440  61.7958603  33.5347672  58.6671638  62.1654205  32.6550941
  14.4825068  45.8469925  67.5601044  14.7281275  44.9490662  67.3373184
  13.8131161  45.7511215  68.2375641  18.5315075  33.4922028  17.7936192
  18.4816055  33.5628471  16.8403358  18.7096519  34.3844528  18.0909119
  76.8753433  68.4613037   7.3015876  77.5047455  69.0636063   6.9049587
  76.4654083  68.0193863   6.5580182   8.6726885  25.0592556  29.9331341
   8.9472809  25.4600029  29.1083717   8.8200464  25.7392006  30.5905476
  17.6500568  64.0288010  76.7199631  17.5542660  63.1083565  76.9645767
  18.2980328  64.0232086  76.0154572   3.6624124  15.0280342  43.5828171
   3.3551664  14.1392221  43.7612648   4.5763154  14.9174032  43.3205681
  10.0047598   8.8814802  33.7259674  10.3964081   8.2169399  34.2927399
   9.4904509   8.3822689  33.0915337   3.0096266  58.4335938  39.7468643
   2.8729966  58.8044205  38.8750572   2.7245927  57.5232849  39.6673050
  39.7801628  35.2942429  69.8781738  39.6460648  34.4241066  69.5025253
  40.4184608  35.1571503  70.5781860  80.0395660  70.7110214  12.9903097
  79.9545517  71.2790451  12.2245750  79.9271088  69.8253174  12.6451750
  51.4734955  46.5260925  36.3484421  51.0190392  47.3247948  36.0805321
  50.7942963  45.9897881  36.7574615  72.3636932  19.5308399  48.0678291
  71.6422958  18.9631481  48.3390160  72.3928680  19.4425259  47.1151581
  80.7516174  68.5169144  77.3220062  81.0844803  67.8152618  76.7624435
  80.8281403  68.1708527  78.2111740  15.2506380  58.0412254   2.8697031
  14.7120752  57.4706535   2.3214080  14.8278990  58.0171204   3.7281563
  60.6760979  58.7907906  13.2001724  61.3160477  59.3108025  12.7140856
  61.0538940  58.7029877  14.0752687  66.2946167  58.1694641  70.1920242
  66.6591187  57.3782883  70.5887833  67.0575409  58.6483688  69.8682709
  68.9098129  40.6773911  85.9249878  69.5733032  41.1330147  86.4430771
  69.1625519  40.8396339  85.0161209  20.4782543  71.2132111  51.7720337
  19.9101410  70.6366806  51.2610664  21.1519756  71.4953003  51.1533623
  59.8555794  59.5494080  48.2196617  59.1836281  59.3835335  48.8808746
  60.2594261  58.6947632  48.0689430  54.9075623   7.1604738  17.6351662
  55.8527794   7.0246358  17.5692577  54.5850868   6.3830876  18.0911407
  77.3883362  68.2845078  79.4753189  76.6436768  68.4537506  78.8981934
  77.9497223  69.0531006  79.3735962  83.0262604  26.1152000  84.9982758
  83.2008209  25.2778568  85.4279480  82.4894485  25.8875618  84.2391663
  48.4553108   5.2490954  75.9900436  47.8549156   4.8435397  76.6155701
  48.6749878   6.0941558  76.3822784  76.6441040  63.4964180  85.8556137
  77.4509048  63.1567841  85.4683685  75.9546738  62.9313698  85.5068512
  62.9560127  10.5748596  36.5792732  63.1856613  10.1700907  37.4157257
  63.7458496  10.4868498  36.0457497  73.2808838  50.1927834  69.8334274
  73.7724762  50.6394806  69.1442032  73.6410675  49.3060608  69.8482666
  32.5066795  34.2228851  67.6251221  32.4001923  33.5184898  68.2644348
  32.6980705  34.9982796  68.1527252  45.0700264  64.4735947   8.4256201
  45.0809937  63.7729530   9.0777082  44.1600494  64.7700043   8.4078274
  77.8634949  14.4084520  15.6503839  78.3120193  14.0589542  16.4203930
  77.9027557  15.3584328  15.7609634  26.3051262  64.7722626  45.2934952
  26.4772758  65.7117310  45.2303047  27.1723557  64.3744965  45.3704987
  86.0758514  10.3757935  52.8265572  85.2643509  10.3415604  52.3200684
  86.7692108  10.3957586  52.1669464  19.8283482  63.5995293  20.9437351
  19.1166801  63.7188606  21.5726395  19.6283970  62.7698021  20.5103683
  46.0704727   0.7950768  20.5276070  46.0915947  -0.1304302  20.7709637
  45.1890526   0.9312922  20.1800728  36.4641685  43.5479088  21.9267902
  37.3189774  43.2616463  22.2486382  36.5359077  43.4916992  20.9739380
  18.1799622   5.8363476  27.9026718  17.9335651   5.2326317  27.2019234
  17.4024410   6.3784375  28.0362015  75.2785492  55.3892136  21.0795746
  75.8351440  54.8362999  21.6279545  75.6566849  56.2648239  21.1605549
  61.5234566  45.3736916  75.9123077  60.8992462  44.6493454  75.8685532
  61.1124573  46.0089645  76.4986038   1.1743510  54.1359520  86.2278671
   1.8858683  53.9455681  85.6165314   0.5761610  54.6953773  85.7324448
  69.9901199  10.8247967  29.1038704  69.8933487  10.1443272  28.4376659
  70.8819809  10.7127552  29.4328957  70.5136108  70.4399185  12.9552574
  71.1024475  69.6872253  12.9008942  70.5678558  70.7209702  13.8686571
  36.2760048   2.5829327  13.6951189  36.0558853   2.5262847  12.7652960
  36.1873512   3.5123858  13.9060440  20.7478600  55.9396248  26.9930401
  19.9493256  55.5297661  27.3255901  21.0077019  56.5515251  27.6817284
  58.0601311  39.6125946  43.2036743  58.5718842  40.3877106  42.9722939
  58.2863007  39.4403381  44.1176796  32.5139885  60.1582336  59.2546425
  31.6037903  60.2407455  58.9701042  32.7062569  59.2239799  59.1744118
  19.5890656  53.5691719  51.6468811  20.3576393  53.0290794  51.4629593
  18.8854771  53.1654625  51.1387329  75.4111023  23.5599899  48.0041924
  74.9057388  22.9846420  48.5784874  75.4981079  24.3751984  48.4982529
  82.9029770  34.4309502  77.3652649  82.0097504  34.0966072  77.4465179
  82.8463898  35.3396301  77.6607819  80.3680725  57.3846397  32.1381149
  80.2247086  56.4446297  32.0282860  81.2879105  57.4585304  32.3924141
  44.9830437  69.7200317  63.4380226  44.6146698  68.8367386  63.4199448
  45.4867821  69.7528610  64.2512894   3.0743387  33.4002571  54.0757523
   2.3284070  33.1009102  53.5559349   3.7792137  33.5160942  53.4385986
  53.2062836  62.7751694  40.3756142  53.0115547  63.6552925  40.6976280
  52.3590202  62.3298378  40.3684692  64.5580215  19.7213478   1.5446815
  63.6201286  19.8882179   1.6382190  64.7927628  19.2267036   2.3298295
  59.9441452  27.3360710  34.5628052  59.0433540  27.5906582  34.7627869
  60.3990364  28.1644497  34.4108276   2.6191986  69.2915649  82.5590591
   2.7892094  69.0040512  83.4560928   2.6127880  70.2473297  82.6110382
  54.7998161   5.2999191  21.7307663  54.1511040   4.6065001  21.6100483
  55.4513817   5.1398368  21.0480747  79.0324707  38.3353958  68.5123672
  78.3457642  38.5968857  67.8989410  79.2444229  37.4352913  68.2651367
  73.5094604   3.8602569  37.6000938  72.9186478   4.6114368  37.5462685
  73.7683868   3.8246820  38.5209236  25.1003113  11.9937973   7.8308997
  24.9186592  12.4223757   8.6672935  25.7922592  11.3631554   8.0302238
  62.0551720  37.1234627  47.5537338  61.4173698  36.8345795  48.2064133
  61.5465012  37.2216263  46.7488441  46.2991982  37.5882301  63.5559120
  45.8453979  38.4253159  63.6538315  46.9922256  37.6128731  64.2157135
   2.0370715  17.3280029  74.4681625   2.8992133  17.5787277  74.1363754
   1.8108704  18.0174866  75.0923996  28.5709743  42.6845131  11.3794670
  28.2282448  43.5457230  11.1405382  28.4781456  42.1606102  10.5837660
  75.5020218  33.2572441   8.1742458  76.1856155  32.6358185   7.9237208
  75.2105713  33.6393051   7.3464060   7.0836878   5.2058501  75.7821884
   6.1726699   5.0126572  76.0034485   7.1798806   4.9043431  74.8788223
  31.1900692  16.2708359   1.0477010  30.9903851  16.5569839   1.9390361
  30.7518501  15.4239464   0.9641965  22.1378040  12.6915894  23.4097214
  21.6708832  12.9629698  24.2000179  22.9760971  13.1512136  23.4570751
  80.8385315  13.0954685  66.1311951  80.8558350  13.3047228  65.1973114
  80.3865128  13.8366480  66.5343857  51.0924606  20.9791260  87.2764740
  50.2456398  20.5337219  87.3037796  51.7280769  20.2769108  87.1382217
  76.8797455  23.2260342  53.9779167  77.5704575  23.7768154  53.6094131
  77.3299179  22.4253216  54.2470551  82.1617279  28.7657967  70.5072937
  81.5274506  29.1371479  71.1204987  83.0058060  29.1121960  70.7967224
  60.5079575  71.5314484  88.6824493  60.6224670  71.3758545  87.7449493
  61.3992157  71.5703506  89.0294037  59.9592590  65.1509476  54.3245621
  59.4139938  65.9154205  54.1388435  60.0347900  64.7005615  53.4833260
  77.4921722  47.8108826  16.8112392  77.3652039  48.3827057  16.0541859
  77.6726685  48.4095421  17.5359859  48.1695023  68.4869080  69.2318268
  47.3623581  68.0032196  69.0563507  48.8422012  67.8103333  69.3090057
  78.0906677  70.5640640  52.0730820  77.7426987  71.0514603  52.8198013
  78.1894836  71.2205963  51.3835716  45.2129478   3.8618302  10.9012833
  45.6281166   3.1070733  10.4839001  44.3404808   3.9022560  10.5096226
  80.1764450  37.0007057  87.3051987  80.1874924  36.1268578  87.6957169
  79.7943420  36.8703804  86.4373016   3.1324129  18.4395466  83.4074020
   3.1839464  18.1189041  84.3078232   3.9267001  18.1074009  82.9890442
  20.8087978   5.1496458   6.1656623  20.5527592   4.2555437   6.3920636
  20.2626324   5.7036724   6.7233276  75.6900711  23.2338600  27.8737144
  75.0330505  22.8942509  27.2660789  76.3548203  23.6304073  27.3106041
   6.4964175   7.3826737  52.4349289   6.6207709   6.6058621  52.9802094
   6.7009516   7.0876784  51.5475883  18.6576614  52.0722771  30.6771336
  18.5567093  52.6406250  31.4406891  19.3111458  52.5137634  30.1346569
  56.3183060  36.2692986  84.8212280  55.9071922  37.0048332  85.2753296
  55.6398239  35.5946121  84.7949371  53.5570412  29.5976849  66.5431137
  53.6078072  30.0729218  65.7137680  54.4219627  29.2004585  66.6448669
  48.3754845  33.9520416  46.9107704  48.6812401  34.8091431  46.6139145
  49.1403542  33.5564842  47.3287849  37.0824738  57.7531433  74.2302933
  37.7954445  57.3127098  74.6928101  37.1285248  57.4107666  73.3376007
  43.4655342   4.8890266  73.6600037  43.0405197   5.1077714  72.8306961
  44.3049278   4.5059628  73.4052277  76.1277924  69.5106506  23.3503475
  76.8871384  69.1359863  22.9039631  76.4922638  69.9373398  24.1258030
  75.2455139  41.8245125  61.0834923  74.5911255  41.6074562  60.4194908
  74.8000641  42.4388390  61.6669426  54.7125092  46.5592690  82.3936539
  53.8519173  46.8516884  82.0934830  54.8740463  45.7510338  81.9069443
  76.1626205  11.1224241  21.9219875  76.5851135  10.2764740  22.0706692
  76.3910904  11.6428938  22.6921482   6.1503468   0.6874136  84.0864029
   5.7875652   0.2939982  84.8800278   6.1735864   1.6258889  84.2733612
  62.6040039   9.4053764  20.0642471  63.4015312   9.8963127  20.2621517
  61.8943214  10.0286131  20.2196732  19.7484493  42.3280830  74.2230453
  19.1448822  42.9707031  74.5958481  20.2697201  42.0287628  74.9679794
   6.8902388  69.7558670   7.4252734   7.1398277  69.9430237   8.3302097
   5.9428759  69.8912659   7.4052157  61.1240540   2.3666830  27.3935757
  60.1839905   2.5460379  27.4120979  61.3952026   2.6012881  26.5060673
  53.9019051  17.6867580  65.0868835  54.3665733  17.0278835  65.6028290
  53.2008209  17.2005024  64.6529846  72.2752457  14.4808159  84.9917831
  72.8312302  14.9292107  85.6290054  72.8027725  14.4496260  84.1936798
  72.6120071   6.3152423  26.8369617  72.8796692   5.4981060  27.2575245
  72.8605423   6.2048721  25.9192047  32.1508179  39.7130165  28.2702942
  33.0186310  39.3164482  28.3468647  31.5643120  39.0907097  28.7003860
  72.6234283   4.2424655  46.1132355  72.8918304   3.6082497  45.4484329
  71.9183578   3.8051720  46.5906067  71.7732239  47.5723877   7.1037316
  71.5125656  47.0643654   7.8719745  72.2335052  48.3308563   7.4630418
  43.8992996  61.4304848  42.5917130  43.8017120  60.9008446  41.8003960
  44.4219322  62.1826286  42.3135605  33.1258049  55.2005005  17.8544426
  33.6193199  56.0117378  17.9751492  33.7870789  54.5512695  17.6147690
  79.2448120  30.8013344  62.2985649  79.2069702  30.1592827  61.5896416
  78.3490219  31.1306934  62.3714828  54.1344223  47.8147545  70.7012558
  53.3102913  48.1362572  70.3356476  53.8759003  47.0984306  71.2811508
  14.2915783   4.6063066  43.7564125  14.3789673   3.6546206  43.7026634
  14.6052990   4.9238372  42.9096642   2.1962440   6.2456436  80.4398270
   2.7825246   5.4915252  80.5015717   2.7116647   6.9780297  80.7777405
  37.3451958  48.5300140  85.3021469  37.5490913  49.2655220  85.8798065
  36.5527458  48.1445084  85.6758270  58.5874519  40.7838020   3.5012515
  59.0737305  41.3078117   4.1377869  58.8789597  39.8856087   3.6577947
  71.9912796  70.2959366  32.2502823  71.1995697  70.4442749  31.7331486
  71.6715851  70.1454697  33.1398849  22.2543812  22.6327744   2.6002588
  23.1518154  22.4499340   2.8784933  21.9216156  21.7887936   2.2949767
  76.1980438  45.9764481   2.8777645  76.4376602  46.7514191   2.3695967
  75.2753601  45.8294792   2.6697085  79.7643433  52.0821686  24.6957169
  79.5418701  52.9977760  24.5271931  78.9583817  51.6998329  25.0428200
  29.2549877  70.4800797   3.1844821  29.3340473  69.5262146   3.1731949
  29.9099369  70.7671814   3.8207567  14.8672371  58.9774094  71.1698761
  14.8650932  58.7037239  72.0871124  15.2385435  59.8595428  71.1840057
  -0.3177658  41.4020805  83.1963501   0.1613589  40.9406738  82.5080414
   0.2516749  41.3455963  83.9636688  37.5099068  42.5190201   3.8930199
  38.2630806  42.9849014   3.5298188  37.8919945  41.8684349   4.4820690
  62.0158806  10.1698170  46.2367516  62.0483284  11.1094561  46.4163551
  62.6355133  10.0417194  45.5185051  81.5886078  22.6504097  80.7305298
  80.7253647  22.3446712  80.4520340  81.6573410  23.5344982  80.3701248
  37.8279953  50.5929146  64.7649689  38.4579239  50.0432129  65.2310715
  37.2700691  50.9545097  65.4535904  37.3726959  19.3579273   1.0619820
  37.9441299  18.9215832   1.6938820  36.7279320  18.6922092   0.8225434
  10.1013088  50.1866302   7.1341782  10.4871264  50.0567780   6.2678552
  10.6331253  50.8757210   7.5323730  42.9631424  36.8843002  87.8286743
  42.6256638  36.0249939  88.0815277  43.8315430  36.9278297  88.2289429
  43.1971970  40.4577026   2.1902199  43.3554726  41.3491936   2.5007460
  43.1954651  40.5332222   1.2360051  66.0591125  16.2026558   4.9057531
  66.1765366  15.3614502   4.4643722  65.2832642  16.0798759   5.4527578
  23.2185593  28.5056000  79.9112320  23.7527657  27.7260113  80.0632019
  23.5860672  29.1660156  80.4986191  72.4126740  63.1730003  58.1310616
  71.5187225  63.5144348  58.1535225  72.9430847  63.8641930  58.5274734
  82.1936264  10.9868250  77.1127548  82.8487625  11.6547937  77.3148727
  81.8576202  10.7147484  77.9667511   6.3422747   6.1194272  81.1151581
   7.1805429   6.5812402  81.1315231   6.5136890   5.3300428  80.6016235
  54.2798042  62.0840187   8.4192381  54.8244820  62.8306160   8.1699324
  53.8658562  62.3528023   9.2393808  84.1042099  62.9376831  86.3520203
  83.4874496  63.6695251  86.3362503  84.5287323  62.9637032  85.4945068
  70.9510422  44.2662277   5.4055028  70.4248276  44.5347099   6.1586609
  70.4154129  43.6090546   4.9611397  85.9334946   6.8360314  80.7794037
  86.8890228   6.8662848  80.7316742  85.6874084   7.6680384  81.1836777
  50.6665192  58.7086449  53.2458916  50.3078194  59.5704384  53.0340614
  50.0868492  58.3689194  53.9276543   6.0539379  31.9001350  84.3006363
   6.9917550  31.9010468  84.1089859   5.7267661  32.7054138  83.8997421
  36.0563660  39.8830566  82.8810349  36.1618614  40.5909348  82.2454147
  35.1218262  39.8843727  83.0880737  86.2425079  50.3080978  65.8073273
  87.1572571  50.5896721  65.8206711  85.9044037  50.5514755  66.6691208
  11.2253656  31.0484543  76.9964752  11.3732920  30.2179871  76.5440674
  12.1021652  31.3539715  77.2291031  41.3699684  43.6527405  78.4067307
  42.0630455  43.0541763  78.1281662  40.5815201  43.1106186  78.4329453
  29.0208359  10.3900995  10.2618074  29.1320343  10.0070181  11.1319313
  29.5589314  11.1815691  10.2780132  14.9057913  53.5957146   2.5865476
  14.1586733  54.0143242   2.1589806  14.7850809  53.7833557   3.5173817
  86.8423615  17.7367573  20.6912193  86.9587250  17.4951782  21.6100941
  85.9013138  17.8864117  20.6002407  79.7745514  30.5685539   8.5355310
  80.2740555  29.7947769   8.2747622  78.8693466  30.3575878   8.3067818
  22.8643303  63.1737518  78.6535873  21.9135361  63.1671028  78.5432358
  23.1570091  63.9418602  78.1630936  61.2697449  62.8961868   1.9687893
  60.9026489  62.8227158   1.0878376  62.2118835  62.7797127   1.8461552
  49.7519646  41.9127426  54.7601509  48.9647217  41.3931694  54.9230194
  49.8431816  42.4602318  55.5400047  78.7462616   8.2818460  76.6417999
  79.1186066   8.1194782  75.7750702  79.2166901   7.6820817  77.2207718
  64.2579498  35.8554955  -0.2650685  64.0406799  36.2856865   0.5619513
  63.8353348  34.9985695  -0.2075609   9.6289415  36.4381523  35.5132408
   8.9423056  37.1046524  35.4899979  10.3864889  36.8876686  35.8877907
  76.4324265   8.9025965  62.3525734  76.2697754   9.7671461  61.9753075
  75.5623627   8.5697823  62.5726967  77.7292786  35.8188400  48.4714546
  77.7264786  36.7015038  48.1011467  76.9030991  35.4338493  48.1791573
  12.4771271   2.2549870  54.5969963  13.2641068   1.8418720  54.9522858
  12.5632362   3.1782453  54.8345032  60.1552544  46.9354477  27.4862041
  60.1049194  47.7703590  27.0207748  59.9802361  47.1597862  28.4001369
  69.5947037  47.6509666  78.6052704  68.7902145  48.1007385  78.3469391
  69.4980774  47.5092850  79.5469818  59.1800804  54.3687172  10.1515055
  58.5940094  53.6885223  10.4833002  59.2289467  55.0096397  10.8607731
  24.8153419  46.7675781  41.0764008  24.8940220  46.2935219  41.9042358
  23.9790955  47.2285538  41.1429138  18.6919327  51.2273521  67.9902573
  18.4606228  51.0050659  67.0884094  17.9150906  51.6675186  68.3352203
  39.4463234  16.5949650  69.0781403  38.5459290  16.9174023  69.1176147
  39.9731255  17.3758469  68.9080353  59.7068710  47.8819733  29.9045506
  59.6543732  48.7193031  30.3653698  59.9109039  47.2444191  30.5887508
   7.3352833  23.0908279  77.0769882   6.8673849  23.9258537  77.0829086
   8.1529741  23.2777290  76.6158142  52.8610687  16.5655708  20.8543072
  51.9907341  16.8706665  21.1105709  53.1653976  17.2148590  20.2202415
  21.0040455  68.2426224  26.6594849  20.0994759  68.0447693  26.9020481
  21.3748398  68.6596069  27.4372196  70.7613373  58.6634521  55.8812714
  70.9295959  59.5406914  56.2253227  69.9748611  58.3720512  56.3425331
  75.1279755  62.4445648  16.0041103  74.3306046  62.7151680  15.5489101
  75.1513901  61.4932022  15.9011879  16.9733372  59.5890083  55.3733826
  16.3103008  59.0913277  54.8949165  16.4833488  60.0439224  56.0583611
  16.5680218  45.7579422  63.7615814  16.1838074  46.1597404  62.9823685
  17.4211712  46.1820450  63.8538170  27.5370846   9.7741747  78.9508820
  28.4197063  10.1429214  78.9156799  27.4573345   9.4281979  79.8397980
  78.3004456   5.6847568  70.2655869  78.1305008   6.4578834  70.8037567
  77.8864517   4.9653502  70.7423401   6.1657763  59.3708839  33.3823280
   5.5862646  59.9226456  32.8570137   7.0106754  59.8201180  33.3585358
  33.0359001  66.1891403   2.1404035  33.0003204  65.2879410   1.8197762
  32.5806236  66.1621017   2.9819641  23.5770817  42.5091400  62.8378143
  23.5614471  43.4327431  63.0887108  23.2335548  42.4977837  61.9444542
  75.2403717  65.2096252  54.4121780  75.6126709  64.7714767  55.1774559
  74.3923492  65.5366745  54.7123985  14.5508051  55.2709351  53.7764511
  14.7381973  55.3334846  52.8398628  15.1773615  54.6254044  54.1034851
  16.1176052  13.5917072  85.9200439  16.0059280  14.2044535  85.1931992
  15.8233633  14.0777245  86.6903992  48.2915764  48.0751381  71.1255188
  48.2087517  47.8443413  70.2002640  48.0704613  49.0057755  71.1609573
  72.2558517  53.7580681  66.6289597  72.8165207  52.9879341  66.5352554
  71.5774689  53.6428528  65.9635696  82.6152878  41.0207710  87.6178970
  83.3594589  41.6227264  87.6275864  82.0522232  41.3245468  88.3298721
  50.9722137  44.6589355  63.7014885  50.5679092  44.0128250  63.1224327
  51.5617180  45.1544075  63.1329613   4.3931265  45.9809761  20.3164158
   4.3153706  46.5439987  21.0866051   4.9903898  45.2841797  20.5884190
  68.8251266  39.1131516  79.6453629  69.2717667  38.6498489  78.9367752
  68.3281021  38.4332085  80.1001968  82.1183243  15.9228811   9.4010401
  81.6931000  15.7572527   8.5596247  81.3969421  16.1140728  10.0004435
  69.0635529  55.0240822  86.0175400  68.2320175  54.5594101  85.9233780
  68.8378677  55.9461746  85.8948746  18.9313316  50.2566147  60.8953094
  18.1013908  50.6619530  61.1465683  19.4612675  50.9815483  60.5638351
   7.8524904  66.7255783  49.3678894   7.7713914  66.3570557  50.2475739
   8.7925758  66.8632431  49.2516098   6.7601190   9.9279709  17.5741711
   6.8030443  10.6850834  18.1582680   7.1320457  10.2403917  16.7493706
  67.7103195  63.0736961  77.1062241  68.1631317  62.8202324  77.9105530
  67.1678696  63.8198318  77.3617020  68.1986847   1.0792372  40.9223442
  67.5860748   1.6228589  40.4269409  69.0623398   1.4239733  40.6954308
  39.8643341  32.5672340  14.9035702  40.5600166  32.0664406  14.4775877
  40.1529198  32.6530380  15.8121891  82.5856552  24.0654259   5.4246712
  82.0277710  24.0941963   4.6473866  82.5664444  23.1487217   5.6994762
  13.8032923  28.5730438   7.5221305  12.8788948  28.3485985   7.6286426
  14.0745296  28.1031551   6.7335458  24.3810940  43.1188583  71.4124069
  24.5533619  42.6354523  70.6044006  23.6879444  43.7363319  71.1789474
  20.5641766  12.3504896  74.3310776  20.3000603  12.6845188  73.4738159
  21.4842072  12.1101742  74.2214203  40.6412697  42.6679039  83.7206345
  40.1116600  41.8988457  83.9310837  41.4864693  42.3097343  83.4493713
  18.5739307  46.9365273  31.6123428  19.2798958  46.8687973  32.2551918
  18.6726608  46.1573601  31.0651875  15.5957823  61.5110626  53.8197861
  15.7426262  62.1106415  53.0882301  16.3987999  60.9924698  53.8693275
  49.5712204  50.9633141  44.6004601  49.7167511  51.9026451  44.4877205
  48.6769295  50.8205910  44.2904396  15.0973959  39.9604645  67.7828598
  14.2655258  39.7835236  67.3436356  15.7411757  39.4508820  67.2908173
  79.5865631  53.6659393  70.6004028  79.5530472  52.7273636  70.7853012
  79.5331573  53.7241859  69.6464691  58.5848541  16.9285927  20.6187668
  58.0711250  16.3314228  21.1625500  59.4119492  17.0299091  21.0898094
  79.4484406  45.2119446  18.5553284  80.1853561  45.6103363  19.0184345
  78.6842270  45.7070427  18.8504314  24.6814747  56.7526245  30.6257401
  24.9261589  57.5049896  31.1645432  24.3567085  57.1367378  29.8113613
  40.5765228  54.5879478  88.1099319  41.2342834  54.1056480  87.6089554
  40.8042259  54.4233665  89.0249710  79.0499496  70.0931931  18.8712902
  79.7586212  69.7253723  19.3992367  78.8096848  69.3890915  18.2690067
  42.0955582  20.6088257  85.7748413  42.4364891  21.4347553  85.4315720
  41.3820152  20.3784904  85.1798325  28.9409332  62.7611351   0.4709748
  28.8404388  63.5733109   0.9674663  28.4889202  62.1013870   0.9969521
  69.5634308  12.4187098   1.7185282  69.6614151  12.3665457   2.6692696
  69.5308609  11.5063934   1.4306904  56.2845383  56.8335571  84.9548492
  57.0987778  56.3320541  84.9966431  55.6541977  56.3083687  85.4478760
  72.3705063  12.9684067  38.0034370  73.1626587  12.6958971  38.4665375
  72.3543320  13.9209299  38.0965538  17.1254330  58.5370483  66.6072617
  17.4354000  59.4204674  66.8065643  17.1471481  58.0802155  67.4481354
  30.2662220  53.6917267  78.4872818  29.8941174  54.3007812  77.8494492
  29.5084400  53.3472252  78.9598465  51.6092720  57.0707283  20.4822960
  52.3359337  57.2321739  19.8805237  52.0082359  56.6129227  21.2222118
  74.9670715  23.7053032   0.6628622  74.3035507  24.3737679   0.8335309
  75.1311188  23.7654533  -0.2782552  78.3144150  31.1730785  80.3206482
  79.2462540  31.1723785  80.5395432  78.0214386  32.0615082  80.5233459
   3.1487887  33.1369781  72.6063004   3.4097767  34.0555954  72.6715698
   2.2512310  33.1188164  72.9384003  67.3376007  30.0035172  37.5441475
  67.8975983  30.7533703  37.3432617  67.7141571  29.2817020  37.0407372
  44.8856697   3.7017541  35.0051155  44.0153084   3.8341749  34.6293907
  45.3122520   4.5551558  34.9278946  58.4191246  44.7990646  69.5924759
  57.9222717  45.5542374  69.2777023  57.8799629  44.4329796  70.2935638
  71.1188507   8.7723608  16.6177235  70.2718964   8.8394012  17.0586395
  71.2434998   9.6279812  16.2071056  44.6135597  17.8275185   9.9352617
  44.0072708  17.1235886   9.7047596  44.3405838  18.1016159  10.8108120
   1.3601438  49.3405724  72.4511490   2.2531259  49.6256943  72.6448517
   1.4139992  48.3852348  72.4255219  84.2506180   7.7361870  17.0215054
  83.9630661   7.3178229  16.2100163  83.4436264   8.0551853  17.4255238
   2.9203620   3.5645239  30.4633083   2.3816438   4.2607355  30.0874043
   2.3281872   2.8159528  30.5354328  65.2703171  69.9473419  37.9635963
  65.3061523  70.3134384  37.0798988  66.1156693  69.5129852  38.0773582
  32.1153374  65.3399200   7.1468368  31.7729568  64.4813309   7.3955088
  31.3915634  65.9437866   7.3133497   8.8118744  70.2941589   5.4206486
   8.0711794  69.8344193   5.0253778   8.6650982  70.2186584   6.3635106
  84.5614090  34.6330795   2.3970430  83.7572250  35.1504173   2.4404709
  84.2883835  33.7459068   2.6307292  57.6863823  37.1025620  46.5965004
  58.0596924  36.9297981  47.4608078  58.4449081  37.1639175  46.0158920
  61.2611046  10.5108910  63.2837448  60.6206627  11.0931253  62.8750038
  60.9459152  10.4001474  64.1807556  71.9101868  40.4475746  55.3522682
  72.0764389  41.2578926  54.8706284  72.4174805  40.5399017  56.1587143
  73.6139374  24.3276405  15.1482410  74.1786499  23.6430302  14.7895708
  74.0458145  24.5934277  15.9600763   1.8017071  56.1217079  53.1544685
   2.2488453  55.5576820  52.5234566   2.3891749  56.8691559  53.2659721
  35.4924507  68.9010010  38.0900345  35.3518753  68.4299240  38.9113503
  36.2100716  69.5052032  38.2802734  74.5613403  22.9851742  65.4683990
  75.5034637  22.8737240  65.5957108  74.4366837  23.9329777  65.4198151
  85.5128326  16.9031124  14.0708132  86.1419678  16.3011570  13.6732340
  84.7899017  16.9419823  13.4446344  14.9171858  21.7346153   6.6752558
  14.5261631  21.9880219   7.5113883  15.0322809  22.5601749   6.2046857
  18.8928699  69.1955185   0.8704296  18.5493145  69.8492966   1.4793422
  19.8425159  69.3098526   0.9069694  35.5406265   5.2176094  14.0836124
  34.7272415   5.1783085  14.5866928  35.3986893   5.9241333  13.4536047
   4.7159462  33.8839302  52.1222839   4.6814642  33.5164566  51.2391052
   5.2476621  34.6747322  52.0320740  67.0539093  50.1522484  12.3474674
  67.8869705  50.0500298  11.8872528  66.8637390  49.2808533  12.6949387
  76.6441879  62.9788589  49.1999702  76.0004883  63.1270065  48.5071907
  76.4150391  63.6129570  49.8794098  60.4631767  26.8368454  44.1846962
  61.3216667  27.2232494  44.3576736  59.9552917  27.0178604  44.9755898
   9.8249569  55.8111801  27.4588127   9.1098900  55.3260231  27.0470657
   9.4630709  56.6831665  27.6166382  60.9932442   5.6533470   7.3102922
  61.4067688   5.6780910   8.1732054  61.6734200   5.9585204   6.7099075
  80.9669495  17.2928619  34.8742828  81.5096054  17.7320194  34.2193794
  80.0713806  17.3990822  34.5535049   8.0568199   6.7486315  50.0827293
   8.9164619   6.4504356  49.7855301   7.4416175   6.3696437  49.4549370
  45.7510071  48.7934570  78.9428711  45.4266663  47.9421654  78.6490326
  46.6722565  48.6395035  79.1522293  77.8751831  66.4313889  73.6295700
  78.7835159  66.7301407  73.6733017  77.7074585  66.3107681  72.6949310
   4.0341721  35.0404892  20.0880852   3.8528712  35.8922424  20.4854202
   3.3903861  34.4510384  20.4809208   8.4808846  44.6129532  25.9019718
   8.1965036  44.3148499  26.7659721   9.4238291  44.7493629  25.9940548
  29.5140038  41.1724167  26.3897610  29.9067402  41.6003380  27.1505985
  30.0452538  41.4654465  25.6493969  42.7644348  29.7595615   8.1800270
  42.6533508  29.1788521   8.9328022  43.6686745  29.6180439   7.8997412
  21.2734127  47.4721718  71.1641617  20.3983173  47.5952797  70.7963562
  21.4005852  48.2278023  71.7378235  24.7342930   3.1596496  64.5579758
  25.3175430   3.8908947  64.3546753  24.0040455   3.2587512  63.9471130
  20.6209965  63.8548164  13.1983204  20.6521091  63.4453659  12.3336735
  20.4867191  63.1257744  13.8038750  20.8586407  57.7139740   3.1820734
  21.0860939  57.5356712   2.2695470  20.7760601  56.8482056   3.5818939
  35.4120331  66.4759216  51.0468903  35.5904655  67.1004944  51.7499542
  35.7434845  65.6412735  51.3781471   4.4262671  70.1018753  30.0435276
   3.4916205  70.3021317  30.0941715   4.7141891  70.5076447  29.2257957
  67.0413895  55.6866417  63.0983124  66.3434982  56.3414688  63.1176720
  67.7606583  56.1167793  62.6358528  64.6277771  10.8711195   9.5758410
  64.1812668  11.5641985  10.0621595  64.6828308  10.1421957  10.1937981
  72.3834000  59.0023041  63.9153137  72.2751923  58.6965256  63.0147438
  73.1155548  58.4886055  64.2563400  76.1241150  59.8594666  75.0612030
  75.7366867  59.0228004  75.3183441  76.3940048  59.7291183  74.1521378
  81.0324326  68.6264038   2.4734094  81.8779449  68.9180374   2.1324024
  81.1871872  68.4833984   3.4071283  41.9163475  19.5687160  79.1461868
  42.3211632  18.7199783  78.9673004  41.4680710  19.7966805  78.3317413
   8.4043512   5.1195302  35.6883240   8.8618269   4.5293713  36.2872086
   7.8139935   4.5498996  35.1951408  11.1378756  22.3417320  84.4081955
  11.7856798  22.9857826  84.6941681  11.2118015  22.3351460  83.4538727
  34.8606567  65.5843658  66.6346436  35.5333366  64.9593887  66.3642044
  34.1957169  65.5326004  65.9480515  57.6453094  55.9092674  49.3397522
  58.4876938  55.7185745  49.7523689  57.8068314  56.6950073  48.8174934
  35.8851013  65.0647430   3.3613811  35.8168831  64.6184006   2.5173669
  35.4126015  64.4978561   3.9709866   4.2879786  39.0972214  47.1029243
   5.0316243  38.6897812  47.5470123   4.4960904  39.0244980  46.1714554
  32.5990257  64.1583176  29.3345757  32.2295837  64.3188095  28.4662514
  33.5450706  64.1321411  29.1912518  35.1301422  58.0334892  48.1667900
  34.8358345  57.2831116  47.6505013  35.9137688  58.3438339  47.7130852
  69.3738251  50.1276321  62.2759514  69.9638367  50.0473709  61.5265007
  68.6242828  49.5765305  62.0507851  37.7002144  65.3668518  43.1643982
  37.2943459  64.7715683  42.5342064  37.2159538  65.2216797  43.9772034
  62.8709984  47.3830872  44.5506783  63.0517082  46.4834976  44.2780762
  63.1613121  47.4200859  45.4620438  60.9288254  35.9798088  64.1996078
  60.5179558  35.8178864  65.0488434  60.2511368  35.7609100  63.5600319
   2.3793156  16.9752388  80.6199341   3.3120534  17.1879311  80.5884018
   2.1233110  17.1541348  81.5247421  22.3383808  39.0912247   4.8244953
  23.2451134  38.8950691   5.0602722  22.3847828  39.9357071   4.3762450
   2.6799836   2.4229431  33.5706291   2.6027100   1.8752201  32.7894363
   2.1281211   3.1829031  33.3858566  62.0851059  60.4478416  71.5894241
  62.9801941  60.7623787  71.4624710  62.1832695  59.6483154  72.1064911
  65.1159897  40.6183014  11.3698072  65.6105499  41.0935822  12.0374479
  64.4033508  40.1994667  11.8524714  37.8358994  27.0998116  17.1470890
  38.7896080  27.1546230  17.0864830  37.6725159  26.7091255  18.0055180
  77.4175186   2.4822176  57.8103065  77.3859634   2.1952767  58.7229424
  76.5636292   2.2384858  57.4529495  36.7314262  49.6834869  37.9473419
  36.6836014  48.7552147  38.1759262  36.5721550  50.1418457  38.7724304
  13.8572731  52.1410141  35.8843307  13.0063114  51.7331696  35.7238350
  14.4940681  51.4611473  35.6640854  59.5734100  23.9291439  62.2254601
  58.7109222  24.0673523  62.6169281  59.4332390  24.0541439  61.2868652
  44.0089989  46.0035286  31.7193813  44.5120621  46.8087234  31.5976353
  44.2606354  45.6931000  32.5891762  70.2368851   6.4173961  25.0390873
  70.0858765   7.2830372  24.6594906  70.4281158   6.5901585  25.9609413
  24.6105232  15.5412140  75.6453705  24.3113041  16.2389526  76.2283478
  23.9831066  14.8309879  75.7801285   2.5607712  16.9134922  85.9104614
   2.8126264  17.4523163  86.6604385   2.9367526  16.0531387  86.0966339
  50.3089561  62.5063324  67.5577774  49.3943100  62.2806892  67.7273026
  50.7779694  62.2061386  68.3363266  60.3409424  57.9106140  21.7834167
  61.1936264  57.7478752  22.1867447  60.1415520  57.1026306  21.3105164
  12.1178389   9.4751768  87.7929382  11.5289555   9.4076090  87.0413513
  11.8731546  10.2983713  88.2156830  42.8937225  42.6976814  31.9021244
  43.7588234  42.4288483  31.5929985  42.5801048  43.3083229  31.2350464
  85.9032440  17.6244087  35.5491791  84.9596024  17.7461853  35.6537590
  86.0613785  17.7683849  34.6161766   4.5562234  32.1068077  17.3683777
   4.7653432  31.1734028  17.4037743   4.5158968  32.3079376  16.4334164
  62.0915337  11.7627525   3.5295458  62.4003067  12.4140167   4.1594248
  61.2296524  11.5038939   3.8557167  76.3527679  48.5711479  27.0447407
  76.6065292  48.9953918  27.8644066  76.1608810  47.6667137  27.2925644
  67.4501190  22.9659405   5.7866721  66.9383163  22.2655067   5.3820958
  66.9580460  23.1978893   6.5742617  70.5149002  52.0293846  23.4863243
  69.9616241  51.7629509  22.7520714  71.3140030  51.5124817  23.3839817
  46.2470818  49.4577484  48.5108719  46.3065567  50.2631569  47.9970512
  46.2946358  49.7502403  49.4210472  76.3579788   1.2140045  25.2330112
  76.7021332   1.3817697  24.3557186  76.9472961   0.5547205  25.5994511
   9.8556099  58.2082672  77.6299362   9.4408903  59.0042191  77.9626541
   9.9128313  57.6315918  78.3917847  83.2591324  37.9903984  57.0108414
  84.1162720  38.3020515  56.7203026  82.7532730  37.8938560  56.2039871
  13.8009014  52.0102043  83.4687805  14.6470490  52.0530434  83.0233231
  13.9845695  51.5506821  84.2881317  34.9160576  23.3053799   3.0484216
  34.0513077  23.1477814   3.4273720  34.7386818  23.7783661   2.2353697
  31.7481937  32.4131317  73.8796234  32.4318085  31.8344898  73.5418701
  32.1938744  33.2461967  74.0332565  42.3739967  10.2996750  74.2789688
  42.8245506  10.8326826  73.6238861  41.4450035  10.4833460  74.1394424
  22.1577930  71.4324570   5.5278478  22.9776211  70.9867554   5.3146296
  21.4752026  70.8539734   5.1877666  31.0842056   9.2440033  86.5140076
  30.8795280   8.3095484  86.4803467  31.7650928   9.3640528  85.8520355
  17.2274971  36.4734879  67.1198959  17.8455830  35.7905350  66.8595657
  16.5856228  36.0199890  67.6663132   6.9167323  48.2033882  80.7934952
   7.0251961  47.3072739  80.4749908   7.6589799  48.6808014  80.4228516
  28.5857010   6.8585963  10.6618595  29.2892361   6.2222261  10.7895384
  28.7980747   7.2873116   9.8328047  80.0079956   9.7290363  31.8314781
  80.7160721  10.1087685  32.3517342  79.2213287   9.8706989  32.3580818
  44.1951790  60.0398941  44.9662399  43.3437119  59.6095085  45.0437469
  44.1261139  60.5657158  44.1693916  27.5274220   7.3918734  13.0319376
  27.7492771   7.2443552  12.1125622  26.5761166   7.2920318  13.0677614
  83.2969513   0.8391515  25.1238899  83.0818863  -0.0927652  25.1627903
  84.1908493   0.8646275  24.7825279  59.4848747  63.2522354  25.5929337
  58.5412064  63.1264000  25.4934940  59.6561165  63.0612106  26.5151157
  41.5614395  27.6156597  84.8741684  41.3278542  28.4872780  84.5548706
  41.5121727  27.0556297  84.0994568  33.4271240  36.6735306  84.7484970
  33.4295883  36.5205078  85.6933823  34.3440018  36.5832443  84.4888535
   8.7720003  26.6507816  62.4292030   9.6655455  26.4197197  62.6830139
   8.3902588  27.0341377  63.2188492  18.3584175  29.9295998   8.5126734
  17.5622940  29.9715519   7.9828992  18.6284847  29.0124264   8.4669495
  38.9877281   7.6733408  86.9165039  39.2835922   7.2281814  87.7105637
  38.1540565   8.0739298  87.1629868  61.1060562   6.5567951  35.7330933
  61.8011627   7.0608573  35.3100357  60.3159714   7.0808249  35.6012192
  71.3182983  59.6319160  12.1865826  70.5028610  59.7059669  11.6907854
  71.0441284  59.3418541  13.0565977  73.1701508  45.9287987  37.0115623
  73.9250488  45.5014954  36.6068687  73.4842072  46.8036308  37.2401848
  42.8309021  12.2854042  63.8234367  43.5356369  11.7126236  63.5209503
  42.3264656  11.7442493  64.4308319  26.7678947  70.8776627  27.7845993
  26.9867687  71.6003418  27.1963291  27.5536442  70.7563324  28.3176193
  18.4353809  43.7875023  69.2892990  18.9788017  43.1930504  69.8065491
  18.1684761  43.2688141  68.5303802   0.2004771   2.6328804   3.6841419
   0.2214969   3.3892303   4.2704220   0.1746516   1.8763555   4.2700043
  28.8140659  63.1055298  23.7201042  28.8016987  64.0131378  23.4162407
  28.5578499  62.5927849  22.9535046  34.9747658  59.5121498  68.4368515
  34.3045731  59.7110405  69.0906982  35.8032036  59.6983299  68.8787308
  73.7816772   8.8494768  62.8991127  73.3692932   9.1533470  63.7077141
  73.0888672   8.3735895  62.4410934  61.3514442  53.1660881   3.3676443
  60.7813416  53.8449898   3.0066609  61.9268608  52.9255066   2.6415257
   5.6491828   7.6541929  32.1612816   5.3126292   7.1521249  32.9034996
   6.3440676   8.1965685  32.5343704   8.4610920  17.5063229  73.4972534
   7.7651801  16.9962997  73.0827408   8.0634346  18.3602524  73.6672668
  58.1968384   8.9825802  42.0523376  57.9200020   8.9362564  41.1372185
  58.5306511   9.8735876  42.1567802  66.7907639  24.8603420  69.0265656
  66.5536728  23.9580517  69.2407913  66.0225830  25.3750286  69.2740021
  79.4714966  37.1899071  14.2043438  78.7598038  36.5502090  14.2272224
  79.3337097  37.6724358  13.3892279  81.0529556  34.4918747  69.5229874
  81.5951004  34.9240646  70.1829300  81.6714554  33.9771805  69.0045547
   6.8026962   8.8588619   2.9481630   7.3799319   9.2935629   2.3204165
   5.9972930   8.6932859   2.4581201  19.7156162  45.9857941  22.9618683
  19.4082546  46.2957306  23.8137474  19.4152260  46.6508217  22.3424072
  25.7852001  68.2569199  82.7710648  26.0747032  67.9175415  81.9241638
  26.5101147  68.8061829  83.0694656  75.1398163  19.1324863  36.1419296
  74.5996170  18.7337132  36.8241272  75.1495590  20.0648022  36.3585548
  20.8064671  23.6885586   8.1622381  21.7255630  23.9257717   8.2856312
  20.3411903  24.1683998   8.8474398  82.9712143  48.9585648  74.9482651
  83.6791992  49.0776825  74.3151855  83.0252304  49.7276802  75.5155182
  83.5120850  18.3512249  36.3839951  83.1129074  17.9838257  37.1726074
  82.8310699  18.2795677  35.7151833  81.5025406  21.1667881  10.3088589
  81.6900253  21.9986763   9.8740730  82.1593857  21.1056538  11.0024338
  31.9113083   1.1156905  85.6172485  31.7376957   1.7447766  84.9170074
  31.7926922   1.6167217  86.4241714  60.4045715  39.1443443  11.6571617
  61.2257500  38.6640739  11.7631502  60.5561790  39.7145958  10.9034643
  42.7617455  54.2609711  16.9610023  41.8782578  53.9885025  17.2088680
  42.8968849  53.8763580  16.0949535  82.1319122   4.4708004  71.7309723
  81.5396805   4.1339426  72.4032898  82.8689804   4.8345847  72.2215042
   7.6324821  42.8140907  13.3714876   6.8630791  42.4911461  13.8404827
   7.3716464  43.6766472  13.0486908  66.6796646  60.7391777  39.9272232
  66.9673462  61.3210983  39.2237740  66.5603714  59.8900108  39.5018806
  50.7632828  10.0487309  16.3360481  51.1821861   9.2451038  16.6441650
  50.5256958  10.5170126  17.1363564  18.6928368  33.1348228   6.5883651
  17.7633057  32.9400253   6.4689622  18.7282906  33.6476135   7.3958430
  64.2374191  67.9869995  52.4172630  63.3845596  68.3468781  52.6608772
  64.1519623  67.0455704  52.5677185  80.7300034  51.2238426  22.1207066
  81.3613510  50.5176735  22.2584171  80.4464798  51.4668884  23.0020542
  52.1637115   5.7363768  63.4942703  52.1629486   6.5797586  63.0415688
  51.5197487   5.8400059  64.1948471  61.3282509  37.1221123  13.5919781
  61.2378960  36.4232368  14.2397738  60.8015289  36.8290291  12.8484077
  67.4798279  41.2872086  78.4206619  67.7338943  40.4614906  78.8328171
  68.3093262  41.7267418  78.2336426  54.3519974   0.4269100  32.4161911
  54.6731682  -0.1510535  31.7240658  55.1262169   0.9120687  32.7015610
  81.5113297  62.2127953  65.0163879  80.8447113  61.6025276  65.3317032
  81.1228714  63.0783730  65.1433029  32.3325996  68.3005753   0.4226638
  32.9135971  67.9508896  -0.2529034  32.3177261  67.6238861   1.0994990
   2.3267071  20.7535133  85.3983383   2.1690474  19.8338413  85.1848373
   1.5588689  21.2132530  85.0587845  43.3353500  18.7001629   0.7466389
  42.8388863  19.4304485   0.3772633  43.5551224  18.1539192  -0.0080460
  63.7075577  43.9205551  11.5416670  63.6734314  43.2022476  10.9099236
  63.0547142  43.6895599  12.2024784  80.3617630  48.8913345  55.9062843
  80.9581528  48.2736740  56.3294220  80.8067169  49.1363373  55.0949745
  22.9200687  12.4239559  86.4426880  23.2627392  11.6549444  86.8981323
  23.5650177  13.1104116  86.6131363  16.0342617  67.3891602  80.5102615
  16.6922321  66.6942215  80.4912567  16.3231201  67.9733810  81.2113190
  59.8149452  60.2753258  29.5445251  60.6828766  60.5410919  29.2407227
  59.6425362  59.4525146  29.0868225  20.2982121   7.8941422   2.2170196
  19.4582920   8.2838345   1.9743135  20.3942356   8.0928879   3.1484225
  73.0418472  29.8852081  47.8439484  73.0065231  29.6669769  48.7752686
  73.3272476  30.7986221  47.8226395  40.8325233  47.2480507  16.7878895
  40.1827660  46.8095016  16.2385960  40.5947571  47.0030403  17.6821308
  13.1869755  63.0607071  75.9562836  12.3390207  63.3797722  76.2651596
  13.7903881  63.7849350  76.1224747  62.0348740  29.4432182  12.8193636
  62.2979736  28.5327301  12.6851139  61.7950058  29.4892387  13.7448778
  82.7917557   0.2713160   3.5438097  82.3113098  -0.5533286   3.4705508
  82.8469696   0.4334979   4.4855528  42.3323631  48.2578316  77.8270645
  42.0964394  47.3806076  77.5253143  43.1224518  48.1263962  78.3511963
  47.2098274  22.9025230  85.9701233  47.6446686  23.0592480  85.1319275
  46.8718987  22.0096016  85.9013748  41.2997093  67.6277008  68.3043442
  41.4613724  66.7729034  68.7036209  41.9570999  67.6968536  67.6120377
  44.7188110   4.2303228  87.0740738  45.0594864   4.8059902  86.3893967
  44.7640076   3.3530588  86.6938171  57.1931610  57.0397339  63.4889069
  57.4257774  56.7833862  62.5964928  56.5740318  57.7611427  63.3772011
  14.3220510  28.8796349  24.6571865  14.2762318  27.9958363  24.2924480
  15.0817327  28.8594723  25.2391739  10.4415054  21.9890041   1.4929618
   9.9050760  21.3216076   1.9208108  10.7659369  22.5322113   2.2112260
  56.3643837  19.2114887   3.1133001  57.1299362  19.5970726   2.6872864
  55.7356682  19.9308090   3.1726992  19.0440578  17.6408234  88.5848007
  19.6241531  18.3944149  88.6935272  19.2737026  17.2835979  87.7269592
  41.2248383  64.6484680  64.9392166  40.8964653  63.8922119  65.4255142
  40.5588417  64.8112717  64.2712479  77.5228348  42.6713829  44.3602753
  77.4765625  43.3262520  45.0568619  76.6094818  42.5037460  44.1280785
  42.6091766  39.3943481  25.5217514  41.9948273  40.0411224  25.8688660
  42.2101326  38.5494232  25.7293510  42.9426155  53.5108414  66.8507462
  43.3444023  54.1168137  67.4733200  42.4270515  52.9154472  67.3947449
  81.0226746   2.6308906  85.3611603  80.2427750   2.8412337  85.8747253
  81.6283112   3.3502710  85.5398331  85.6159668  61.0684853  45.8051720
  86.3179550  60.7078590  45.2635193  86.0703354  61.5356789  46.5062485
   6.7456846  23.8494549  64.2077560   6.1414838  23.2479725  64.6429443
   6.6206965  24.6836033  64.6603088  56.1592941  23.3061714  46.3188286
  56.1468391  24.1033211  46.8485718  55.2710152  23.2372227  45.9689217
  68.2823639  59.4354248  77.5585098  67.8151321  58.6566391  77.2561569
  68.7409286  59.7561836  76.7819443   2.1153820   4.9733000  10.1914654
   1.3668257   4.3885093  10.3094282   2.5204566   5.0214987  11.0573883
  64.7411270  44.8650894  73.5941696  65.5790863  45.2633362  73.3586731
  64.4791870  44.3784256  72.8126450  80.8985138  69.2269592  49.0566978
  80.7473984  68.9562149  49.9622879  80.7931900  70.1782455  49.0703659
  65.5189209  21.7129555  56.8236504  65.1440582  22.4756355  57.2641411
  65.8221893  21.1500225  57.5359459  27.6123638   5.7767630  39.5206604
  27.1722069   5.1383801  38.9594460  27.2850685   6.6249170  39.2210846
   3.2598333  51.3458023  46.6613960   3.6450355  51.6626625  45.8444214
   2.9050262  50.4846115  46.4407196  18.9597759  15.3618269  32.2676163
  19.5383778  15.6039944  31.5445614  18.4523201  14.6232033  31.9312305
  30.9294662  30.3357296  15.5392036  30.9755573  30.5932922  14.6184607
  31.6051426  29.6644154  15.6342344  16.8404350  53.3365555  68.8535156
  17.1261292  54.2494965  68.8197021  16.0767612  53.3030777  68.2773972
  53.4701958  41.6525002  43.1870537  53.7315331  42.5727501  43.1542778
  54.2955513  41.1682053  43.1651955  34.9246292  67.4707565  30.8393478
  35.7114410  66.9280472  30.8906422  34.9348755  67.9843826  31.6470051
  28.0384312  20.3104763   6.1030345  28.2897968  20.0954609   7.0012641
  28.2506237  21.2392864   6.0107512   7.5738502  53.6466103  15.3971300
   6.9811282  52.9479675  15.6742830   7.3094516  54.4054146  15.9172640
  80.0860596  19.4516010   6.5191240  79.2486496  19.9137878   6.4822984
  79.8467102  18.5283203   6.5997090  60.2040482  55.0064545  79.0913010
  59.4469566  55.2798080  79.6092987  60.8343658  55.7195091  79.1936722
  54.4356308  21.8261604   3.6584144  53.5112801  21.7313404   3.8882303
  54.4470978  22.5105896   2.9893425  72.1630554  18.9206810  45.3025322
  71.5212708  19.2897987  44.6958237  72.1020355  17.9747448  45.1694527
  74.1692200  53.3667030  63.7934723  73.9752350  52.6857491  64.4375992
  74.4241333  52.8858986  63.0060234  23.8813171   3.7885506  12.8133965
  23.6545105   3.1411817  12.1457853  23.6788788   3.3573859  13.6436663
  77.7743454   9.0969620  42.3590126  76.8937607   9.1013021  42.7342262
  78.1755829   8.2971439  42.6989098  67.0622330  21.0859737  11.2951088
  66.6940384  20.3310604  11.7542019  67.9819107  20.8582420  11.1588488
  23.6453800  70.6291046  81.1791687  23.4731922  69.9721146  81.8536682
  24.5558109  70.4784241  80.9249191   2.8157175  24.7306709  77.3453522
   2.7164679  24.1785603  78.1209488   1.9369732  24.7742538  76.9683380
  56.9846001  27.6600876  60.1276474  56.2050171  27.5240917  59.5891418
  56.9115257  28.5651340  60.4306068  62.0004349  11.5948124  33.5154037
  61.5072479  12.1119490  32.8785591  61.8143463  12.0106878  34.3572159
  63.0978088  31.3052559  66.6829300  63.3432884  31.6236858  65.8142700
  63.3858376  30.3924809  66.6936493  12.5467587  24.5620880  85.7628555
  12.8852072  25.2083683  85.1431732  12.0468969  25.0767097  86.3965225
  11.6947708  21.7355633  81.8291092  12.4042006  22.3533878  82.0058441
  11.5222607  21.8305359  80.8923798  25.9327488  59.5134621  38.0870132
  25.8646145  59.9259949  37.2259636  25.1430645  59.7934189  38.5498886
  46.8184929  65.4311142  19.9751854  46.3003235  65.1276245  19.2297783
  46.1741142  65.5961685  20.6634884  61.9811287  65.9304810  82.9644012
  61.9620171  64.9852066  83.1138000  62.8984756  66.1239548  82.7713242
  41.0865974  52.2834206  35.3745575  41.7306595  51.7582359  35.8495369
  41.6031723  52.9658470  34.9459801  77.1077042  49.2540627   2.5096691
  76.4694748  49.2722855   1.7965330  76.5961838  49.4525146   3.2940133
  34.3472824  52.5715370  27.3311558  34.8003426  52.7887917  28.1458759
  33.4676247  52.3144760  27.6074791   2.4977164  69.3649673  15.8282261
   2.0239394  69.5609055  16.6365433   3.3241966  68.9816895  16.1219292
  55.9498100   2.0654240  19.9922504  56.5371780   1.4765072  19.5185337
  56.1893463   1.9536096  20.9122238  80.7668228  53.0449142  64.7520447
  80.2178421  52.2936325  64.9766006  81.2304306  53.2537117  65.5630341
  56.1188087   2.2580385  77.6452255  56.7149200   1.9225276  78.3147812
  56.0777893   1.5612700  76.9901962  61.2716560   9.5384693  69.2808151
  62.0396690   9.0826073  69.6251602  61.1221046   9.1413269  68.4228287
  47.2722588   6.0481234  10.9064426  46.4743843   5.5446348  10.7448072
  47.7708626   5.9745803  10.0926743  27.6653214   1.2688160  60.8498230
  27.9230862   2.0139613  61.3925438  26.8941040   1.5753291  60.3728485
  39.2191315  17.5822144   2.4968481  39.9270706  18.1154881   2.8583317
  39.4811707  16.6800518   2.6803377   6.6868482  48.4671707  40.1617470
   6.8543997  47.9926033  39.3475304   7.4119582  48.2209435  40.7360458
  64.1076202  44.7399750   6.6415987  63.6292343  43.9677887   6.3397651
  63.5597954  45.1045456   7.3367314  59.9522095  67.9897308  85.5785751
  60.5265617  68.7331924  85.3952332  59.9752693  67.8984528  86.5311356
  80.7846756  32.8431549  26.5680180  80.7581558  32.7783051  25.6133862
  79.9477844  33.2432175  26.8042412  47.5150490   8.1440144  34.4393311
  48.2120209   7.5123253  34.2620468  47.9682693   8.9826345  34.5261688
  70.7517090  45.6653557  28.2972755  71.3345184  45.3712959  27.5972061
  71.1426697  46.4823036  28.6070786  73.4729538  31.3383045  63.6201324
  74.3183441  30.8893852  63.6248093  73.6832123  32.2471771  63.8345451
  79.5057449  24.3444023  22.9164257  78.5705261  24.4263420  23.1031971
  79.5471344  23.7821712  22.1428528  36.7238617  64.2409668  51.7266045
  37.2434654  63.4720116  51.4922066  37.1241722  64.5634842  52.5340500
   9.1601677  55.2621689  83.9490128   8.8271017  55.1843643  84.8430176
   8.5140839  54.8035088  83.4119492  77.6945496  34.0942345  17.2868862
  77.7440109  34.7024307  18.0243683  77.9952927  34.6045570  16.5349846
   0.6639264  21.9801464  31.4055157   0.3217698  21.3830700  30.7401867
   1.3246289  21.4670677  31.8707638  67.8811874  52.3525887  34.6318512
  67.0899353  51.8348160  34.4832687  68.4842377  51.7492104  35.0660095
  57.4188805  51.4550819  27.2063274  57.0330544  51.5322723  28.0789146
  56.7612686  51.8288574  26.6197529  75.7535553  12.8644037   3.7321632
  75.3817444  12.1835976   3.1713698  75.3610687  13.6774559   3.4141514
  56.6027527  10.5645065   3.1033390  56.7232552  10.0120230   2.3310218
  55.7168961  10.9151983   3.0111003  39.0287933  19.5704975  11.8106804
  38.9914894  19.3351631  10.8836107  38.1262665  19.7947464  12.0373688
  79.7847977  40.8653717  59.9111481  80.2876816  40.0532455  59.8495483
  79.0657959  40.6571960  60.5077438  34.8256111   3.6598170  71.7704697
  34.3874168   3.5470986  70.9269562  34.9019470   2.7724588  72.1211853
  50.9298439  62.3009415  85.2831268  51.2278862  61.7402267  84.5668869
  50.5223465  63.0495872  84.8475723  58.1248360  70.7944946  26.9429379
  58.6184845  71.0984573  26.1812630  57.3085899  71.2936401  26.9141121
  50.2478905  15.5427332  25.3394051  50.4876442  16.3651123  25.7665405
  50.5969620  14.8628540  25.9157257  36.8276138  56.1706429  20.9776707
  37.5956955  56.6843719  21.2274036  36.3689690  56.0092812  21.8021927
  30.5089798  58.2348137  65.7827225  30.9379902  58.4807396  66.6022949
  30.4407539  59.0542984  65.2928009  43.2910957  61.5166359  13.3299999
  43.3594246  61.0812492  14.1797066  43.6756783  60.8958435  12.7111731
  43.7697639  58.7545128  84.2990341  43.0792198  58.9805603  83.6759109
  44.1761284  59.5923805  84.5205765  66.9123993  13.9077559  45.5483780
  67.2615738  13.4125862  44.8073540  66.9937439  14.8240595  45.2837982
   3.1159873  12.5801563  56.9992905   3.0904016  12.2869568  56.0884590
   2.2363646  12.4031258  57.3326912  37.5806961  58.8160553  25.1643887
  38.3913498  58.3303719  25.3166466  37.7437592  59.3079681  24.3596134
  80.0184402  52.2197723  34.0129623  79.9316254  51.4009781  34.5010910
  80.2644882  51.9467773  33.1291275  39.5842018  61.9196892  21.4819641
  39.5079575  62.4542351  20.6915951  40.4659729  61.5499802  21.4369297
  10.0143795   3.8158560  24.8604374  10.1448660   2.9454925  24.4840412
  10.6324139   4.3753352  24.3900661  75.2967911  65.3206558  47.3540611
  75.1987762  65.8619843  48.1373787  74.4039536  65.0561066  47.1324921
  20.4794922  16.6227322  64.3486633  20.2174988  17.5337601  64.2159271
  19.6693306  16.1730938  64.5888672  65.5115356  49.5375214  15.5770130
  65.9373779  49.4489479  16.4296818  65.6848984  50.4418373  15.3154964
  83.3736877  20.1330490  14.6678190  83.4116440  20.9014740  15.2373047
  82.9135056  19.4731007  15.1864071  30.4257145  49.9010582  29.0622005
  30.9137230  49.2226067  29.5288754  29.8364697  49.4171143  28.4835625
   1.1704628  59.3926392   8.3838291   1.1032040  60.1754456   7.8370914
   1.7569236  58.8117142   7.8992481  36.4030418  49.6737099  62.5415802
  36.7445107  49.5955124  63.4323769  36.7021828  50.5332336  62.2449951
  68.4337616  42.5246429  69.7141571  68.6310577  43.3716698  70.1139755
  67.5987625  42.2647629  70.1033478  56.9101639   5.8143334  13.4977608
  56.1606445   5.2969894  13.7923832  56.9238014   6.5712876  14.0834799
  71.3817825  32.7613411  83.5074539  71.7333450  32.8779106  84.3900909
  71.1225204  31.8405838  83.4725800   4.9770608  35.7310028  84.9105072
   4.9504700  34.9353256  84.3790741   4.8357120  35.4254036  85.8065338
  21.7763577  23.0504704  64.4387894  20.8273735  22.9828281  64.5440826
  22.1166935  23.0575905  65.3334198  42.3136787  53.7586899  70.8843231
  43.1112976  54.2670860  70.7374649  42.2657356  53.1662254  70.1340485
   6.9680142   0.4071139  27.5393200   7.7950563   0.4843521  27.0636444
   6.5505099   1.2620248  27.4342041   6.7075620   2.5310986  20.8450966
   7.0717359   1.6523453  20.9518757   7.4444470   3.1179903  21.0147762
  37.6396027   7.5774469  67.2895203  37.1294136   7.3251710  68.0591278
  37.5017967   6.8640194  66.6664124  86.3091507   1.4692116  33.8684235
  86.1965866   2.2053058  34.4698601  86.5866241   1.8723352  33.0457878
  83.1990204  16.8515205  48.0158882  84.0926666  16.8444176  48.3587799
  83.2055817  16.1978989  47.3166275  15.1964273  12.4603653   3.8889239
  15.3818827  13.3800001   3.6988952  14.7055397  12.1526194   3.1269834
   4.8470407  23.9713497  46.7688789   5.3102674  23.1528816  46.5906639
   5.5415344  24.6064835  46.9435692  76.0396805  60.1004028  18.4341183
  76.8660965  59.8963356  18.8718662  75.3652802  59.8165169  19.0512314
  25.2792244  61.1205597  22.3971958  24.9948330  61.5070114  21.5689392
  26.2154713  60.9609451  22.2780495  26.5596409  39.5959015  83.7336197
  26.5698776  39.0472069  82.9493637  25.7081566  39.4234810  84.1354675
  66.0330734  39.7633820  29.9227848  65.4041824  40.4839973  29.9607201
  65.8530731  39.2467995  30.7082634  48.9353867  47.6513977   6.9855537
  48.2441711  48.3063164   6.8879013  48.6438866  46.9137802   6.4496589
   2.1827068  66.3219910  11.3285828   3.1123035  66.4734573  11.4992905
   1.8330369  66.0126419  12.1642036  53.3327522   0.8075616  40.2827377
  53.0176582   1.2783316  39.5111656  54.2866936   0.8487266  40.2154198
  37.0311317  24.0998917  15.2331142  37.3909454  23.4664459  15.8540106
  36.3103485  23.6354179  14.8077106  17.9391136  46.4892082  49.3302689
  17.8747482  45.6770744  48.8277473  17.6154690  46.2583694  50.2010117
  37.9578857  69.2537537  17.0363731  38.3809929  68.4062729  16.8985710
  37.2463608  69.0693436  17.6495247  17.1002045  23.0650234   2.6540556
  16.4311237  23.0223980   1.9708680  17.9301949  23.0562916   2.1773238
  29.9347267  31.8650169   1.4735805  30.7186813  32.3542442   1.2239774
  29.2873020  32.5391617   1.6799845  16.4490452  56.7731819  72.1656342
  15.8692369  56.5217934  71.4467010  16.1914940  56.2043686  72.8911362
  77.2872543  50.8137703  25.8256073  77.0436935  49.9566994  26.1753750
  76.7716599  50.9005890  25.0238285   1.8614297  65.1336975  71.1984558
   1.0544233  65.1014786  71.7121964   1.9507748  66.0538330  70.9502640
  26.0897026  16.5724106  13.8966627  26.8771648  16.1273441  14.2097902
  26.2089710  17.4845943  14.1611023  39.8346405  51.0835571  45.4155464
  40.7873039  50.9948616  45.4437866  39.5406036  50.7840729  46.2758293
  78.9567719  57.8310776  37.9537048  78.8890991  57.5358353  37.0456924
  79.2700958  58.7332649  37.8894920  20.9560318  38.7058029  63.7315750
  20.6500530  37.8757057  64.0970230  21.5183983  38.4524460  62.9995995
  35.1672554  26.9709435  16.3167286  35.2212753  26.1248150  15.8724546
  36.0562401  27.1328316  16.6325359   0.0164694  67.0764084  52.6280403
  -0.2344165  66.5363464  53.3774567   0.9102980  66.8017502  52.4234276
  15.1664667   3.1226063  64.9455795  14.6001568   2.3582587  64.8392944
  14.5926275   3.7972171  65.3086777  86.1687546  36.9424934  67.5685349
  86.8774948  36.3020554  67.5072403  86.6058807  37.7620926  67.7996445
  75.4655838  14.9707174  27.3351021  74.8895950  14.2768173  27.0142059
  76.0933533  14.5191450  27.8992081  61.4178429   8.6295986  49.0616150
  62.0098381   9.2416515  49.4988365  61.2570152   9.0231962  48.2040329
  76.8691788  22.0432243  71.3518600  75.9278030  21.8888416  71.2729950
  77.2305603  21.7523670  70.5145798  41.9519310  11.0005751  18.5314007
  41.2237778  10.4477615  18.8149872  42.6013489  10.3852644  18.1909885
  25.7076626  48.3593140   4.8937211  25.7485332  47.4149590   5.0445709
  25.7187786  48.7426567   5.7707362  31.4845009  58.6623039  26.7587471
  31.6464748  57.9106064  26.1887054  31.2411366  59.3686447  26.1603432
  78.6971664  39.9617767  37.3801689  78.9942017  40.7388077  36.9066505
  77.8374786  39.7677422  37.0066452  21.8179455  66.3760529  53.0879288
  22.4614925  65.9150391  53.6260223  21.4159622  67.0079651  53.6840210
  86.1004105  42.8584290  29.1113586  86.6244431  43.6450768  29.2623863
  86.4505463  42.2153778  29.7279015  10.9136162  68.0520630  22.1824646
  10.9150038  67.1661377  22.5448971  10.5433178  67.9515152  21.3055382
  48.2373085  38.5238190  59.9870262  48.8996735  37.8352661  60.0453682
  47.4169121  38.0547028  59.8349915  55.3307610  26.2065811  34.4115334
  55.3885155  27.0414352  34.8761978  54.4781532  25.8512306  34.6625633
  58.2018471  11.1031752  26.7140388  58.4240189  10.8840923  25.8091221
  57.6708145  10.3660393  27.0154743  69.5951309  31.9472218  71.2127075
  69.3214493  32.8607101  71.1298065  70.5405426  31.9924469  71.3554611
  75.7851791   5.0035477  72.7414474  76.0388641   5.6794424  73.3699722
  76.5650330   4.4559755  72.6507721  41.2573814   2.9327917  79.4335709
  41.1375351   3.2550266  80.3268967  41.4009209   3.7221196  78.9114685
  73.5039291  13.7006187  21.7336864  73.3988037  12.7493858  21.7520142
  72.8615570  14.0247869  22.3649635   2.1177917  11.1172619  13.0097361
   1.8327465  10.4356298  13.6183062   3.0651290  11.1702814  13.1361179
  57.3378983  58.5666466  48.9354362  56.8300056  59.3731842  48.8472748
  57.2541809  58.3306656  49.8593063  75.6935883  62.3989944  33.3292084
  75.1177902  61.8557358  32.7911034  76.3547211  61.7915459  33.6610832
  76.8873901  62.3189621  26.0862522  77.4226532  62.3114738  25.2927361
  76.6842194  61.3974571  26.2468166   5.1015029  57.2500763  35.1332817
   5.1794896  58.1899796  34.9697914   5.6091123  56.8420219  34.4318161
  69.0552063  14.6400023  74.2076111  68.8520050  13.7151928  74.0673752
  68.2271118  15.0267172  74.4921112  25.7569523  49.5223999  49.7982140
  26.1502438  48.7088776  49.4824028  24.8217220  49.4206848  49.6214905
   7.0312977  58.2293091  56.7644539   6.7388844  57.9231606  57.6229401
   6.2960730  58.0429993  56.1805305  49.4925270  60.4407005  70.0058441
  48.5411377  60.4853668  69.9104996  49.7576675  61.3424034  70.1871338
  65.3940887  57.8099861  62.7970810  65.4315262  58.4070511  62.0498581
  64.9356232  58.3047256  63.4762497  29.0435181  10.9015493  87.6868591
  29.6237717  11.6207781  87.9363556  29.6250782  10.2488575  87.2969666
  59.3522873  66.5198517  33.3924141  59.5278740  67.4496918  33.2482376
  60.1775169  66.1694565  33.7277489  18.8224792  56.4956245  57.4463234
  18.7282791  56.5448990  56.4950485  19.5682545  57.0625725  57.6428490
  65.5439072  17.1759529  63.3530388  65.1258774  16.3317833  63.5229301
  65.7678299  17.5113602  64.2211380  30.9454460  17.0504093  81.8630600
  30.0759277  17.4505310  81.8545303  31.5430984  17.7720432  81.6673889
  79.6866913  70.9357452  74.7959366  80.1472397  70.1375580  74.5370636
  79.5528183  70.8399124  75.7388763  74.4884109  31.2759724  86.3653870
  75.2788696  31.7556877  86.6129379  74.5135803  31.2501831  85.4088669
  63.9997864  33.3249321  16.0909424  63.6952782  32.6615906  15.4716835
  64.0514069  32.8647766  16.9286900  23.0641518  52.8838043  32.8896751
  23.3025036  52.3752670  32.1145515  22.9758072  53.7814751  32.5693436
  68.7629700  31.0922260  21.0426502  69.6867523  31.2077827  21.2651253
  68.7743301  30.6175499  20.2115154  53.0459747  24.3195782  64.5437546
  53.0258141  23.4415512  64.9244003  52.3495560  24.3120060  63.8871117
  26.9299870  56.9118919  73.2596664  27.5212250  57.2666245  73.9236145
  26.0755405  56.8838654  73.6902084  55.8576241  66.3921051   9.7993469
  55.0259933  66.7850952  10.0642710  56.2269211  67.0133362   9.1717110
  28.8127747  31.9739113  23.7329922  29.6576576  31.7923183  24.1446056
  28.4729424  32.7322121  24.2080975  36.7916412  48.9372711  35.2047768
  36.5611763  48.0293236  35.4016228  36.7009811  49.3940887  36.0410347
  21.1687412   7.9475803   7.1879005  22.1045742   7.9242215   7.3876610
  20.7398968   7.8285599   8.0353432   5.4392962  47.7611160  43.2306747
   6.3027020  47.4615669  42.9460106   5.5072951  48.7158737  43.2376175
  62.3906746  69.9526367  31.8386860  63.2406769  69.7262802  32.2161674
  62.5734711  70.6980896  31.2667503  68.4257889  44.1199532  18.8833160
  67.8052368  43.5331573  18.4510956  67.9019470  44.8815575  19.1318684
   7.3191056  30.4517879  61.7069206   7.0770450  30.3073692  62.6216774
   6.7298894  31.1451893  61.4098511  40.6033173   2.4128201  85.6261749
  39.6476707   2.3956993  85.6779327  40.8932495   1.8990113  86.3799438
   1.9065737  46.5875435  55.4068642   1.2856566  46.0106583  55.8517227
   2.7383242  46.4357796  55.8556290  84.8152695  20.9530239  83.0429077
  84.1933517  21.6437874  82.8142242  85.0308685  20.5386486  82.2074203
  28.6499996  55.9618874  78.1558838  28.2570152  55.7128944  77.3193436
  27.9335384  56.3643761  78.6467133  81.0231628  13.0697813  19.2122040
  81.6868973  12.9774256  19.8956928  81.4267960  12.6872320  18.4331207
  71.3566132  52.4209824  87.0686722  70.8844986  52.2653427  87.8866653
  71.7227783  51.5673790  86.8373260  32.4316673  11.2506676   9.0966892
  32.4945946  11.9109163   8.4065123  32.5794029  11.7371359   9.9077101
  58.9708252  41.9328995  42.0965157  59.7929726  42.2917786  41.7625847
  58.2973137  42.5241203  41.7602463  71.8677597   7.6572032  29.3703289
  71.8610001   7.5998592  28.4148731  72.4556656   8.3877869  29.5622711
  40.0118637  16.4560318  81.3855667  39.3351669  16.0763912  80.8250427
  40.7836304  16.5156307  80.8224869  54.4439659  28.8606510  78.3111343
  54.0306625  27.9983463  78.2682419  54.1109695  29.2458057  79.1216965
  81.8762589   6.4844685  27.6696873  82.4987335   5.7588439  27.6225281
  82.4166946   7.2696915  27.5825920  44.7754822  45.4936943  88.7661057
  44.9167709  44.9927292  87.9627991  44.9731178  46.3979874  88.5223160
  86.1149826  25.9390564   3.4721489  85.6225052  25.6977367   2.6876357
  86.9413986  26.2880383   3.1382525  29.8924599  54.1071434  33.0907936
  29.1891384  54.6803055  32.7857399  29.9727764  53.4419022  32.4072495
  69.2945938  39.1251869  55.9964714  69.7658691  39.3011093  56.8108292
  68.6024323  38.5135765  56.2476311  85.2347794  63.2208328  33.4668159
  85.3531952  63.2283897  32.5169983  84.9408112  62.3315926  33.6644630
  79.6345444  25.5878334  69.1803131  79.2767487  25.4258995  70.0532379
  79.6761780  26.5416603  69.1116867  44.9626274  44.2178879  17.9082928
  44.9345207  44.2436752  16.9518528  44.0648270  44.4092369  18.1795368
  42.9221420  56.4375877  56.8039894  43.1854630  55.8687057  56.0806198
  43.3977966  57.2541962  56.6518631  60.4859085   1.6195155  81.7653427
  60.1508179   1.3728268  82.6273727  61.4334526   1.5027493  81.8343048
  82.7998123  71.4295807  56.4950447  82.4316177  71.9523468  57.2073479
  83.0628281  70.6088333  56.9114952  74.9346924  40.9407578  85.0677795
  75.4743576  40.1576920  84.9591675  75.0181274  41.4064522  84.2356720
  67.0401611  57.9877357  43.9496269  66.7148285  58.8236847  44.2836685
  67.6912384  58.2300110  43.2911148  43.8591003  69.6259460  74.0525055
  43.7306442  70.0396957  74.9060516  43.7083244  68.6943817  74.2127838
  34.2457924   4.1323109  75.9694138  34.9121933   4.8094797  75.8528519
  34.5674591   3.3893135  75.4588089  65.3058090  48.7617912  43.2570152
  65.2123260  48.0156250  42.6647911  64.5706100  49.3345108  43.0385971
  19.5389977  24.0309372  14.4053946  19.1312523  24.6895828  14.9676771
  18.9446678  23.2816162  14.4444132  57.9073944  59.0288391  80.1764450
  57.9882431  59.9628754  79.9833832  56.9637794  58.8738251  80.2188187
  11.9944210  52.2092590  16.4873886  11.4699078  52.7824059  15.9282618
  11.5350475  51.3697205  16.4677677  67.4534378  62.7491646   8.6538458
  68.0022354  62.3514442   7.9779282  67.9161911  62.5722427   9.4728622
  61.2957039  56.6559410  71.7359390  60.5031166  57.1921234  71.7592468
  61.0331573  55.8603897  71.2729111  70.0910797  48.1437912  49.1032066
  70.9159546  48.1320839  49.5886612  69.6387100  47.3470726  49.3803864
  85.7911606  56.8641891  65.5058441  86.0043259  56.3734627  64.7121277
  84.8450394  56.7588387  65.6057281   2.9272158  55.6834984  74.0212784
   2.2589266  55.7470093  74.7036209   3.5603139  56.3667336  74.2417526
  79.4812851  40.8102150  19.8647289  80.0749969  40.2487564  19.3662262
  78.7389679  40.9546089  19.2779121   5.8163161   2.1387625  42.3614502
   6.4817924   1.4940997  42.1210670   5.2537365   2.2014682  41.5895653
  14.7011909  56.4270554  39.5117912  15.4929218  55.9783173  39.2150993
  13.9859686  55.8434639  39.2585945   5.3570352   1.1078849  24.8748455
   5.2220483   0.1626118  24.8079929   5.4022684   1.2774106  25.8158264
  63.5651016  25.1120300  81.5420990  63.3461571  24.8743134  82.4430923
  63.8261566  24.2867966  81.1333618  61.8201714   5.1125102  22.2179260
  61.7272911   4.8379474  21.3056660  61.9934807   6.0525999  22.1686535
  58.1562920  68.7522049  60.4779968  58.2262802  69.6105042  60.8959198
  58.6262360  68.8500137  59.6498528  61.8990364  20.2127895   1.4138803
  61.2767639  20.8808823   1.1263752  61.6232452  19.4170094   0.9590143
  72.6823196   0.6717540   4.5214477  72.9073944   1.1904793   3.7491150
  73.4694595   0.1581638   4.7027340  48.6117630  38.5558281  17.6835957
  48.4778442  38.2396393  16.7901077  48.3729858  39.4820900  17.6481895
  58.2098198  35.4320984   9.0260000  57.3492165  35.8224144   8.8735170
  58.1953354  34.6168900   8.5245466  35.1847496  49.0304871  46.9700661
  35.4934349  49.7538986  47.5156174  35.1966629  49.3803406  46.0791740
  22.3082390  52.3035736  72.1472092  21.6219540  52.9311943  72.3737869
  23.0059681  52.8380852  71.7681274  29.6417942  49.5356750  61.0093269
  29.3246193  50.3118477  60.5476036  30.3784657  49.2273941  60.4815865
  45.9721909  16.5045300  65.8040924  45.3032265  15.8974590  65.4875870
  45.4888420  17.1387367  66.3336105  81.1866150   3.4210119   3.3038225
  80.7225037   2.6430705   2.9945681  82.0848923   3.3025320   2.9951167
   6.1320515  23.8625603  55.5042877   5.3514471  23.9634132  56.0490074
   5.8788290  24.2218933  54.6540031  66.5840225  13.6234989   0.5367228
  67.3254776  13.2881012   0.0327618  66.0462189  12.8517637   0.7140031
  14.9459448  46.2474823   1.4964148  14.6873455  45.8486023   0.6655996
  14.6069899  47.1413841   1.4486970  48.8090591  45.1658745  88.0108414
  48.0646744  45.3721733  87.4455414  49.5615921  45.5592003  87.5690079
  30.7806549  22.7530994   5.9633107  30.6021442  22.8042717   5.0242968
  29.9282990  22.5724506   6.3596530  46.7086868  36.2773323  20.8869076
  46.7466888  36.4988823  21.8173389  47.4026566  36.8016930  20.4873028
  79.2254181   7.0188060  37.1623077  78.6303329   7.7419357  36.9643631
  79.2831116   6.5252900  36.3441734  26.7477455   2.4916592  40.7443619
  27.6551819   2.6818998  40.9822655  26.2309856   2.8473849  41.4673080
  48.7989502  14.4636040  71.6219101  49.4411087  15.1215954  71.3556213
  48.3624802  14.8486757  72.3818130  23.3351326  14.5711803  13.0345697
  23.3279190  15.1443529  13.8011551  24.2313576  14.6260605  12.7029037
  51.7030067  39.5538063  61.3382492  52.5465050  39.5936432  60.8875275
  51.3023453  38.7427368  61.0254059  39.6850739  22.0310497  87.8620529
  40.1981163  22.7982941  87.6083679  39.3834610  22.2272072  88.7490616
  16.8299236  40.1863251  74.4629669  16.3209915  39.3826714  74.5695419
  17.6590385  39.8961182  74.0827332  39.1319122  41.2076988   5.5675669
  38.9621429  40.3899765   6.0352612  39.9615021  41.5216255   5.9273810
  29.2470837  38.5116158  10.0244570  30.1398907  38.8339920   9.9011574
  29.3518276  37.7007599  10.5222282   7.2712049  47.3727074  28.8806458
   8.2025614  47.3169670  28.6668701   6.8251376  47.0790977  28.0862598
  86.5606461  12.2549715  13.9560051  87.4294205  11.9178619  13.7373238
  85.9542465  11.6397314  13.5437098  55.5901833   2.3244998  60.8295784
  55.9239693   1.6245543  60.2684250  54.8543053   2.6929953  60.3407784
  58.6060753  30.8188324  15.3380966  58.0425644  31.3935337  14.8200169
  58.6056061  29.9891434  14.8607645  63.3695335  17.1983261  79.6864624
  63.5320549  18.1007118  79.4116516  62.9747276  16.7820358  78.9202576
  29.4517746  44.7677193   1.6805542  28.8284245  45.1340370   1.0532767
  28.9671803  44.7292328   2.5051260  58.0926094  18.4419079  39.8889465
  58.8329086  18.6642609  39.3243713  57.7196083  19.2872734  40.1388626
  51.9162827  20.7849903  10.9935541  52.2223167  21.3864136  11.6724253
  50.9640236  20.7789211  11.0905027  26.6984959  53.2397461  54.9616661
  26.5086937  54.1709023  55.0763550  26.4245510  52.8362503  55.7853050
  22.0403767  52.1465302   6.5828953  21.6844444  52.8865585   7.0747313
  21.3353462  51.4991074   6.5806727  75.9483948  51.6192894  46.7655334
  75.0374908  51.8660545  46.6055374  75.9129181  50.6815109  46.9540672
  70.2912674  19.6294556  29.4108829  71.0871201  19.9526749  28.9885254
  69.6076965  19.7396297  28.7499561  42.9828262  54.6354904  63.7778053
  42.4489746  54.0819664  64.3477554  42.3472176  55.1410294  63.2711830
   5.1758041  14.9167480  75.3524017   5.0564899  15.6528978  75.9524689
   5.9739184  14.4856062  75.6579514  60.1883316   2.5966284  22.2630291
  59.4580917   3.2153916  22.2523499  60.9675674   3.1470778  22.3406658
  66.0045319   5.7468376  45.8569069  66.9583130   5.8067207  45.9112167
  65.6960068   6.6231108  46.0875397  55.2328224  52.6569862  51.5564423
  55.2331886  51.9437904  50.9180222  54.4939575  52.4620399  52.1329041
  33.6324196  68.4923553  63.9189262  33.3077354  67.6226883  64.1523514
  32.8558617  68.9658051  63.6205368  14.1431007  40.2512169  15.7105122
  15.0770092  40.3730507  15.5396223  13.7711191  40.0251198  14.8580208
  55.5517616  45.1778908  76.7305527  55.0383263  45.2486649  75.9258118
  55.3320541  45.9674644  77.2250519  19.2041626  57.0797539  72.6718063
  18.3082390  56.8822670  72.3987656  19.4860687  57.7782936  72.0812149
  20.6633644  34.6133881  86.1948624  19.9051495  35.0247231  85.7799530
  20.6064301  34.8773689  87.1131744  23.3736610   4.2149315  74.3871002
  23.3112240   4.9398994  73.7652054  24.3101540   4.0238180  74.4389343
  30.4943027  41.2141609  46.7846680  30.6610947  41.1544952  47.7253342
  29.9862156  42.0188675  46.6820793  76.3557587  33.7209587  87.3236313
  77.0927429  33.1848793  87.0308685  76.5263977  33.8758354  88.2526779
  53.8221283   2.5777509  43.2750931  54.5954475   2.4078031  42.7371979
  53.2968063   3.1851258  42.7541656  85.2348633  27.3618393  83.1704941
  85.8906097  26.6646309  83.1820374  84.5642776  27.0701885  83.7881317
  58.8569794  39.9575729  55.2729721  58.8411598  39.1704178  55.8173676
  57.9763641  40.3235588  55.3554420  50.4859848  10.5885658   5.8484087
  50.6448517  11.5180330   5.6838346  50.5824623  10.4931908   6.7959461
  47.7170830  52.6477814  67.9939880  48.4573936  53.0849457  68.4147720
  48.1128311  51.9325218  67.4959793   6.3028150  45.5120354  73.6426239
   6.5943131  46.4213409  73.5761490   6.5273852  45.2532539  74.5363922
  20.1611099  63.0951729   8.7182741  19.3014164  63.4188728   8.4492474
  20.2008438  62.2039986   8.3711987  72.5357285  38.5549202  74.7599640
  71.8509064  37.8872681  74.7985535  72.4987335  38.9856110  75.6139984
  27.3659096  41.8415680  13.6172361  27.0190792  40.9828568  13.3752565
  27.8780231  42.1160622  12.8565617  76.3528442  63.1904106  18.5252857
  75.7226105  63.0886269  17.8120728  76.6349182  62.2977562  18.7248669
  74.5328751   4.6512113  69.0162735  74.3569946   3.9919133  69.6875610
  75.2308426   4.2702217  68.4834290  13.5771446   1.0587409  64.2393875
  14.0660677   0.7881426  63.4622345  12.6715651   1.1338258  63.9385223
  61.1321487  39.5122375  80.0617065  60.3579025  39.0141296  79.7996597
  61.1898499  40.2203026  79.4201889  25.6811466  48.8262863  57.5565033
  25.3336048  48.0476189  57.1216202  25.5576420  48.6544762  58.4900208
   4.3211808  15.0793066  60.6580811   5.0385146  15.4370375  61.1812363
   3.8158011  15.8461885  60.3884239   2.1386359   8.9713182   3.7522194
   2.3093970   9.8558168   4.0758481   1.5237056   8.5994787   4.3845391
  65.0905304   3.2460287   0.0634329  64.5283813   3.9009004  -0.3505257
  65.2748337   3.6032765   0.9321319  72.2529373  53.9426422  29.6077824
  71.3306656  53.8194618  29.3831158  72.6584854  54.2476768  28.7961731
  24.9332027  60.4827652  68.7432404  25.8317318  60.1672401  68.8397980
  24.4111385  59.8871613  69.2807693  36.1263657  30.9834538  14.5443439
  36.6161346  31.1479950  13.7385616  36.5340080  30.2016640  14.9169922
  65.7213287   7.6799750  87.0052414  66.1789703   7.7831430  86.1708832
  64.9553070   7.1463380  86.7938766  65.4388733  38.2967300  78.1958313
  64.8121033  39.0201607  78.1893692  65.0452881  37.6439896  78.7748337
  30.5056896  46.1494370  41.1683655  30.8592663  46.8686371  40.6449394
  30.5996151  46.4438286  42.0743141   8.3653584   7.7715945  84.6794052
   7.7903066   7.4641981  85.3801575   7.7862706   8.2521486  84.0878296
   5.6574469  62.1882477  17.0070724   6.5581250  62.4375153  17.2141399
   5.1418743  62.9713783  17.1997414  16.0930882  69.8171768   8.7579031
  16.4544353  69.2688065   9.4542904  16.7664337  70.4790344   8.6004725
   2.9333246  48.3618507   2.2931898   3.4780164  48.6420097   3.0287535
   3.3978295  47.6109695   1.9235315  29.6581993  47.7354622  51.8589401
  29.0749111  48.4615479  51.6380119  30.4494076  48.1572762  52.1940422
  21.0300236  45.6016121  75.8284378  20.7605610  44.8431778  76.3465118
  20.6070137  45.4741440  74.9792938  76.1599426  70.2371750  37.1863632
  75.9930191  69.4943237  36.6062431  77.0780106  70.1415710  37.4398270
  20.1252956   0.1532282  41.7362022  19.6189060  -0.0327385  40.9454956
  20.6924000   0.8843279  41.4910126  65.1330338  19.4009323  61.5519409
  65.5112610  18.6823006  62.0586395  65.3538818  19.1956367  60.6434708
  42.4244270  42.7118416  64.5139008  43.1113243  42.4657097  63.8943634
  42.4909096  42.0637245  65.2151489  78.6232910  28.6726189  60.7905121
  78.7685776  27.7270241  60.7593307  77.6709366  28.7688160  60.7882156
  18.8787422  64.5917053  74.0918808  19.7858524  64.8950424  74.0548782
  18.3560104  65.3841705  73.9694672  53.6854935  33.0748482  19.2356167
  53.0139771  32.8237534  19.8698444  54.4309807  32.5102844  19.4399395
  10.3159399  68.5567093  77.2978897   9.4238138  68.7048569  77.6115723
  10.2771940  68.7563095  76.3625336   7.8735147  35.6592636  28.5808640
   7.9789410  35.2939720  27.7024117   8.7508469  35.9546547  28.8243046
  19.5025253  68.8365631  82.3369980  19.9466476  69.4118347  82.9599380
  19.3988018  69.3707962  81.5495605  80.8068542  16.2187824  16.4844151
  80.3038101  15.9903421  15.7027550  81.1862183  17.0743294  16.2835350
  70.3382492  33.5436707  80.8034210  70.3990402  32.9459419  81.5485764
  71.2478333  33.7399178  80.5789642  51.4506149  67.5205612  74.4812469
  52.2540474  68.0189590  74.6307068  51.4654846  67.3170471  73.5460510
  69.1265488  61.9659576  44.5730743  69.3051682  62.8093491  44.1571198
  69.3271179  62.1079063  45.4981956  68.8264084  20.2939301  32.1229095
  69.4221954  19.9455223  32.7861481  69.3256912  20.2530327  31.3072605
  54.1862373  69.2643127  76.3178482  53.6190834  68.6797562  76.8207016
  54.9589653  68.7356110  76.1188583  74.3765640  27.4562893  52.9482460
  74.1603470  27.6950779  53.8496132  74.2487335  26.5082684  52.9143829
   7.5342560  15.0994167  18.7382679   7.7588987  16.0242290  18.6358509
   7.0439711  15.0615568  19.5594978  47.5936966  31.6182976  42.6258469
  47.6284332  30.7364922  42.2551155  46.7442474  31.6601639  43.0650711
   3.8528566   2.7069769  78.4474487   3.2781205   3.1353879  77.8131180
   4.2052069   1.9504467  77.9786835  58.1582794  64.1612244  51.6763000
  57.5900192  63.4050980  51.8232307  59.0286713  63.8611946  51.9382668
  50.8270607  48.5558395  13.2401171  51.1624908  48.3041382  14.1005611
  50.8428154  47.7457047  12.7305460  17.0815868  52.5536804  38.2241364
  17.9620895  52.1808624  38.1799164  17.0213032  53.1177025  37.4531136
  13.5170155  50.5271149  48.1223946  14.0082121  49.7057877  48.1418152
  12.6463566  50.2782173  47.8121796  12.6510248  11.7277946  62.9146347
  12.4968147  12.6645546  63.0368347  12.1360664  11.4992304  62.1408081
  48.4538040  45.4732132  77.3416977  47.9985504  45.9995384  76.6844635
  48.9456482  46.1101952  77.8599396  12.7137508  68.0643005  83.0531006
  12.5793142  68.9732513  82.7848434  13.0032330  67.6197510  82.2563477
  40.8247795   8.3428926  69.6644287  41.6166000   8.6126375  70.1297150
  40.2170258   8.0828648  70.3567123  54.1118011  31.3483467  23.4954128
  53.8396072  31.0371399  24.3587170  53.6091309  32.1517677  23.3609829
  55.5631523  27.0184097  38.8965683  54.9601517  26.2817020  38.7971420
  56.2535934  26.8510532  38.2550735  23.8473110  68.7987671  60.3290405
  23.4551144  69.0492325  59.4925690  24.7550068  68.5846863  60.1134262
  71.6089706  34.4397316  26.7335339  72.1157455  34.8034821  26.0075169
  70.7476425  34.8495140  26.6533985  54.5439949  57.0412025  22.8415508
  55.4474945  56.8507996  23.0938759  54.5721169  57.1144867  21.8875732
   7.0821133   2.5040936  67.4455185   7.2046418   2.7597682  68.3597717
   6.9010053   1.5648792  67.4816818  62.8036308  31.7535744  80.2744904
  61.9199448  31.7875156  79.9081802  62.7122116  32.1183968  81.1547012
  54.8305206  58.6043816  14.7967710  55.6892357  58.7123375  14.3878908
  54.9931946  58.7284012  15.7318583  85.3226013  10.2842798  77.0813141
  84.8277817  11.0666580  77.3247757  84.9412231   9.5849009  77.6120300
  61.8946609  62.6551819  42.2838326  62.2649841  62.1544685  43.0107269
  62.6144943  63.2104111  41.9841728  41.4780312   5.0284066  77.6795578
  42.3304100   4.7559829  77.3397598  41.3992386   5.9465199  77.4205399
  53.3491554  19.7130241  29.7904949  53.4595718  18.8765106  29.3385162
  54.2418213  20.0057545  29.9740276  32.2330360   0.2562665  13.1281319
  32.8607941   0.9758422  13.1942062  31.8742580   0.3318495  12.2439394
   7.6184478  25.7246819  33.7472420   8.1933718  26.0380974  33.0490570
   7.8963532  24.8213634  33.8989487  61.0799942  17.0620232  58.0627441
  60.5818825  17.8770199  58.0003166  61.0485001  16.6938362  57.1797485
   7.6061945  14.1865969   7.6312304   6.7056284  14.2313833   7.3099718
   7.7139111  13.2792387   7.9164147  27.4221172  33.8196640  82.7108612
  27.4933758  33.0849838  83.3202820  26.9159355  34.4777641  83.1872177
  59.6883202  68.0753632  22.5997257  58.7616501  68.2383881  22.7756157
  59.6883621  67.3876038  21.9339771  24.2231712  48.4475403   2.0155683
  24.3792953  49.1113815   1.3438773  23.7390175  48.9089394   2.7003596
  65.1490860   2.7350528  82.9741058  66.0850525   2.9239297  82.9068222
  64.8872604   2.5014718  82.0835266   1.5791861  12.0184460  24.2228203
   2.1219165  12.6152592  24.7380772   1.4429563  12.4749594  23.3925972
  42.3913193  56.7527542  73.9660721  42.8274384  57.3186188  73.3290176
  41.6514359  56.3789864  73.4874268  37.9980469  45.8582458  34.4122696
  37.2005157  45.8953056  34.9402885  37.7863350  45.2540092  33.7007141
  49.0319290   4.0705791  83.2993393  48.8941803   3.4228356  82.6081924
  48.8695717   3.5917871  84.1121368  49.4314041  64.5625305  57.6913986
  50.3415909  64.4894714  57.4042549  48.9177818  64.4390259  56.8931694
  69.2411423  35.8962517  25.7275887  68.6868591  36.4185753  25.1477833
  68.7516174  35.8494453  26.5488110  54.8010750   8.0639191  70.1267548
  53.8579865   8.0179977  69.9695663  54.9590111   7.4271159  70.8237305
   4.8266139  11.1096230  13.6502209   5.1335011  11.7808762  13.0407372
   5.1922746  11.3688478  14.4959908  13.0056810  69.5050659  51.0066147
  13.8388643  69.8151703  51.3613968  12.3763466  70.1865616  51.2426758
  84.3258133  45.9550934  21.5730152  85.2644196  46.1355171  21.5211697
  84.0968246  45.6258965  20.7038612  36.3873558   2.4264362  83.0061951
  36.2934189   2.8871758  83.8399353  35.5852661   2.6333191  82.5265198
  60.1033783  10.6525040  87.6097031  60.3913727  10.1145000  88.3471603
  60.5835571  11.4743471  87.7108688   8.1258459  12.4819145  33.2695007
   7.2671180  12.2545938  32.9129295   8.2221851  11.9201994  34.0385437
   2.3100085  21.2479477  61.5412140   1.5366820  21.0933552  62.0837097
   2.0071189  21.8447990  60.8569221  22.5362320  48.0974960  41.1749763
  22.2599449  48.1879997  40.2629967  21.8568249  48.5477562  41.6768761
  70.7786255  28.5158024   9.9875145  71.7045059  28.6324615  10.2005415
  70.3676834  28.2888241  10.8216839  85.0005798  26.6062222  32.1568909
  84.5076599  25.8025913  32.3225517  85.6484604  26.6392059  32.8607292
  11.4606724   6.3374953   9.2140141  11.7960234   5.4618559   9.0215883
  11.0004148   6.5983486   8.4162989   0.2615580  43.7450104  49.1896935
  -0.2320797  43.8812637  49.9983864   0.0464738  44.5036583  48.6470833
  56.3588905  26.1118584  25.2958488  56.3133659  25.3298435  25.8459473
  55.9095688  25.8630047  24.4881287  80.3312149  17.4603004  74.1044083
  80.0215988  16.6399021  74.4882278  79.6062241  17.7556782  73.5536194
   5.5403023   4.8925905  38.1512527   5.7029448   5.7577953  37.7754860
   4.9563069   4.4652715  37.5246887  70.3796005  26.9438438   3.4738631
  70.8390121  26.1146812   3.6067731  69.8685532  26.8092556   2.6757765
  66.5280304  17.9036522  71.8456650  67.2201614  18.3913364  72.2921524
  65.7161026  18.3165264  72.1398392  55.2636719  13.4677486  84.9683762
  54.4384613  13.8600826  84.6831818  55.0223312  12.9173326  85.7133789
   1.3849673  67.8700027  70.8828278   1.8184816  68.3228836  70.1595001
   1.7145201  68.3046188  71.6694183  39.9747314  52.2265968  16.3415985
  40.1749039  51.3292046  16.6077728  40.6795464  52.4601097  15.7374992
  35.9435730  64.0279770   0.8820559  35.3596268  63.9053726   0.1335873
  36.6602173  63.4118729   0.7301662  11.7095823  43.2582664   6.8107376
  11.4239063  42.7395897   7.5627971  10.9585934  43.8147583   6.6044216
  66.9826431  56.6687431  16.5889244  66.5592270  56.1387520  17.2642441
  67.4901199  56.0407639  16.0747814  63.1102982  15.4881277  11.3410740
  63.7794609  16.1416531  11.5444326  62.3671150  15.9984093  11.0193195
  73.3771057  32.6919861  24.4561329  72.5517426  32.2895241  24.1858997
  73.6033859  32.2486115  25.2737179  71.1371841  27.0536289  83.0726852
  70.2250595  26.8266068  83.2535858  71.6293182  26.2632751  83.2948914
  38.5511322  62.2136917  52.6877136  39.2915878  61.8714218  53.1885185
  38.5622597  61.7135429  51.8716507  85.5708542  56.6476669  58.7716942
  86.2414627  56.0659523  58.4137611  85.4963837  57.3520737  58.1278801
  69.0265045  62.7697105  41.3303528  69.8958664  62.3722572  41.3800468
  68.4213257  62.0310020  41.3958893  60.7288704  57.3367119  61.9155617
  60.1436653  58.0842056  62.0381317  61.2353363  57.5548058  61.1331558
  69.1503983  70.7168045  10.7782974  69.8471298  71.2531891  10.4000216
  69.4216003  70.5769501  11.6855593  62.6746750   2.7842584  52.9376068
  62.9902649   3.4336865  52.3092155  63.0829620   3.0347245  53.7663422
  69.1880493  41.7358894  31.0327549  68.8799133  41.0993767  30.3876705
  68.4018784  41.9833145  31.5195332  51.0448074   3.9842172  67.8118362
  51.2450027   3.1844273  67.3255310  51.8207703   4.5333276  67.6996231
  50.4479675  17.2730980  21.5281925  50.6326981  17.9920883  22.1324768
  49.5825996  16.9576359  21.7886868  47.5680885  59.6780472  36.0474243
  48.2205582  59.2139664  35.5228806  48.0211105  59.8850784  36.8648224
  79.8027649  69.7701340  15.6066618  80.7074280  69.4913177  15.7483330
  79.7720795  70.0241699  14.6842966  62.0427551  66.2215347  49.8840942
  62.8859177  66.6650238  49.7912521  62.0822716  65.4984131  49.2581749
  71.0178146  14.7617998  61.6288490  70.9201736  13.8198833  61.4892349
  71.7471237  14.8384104  62.2440414  70.5057144  59.1971703  14.7596779
  69.8981705  59.8378296  15.1293745  69.9424667  58.5051613  14.4131174
  72.3070602  66.1495590  75.5359955  71.9795837  65.2630539  75.6880035
  73.0561295  66.0313187  74.9519272   7.5421505  63.9151688  75.1650085
   6.7440333  64.0612030  74.6571579   7.7917719  64.7858658  75.4745255
  41.9642181  11.6198454  69.0074234  42.1057625  12.2324162  69.7291946
  41.2203903  11.0867624  69.2880859  83.7337875  42.6436234  54.4215240
  84.6801071  42.5338631  54.5145683  83.6278152  43.1213036  53.5988350
  56.1223030  69.6342773   1.9393781  55.3041077  70.0507355   2.2102127
  56.0776672  68.7537308   2.3120420  63.4363060  37.2431564  63.8051910
  62.5475121  36.9546204  64.0126038  63.3561516  38.1873436  63.6698494
  31.1332798  27.6229134   4.1215172  31.3734455  28.1663780   4.8719826
  31.3275642  28.1680489   3.3590791  72.6295853  24.1466637  19.2615509
  73.4681702  24.2357826  18.8087139  72.0772247  24.8284931  18.8791313
  60.2522392  20.6268730  46.9981804  60.8125420  20.3293076  46.2814217
  59.3610916  20.4642220  46.6889343  53.1564674  67.6331100  78.6706467
  52.5349579  66.9052887  78.6859436  52.6385040  68.3958206  78.9279861
  75.0052872  51.4047775  81.4596481  75.3984451  51.4489937  82.3312531
  74.5497971  50.5630264  81.4447784  73.9865189  30.1905861  17.8113880
  73.3091278  30.8616238  17.7272320  74.7852173  30.6799183  18.0085106
  53.7218323  39.7195015  34.5317955  54.0763550  39.3642006  33.7167435
  54.4730453  40.1283913  34.9615860  55.1990814  25.3287106  23.1347275
  55.2168884  26.0880375  22.5522003  54.5473709  24.7446136  22.7469959
  20.2013836   7.8870749   9.8070240  20.7952633   8.4775276  10.2706013
  19.4253845   7.8408098  10.3655195  47.2860146   1.3419294  71.8320923
  47.2623405   0.5837244  71.2483139  47.3972740   2.0912976  71.2470245
  31.5995922  60.6586838  30.4572601  31.9918594  61.0452728  29.6743755
  30.7626629  60.3050041  30.1561069   5.4692335  19.1769333  42.9030266
   6.0029235  19.9331112  43.1471634   4.5995555  19.3754864  43.2501106
   9.7233000  43.9048538  20.2085533  10.4236765  43.6997871  20.8279495
   9.6822309  44.8611450  20.2014618  84.6986542  20.9844818  27.1273136
  84.7869492  21.8889961  26.8268299  83.7616653  20.8004150  27.0608749
   4.0697970  49.9980965  66.7793655   4.8822522  49.5289688  66.9692764
   4.0995002  50.7681007  67.3472137  24.8957157  67.3986588  35.4358406
  25.0821533  66.7428513  34.7639885  25.6781883  67.9496078  35.4564171
  59.9162331   1.7253059  10.0735016  60.4097061   0.9082457  10.1451321
  60.0639153   2.1683424  10.9090500  62.6919060  39.5454445  55.7089691
  62.6348457  39.5775414  54.7540092  62.1339264  40.2640152  56.0065346
  78.3473434  49.4362526  38.2138634  77.4562302  49.1681328  38.4380531
  78.5371475  48.9766273  37.3959694   9.8841286  32.0440331  57.8744965
  10.0949507  32.1273232  56.9445229   9.7524452  31.1052513  58.0070877
  10.4516230  54.1590118  38.5075302  10.8750992  54.2768745  39.3578262
   9.9059124  53.3803520  38.6176224  16.1401024  21.6776390  26.3689651
  15.6407175  21.2210369  25.6919422  16.9161797  21.1334095  26.5021896
  58.8718643  47.7495956  73.8813400  59.1044464  47.4547653  74.7618027
  58.9666061  48.7015114  73.9146805  12.6266479  34.6324768   6.3065405
  12.4521885  34.3935585   5.3962040  11.7732706  34.5768585   6.7365232
  50.3867378  27.9077969  74.6879654  50.1142044  27.1008911  74.2510910
  50.7122383  28.4648247  73.9808578  63.5942688  29.0952492  47.3903770
  62.8468971  29.2781429  47.9597816  63.9729576  29.9553394  47.2085304
  70.9877625  19.6382523  59.2249603  70.1231918  19.4705200  59.5999413
  70.9713898  19.1941547  58.3771744   6.0713253  59.6738739   6.9580588
   6.9680109  59.6398888   6.6248441   5.5554419  60.0070953   6.2238522
  65.2160568  20.0448360  16.1191807  65.7191391  19.6643257  16.8391495
  65.7479248  19.8781319  15.3410034  52.1703606  20.0893288  35.7840042
  51.7634087  19.2994499  35.4280357  52.1141472  20.7286015  35.0737877
  61.3843193  57.4920769  86.9216156  60.6560822  57.4534912  86.3016052
  61.1139221  58.1438026  87.5684280  26.7111111  69.1090775  67.5459824
  27.2441730  68.6368408  66.9063950  27.2531738  69.8537979  67.8063507
   8.1709061  70.3596802  71.7755737   7.2571893  70.6421967  71.7363739
   8.2419300  69.8934631  72.6085434  54.6478424  22.0417824  74.9350357
  53.7694893  21.8191509  75.2435150  54.6049576  22.9792023  74.7462692
  56.3166275  25.4906273  20.0400829  55.8378639  24.9567432  19.4060612
  56.6424789  24.8624249  20.6846085   2.4895220  41.7966957  77.7719498
   1.8391819  42.4861908  77.9056854   2.1040857  41.0214539  78.1801987
  46.3787575  57.4492035  82.3562088  46.1915817  57.4042397  83.2938461
  45.5212593  57.5613251  81.9459000  49.2185478  30.6474228  31.8549519
  49.0833359  31.5949764  31.8646183  49.9293556  30.5132961  31.2280579
  16.7625790  43.6834259  54.7776070  16.3652153  43.1358223  55.4547081
  17.3488026  43.0924187  54.3050728   1.3618357  16.7211571   9.4046717
   1.8686818  16.4615440  10.1740484   1.7157471  17.5768585   9.1622829
  46.9451141   8.2787247  76.4704742  46.5596848   8.8008451  77.1740799
  46.2670593   8.2486696  75.7955093  76.1887131  11.6284428  61.4770393
  77.0357971  11.6505270  61.9222298  76.4080276  11.5487309  60.5487213
  33.5208282   9.3080750  37.6316490  32.9420013   9.3927870  36.8740120
  34.3950806   9.2075243  37.2550812  85.4634476  69.4795303  25.9235802
  85.8740311  68.6829834  25.5871792  84.5249634  69.2923050  25.9029617
  83.8182297  14.4208412  69.5745087  83.7784195  13.6834621  68.9654770
  84.3114090  15.0932703  69.1045761   7.6627722  48.1071167  20.7721863
   8.2187052  48.8627930  20.9622421   7.0679250  48.0532265  21.5201721
  58.6185837  41.3625679  12.6218367  59.5324326  41.0826988  12.6745987
  58.1197662  40.6151505  12.9516573  11.8408413  41.8474274  57.2486115
  12.4509058  41.2209015  56.8593559  11.2136230  42.0362587  56.5506363
  79.3726883  44.4547195  60.2315559  79.5623856  43.7259712  59.6406479
  79.3213959  45.2201500  59.6590881  69.4502487  39.3484306  23.5390816
  69.1288757  38.4468002  23.5428276  68.6638947  39.8825188  23.4267159
  48.2682228  40.2005005  72.7008438  48.9996109  39.7331924  72.2972031
  48.0212212  39.6577568  73.4496155  61.1902771  41.8334389  55.3239326
  60.3588829  41.3592033  55.3131676  61.0154419  42.6345825  54.8301315
   9.9664602  37.0889091  25.4150906   9.5897694  36.4334831  26.0022469
   9.6257124  37.9233055  25.7374363  21.8275986   5.0463810   3.2200363
  22.5375214   5.6836371   3.1416247  21.9875355   4.6115046   4.0576129
  40.5383072  59.0498848  10.9250908  41.2130737  58.6651077  11.4844408
  39.9199944  59.4501076  11.5364323  50.7644272  70.2592697  48.6194191
  51.6247330  70.5047913  48.2790947  50.2196236  71.0327301  48.4738693
   6.6405301   7.1016903  55.5706825   6.5888381   7.1110597  56.5264397
   5.7375355   6.9666319  55.2832947  66.7114182  36.6038513  76.0579987
  67.2449493  36.0276451  76.6053238  66.3062668  37.2129555  76.6753082
  68.5287552  34.7061577  71.9823227  68.1684952  35.0045319  71.1472092
  67.7710876  34.6536102  72.5649185  29.6880417  23.5411701  14.2229891
  28.7605972  23.6503487  14.0128422  29.6994572  22.8919353  14.9262638
  10.5710411  11.3793774   7.2532516  11.3979254  11.5190840   6.7917576
  10.5029650  12.1223097   7.8529592  31.8717403  65.7606659   4.4868960
  31.3394070  64.9695740   4.4030600  32.2748528  65.6875305   5.3519883
  60.8132973  21.7430019  14.4098043  61.3385201  21.1852894  14.9836769
  59.9374924  21.7263718  14.7957048   2.0786817  67.9316025  44.3889542
   1.2152512  67.5193176  44.3617477   1.8987676  68.8691101  44.3185730
  57.0493698  60.4773941  58.6071205  56.4311295  60.4263878  59.3361015
  57.8904915  60.2255898  58.9883537  69.7951279  54.7276192  26.7586842
  69.6558838  55.3699722  26.0628204  70.1071243  55.2436447  27.5020580
  64.9577713  33.0122337  53.9067650  65.0597534  33.2588692  52.9875259
  65.6754684  33.4590263  54.3556709  46.3852921  62.4653816  21.1480885
  46.0845032  62.8562012  20.3277111  46.0580559  63.0542603  21.8280640
  74.9424973  60.6260757  62.8349953  74.3419876  60.4580498  63.5612068
  75.4406662  59.8138847  62.7433281  73.9747238   7.3509355  38.6437035
  74.5966339   6.6671543  38.8925095  74.2596130   7.6285334  37.7730637
  50.6916504  29.8819427  73.0059814  50.9283218  30.7207832  73.4016647
  50.2210884  30.1184311  72.2066803  21.0476875  45.8921509  43.8409042
  21.2081203  46.1623230  42.9367485  21.6553001  45.1668091  43.9855423
   1.7060024  65.4022446  56.7227631   2.1002188  65.3252563  57.5916138
   1.5078820  66.3342514  56.6313705  53.6384048  65.2852173  61.7853394
  53.5409126  64.4674149  61.2975616  54.4909706  65.6256104  61.5142479
  42.1093254  51.5032349  81.7432327  43.0499687  51.4077454  81.8925705
  41.7357140  51.5946045  82.6197586  77.4134445   9.8808413  68.2302780
  77.9774475  10.4595995  68.7432709  77.8494415   9.8127394  67.3808594
  56.0339394  64.1176453  79.6807709  56.2359924  65.0291367  79.4696045
  55.9205856  64.1114426  80.6312180   9.2005968   1.0090284  39.5592995
   9.7759523   0.2502927  39.4617348   9.3474579   1.5245297  38.7662544
  59.9358864  60.4154091  83.1645889  59.6230507  61.0541801  82.5240097
  59.1495132  59.9398117  83.4322739  61.2397766  41.2230339  18.7064991
  61.6514778  40.5763283  19.2796535  61.8345032  41.2944489  17.9598846
  74.3645477  68.0974274  43.2968102  73.6636276  68.5903397  43.7234001
  75.0205460  68.7579346  43.0740395   9.4397564  45.7120171  58.7289925
   8.9209299  44.9077606  58.7438202   9.8686790  45.7361526  59.5843697
  19.1283493  45.3909492  15.4579802  19.6195145  44.5966530  15.6679487
  19.0999184  45.4091263  14.5013752  54.1732483  67.7544250  19.7426910
  54.8373985  67.1563721  19.3999500  54.3269844  68.5759201  19.2760601
  62.2727547  49.3292122  47.2216835  62.6191025  48.4424820  47.3216286
  62.9815063  49.8173561  46.8026161  43.6038055  59.6817398  74.9217682
  42.7684059  60.0702705  75.1813507  43.6326942  58.8444595  75.3847580
  72.3481293  15.1670198  63.9741592  73.1493149  15.3832245  64.4512177
  71.7943573  15.9415379  64.0725937  24.9998989  64.1513672  51.6534958
  25.0697021  63.8674431  52.5649452  25.2292480  65.0804596  51.6738167
  46.4741478  42.4316521  73.8928833  46.5130653  42.8365555  74.7593536
  47.2707443  42.7292404  73.4534454  72.1656265  57.4614830  46.4993057
  71.5327759  57.8197327  45.8769035  73.0187912  57.6472588  46.1070976
  59.8601761  15.2578659  53.3534851  59.8789597  16.0250511  52.7813797
  58.9430580  14.9837837  53.3565674  22.7015495  69.3917923  87.2772522
  23.5433350  69.8054352  87.0861206  22.6469059  68.6630707  86.6590271
   4.5025849  61.7318420  87.1182022   4.6949701  62.2790527  87.8796387
   5.1682205  61.9744873  86.4745560  28.7870522  64.0985336  46.1751366
  28.4575386  64.4136963  47.0167580  29.3976364  63.3978462  46.4041824
  54.9308815  26.0790119  65.4886246  54.3494530  25.5020351  64.9933853
  55.3829002  26.5943203  64.8205185   4.2564874  43.0922279  60.5461960
   4.9813409  42.4797783  60.4208069   4.2062235  43.2129326  61.4944229
  27.3549099  69.8865280  13.1696424  28.1729813  69.4575424  12.9187222
  26.7043076  69.1844635  13.1624660  81.4207764   0.2470044  10.3158388
  80.5320587   0.4161850  10.0031395  81.6643600  -0.5836591   9.9073067
  73.8363647   0.6253114  29.1546936  73.4958572   0.0754404  28.4490509
  73.3814240   0.3178161  29.9387302  51.2507286  69.3655701  83.1430969
  51.0715904  70.1492767  82.6235352  50.8667145  68.6496658  82.6368866
   8.5479813  52.5607910  55.9330559   7.7046533  52.2497635  56.2621346
   8.3269911  53.3058472  55.3742332  11.4285078   0.8128391  73.7487183
  11.6765766   0.3019927  72.9781799  10.4739275   0.8669201  73.7030792
  73.2987823  27.6177616  66.9999924  72.6276321  26.9389973  67.0711746
  73.0187836  28.1546326  66.2586441  18.1139832  26.3704262   5.2602711
  18.2822571  26.5452900   6.1861968  18.7892666  25.7402973   5.0089488
  76.1782837  18.0002880  16.5577583  76.3589478  17.6224709  15.6970329
  76.8642120  18.6566467  16.6799774  25.2586346   9.6349401  13.8276873
  25.2562866   9.0195303  14.5608301  26.1309681  10.0284462  13.8480864
  49.9007950  54.0541992  68.9180450  49.7361336  54.7620125  69.5410309
  50.8548355  53.9878235  68.8776169  17.0968685  28.6431236   0.6680604
  17.3997746  28.3609295  -0.1949847  16.2676392  28.1817474   0.7935224
  10.8466740   8.9267673  56.4765129  11.6024532   9.5139351  56.4927177
  10.1037111   9.4980021  56.2817574   0.8173442   4.9721832  33.7821007
  -0.0055236   4.8586102  34.2577286   0.5809858   4.8517051  32.8624001
  68.4772568  32.5743866  48.1893158  68.0784454  31.7080784  48.2711029
  69.1383820  32.4700661  47.5050163  17.4779587  41.5919685  20.3481197
  16.5654278  41.3241348  20.2395668  17.4325123  42.5319977  20.5227928
  22.0247288  15.7431717  73.8702393  22.2377224  16.5501747  74.3388596
  22.2001762  15.0458679  74.5020752  83.6959763  56.7704544  84.7201309
  83.1187363  56.5146675  85.4395752  83.1075974  57.1351700  84.0590515
  25.4676247  48.7992401  12.0886173  25.7439747  49.6210480  12.4942007
  26.0667381  48.6827164  11.3512459  45.0452232   4.4154043  31.6281433
  44.2101135   4.1041689  31.9773655  45.4695320   3.6288493  31.2853260
  63.1421432  39.0857887   8.1950293  63.5271950  38.3883858   8.7256861
  63.8942490  39.5589752   7.8391333  80.8855209  49.1982002  19.9593792
  79.9313736  49.1742058  20.0319805  81.0564117  49.8219147  19.2536812
  77.6464539  46.9067383  71.9435577  77.1544647  47.7112579  72.1076736
  77.0253906  46.3336945  71.4939575   6.0790215   2.0588021  59.2418098
   6.5262871   2.8663936  58.9888649   5.3006916   2.3539860  59.7143593
  37.9284744  36.5051880  16.4767399  37.9624329  35.5525436  16.3898602
  37.0935097  36.6763535  16.9123592  35.3507957  61.6235466  26.8942356
  35.0643883  61.1319008  26.1245022  35.6853523  60.9564743  27.4936676
  78.0963974  54.2598763  58.9069138  77.6420517  53.4196548  58.9687920
  77.4353027  54.8655281  58.5716896  48.0169334   7.8285303  82.9600067
  48.1068306   8.7542591  82.7337875  47.1556282   7.5821271  82.6228638
  31.3589478  28.3100815  73.9567032  32.1484337  27.8473721  74.2374878
  30.8103065  27.6311245  73.5639648  66.9652710  62.0508881  37.5143929
  66.2218170  62.5885658  37.2416115  67.1009521  61.4432487  36.7873459
  15.2274170  42.0789299  75.5008469  14.3394804  41.9687576  75.1607590
  15.7484064  41.4328308  75.0240326  11.2697191  46.0180244  29.2882824
  10.7905302  45.2430725  28.9949226  10.5880966  46.6314011  29.5628586
  81.4518738  29.8352146  65.5263290  81.4529953  28.9066658  65.2938843
  82.3017807  29.9789543  65.9425430  44.9412460  67.8455200  17.3899498
  44.5004654  67.9611969  16.5481892  45.8691750  67.9754791  17.1942654
  47.9015923  71.4623337  13.2912540  47.8385201  71.1932755  14.2076941
  47.7011871  70.6690979  12.7944107  80.5567245  56.5255852  24.9862118
  79.8508377  57.1200867  25.2402382  80.5644913  56.5579300  24.0295906
  35.3402138   6.9645219  79.2844162  36.0757294   7.3572454  78.8142853
  34.9326210   7.6971178  79.7463684  78.4196014  31.0153065   4.9988232
  77.6939697  31.6331692   4.9097242  78.2092819  30.5105419   5.7844510
  10.7378922  49.2007675  87.9313583  10.4093971  48.6858025  88.6683273
   9.9647884  49.6498070  87.5894394  18.9968071  11.9159918  29.5590496
  19.5157032  12.2507448  30.2904320  18.8178844  11.0044050  29.7897625
   5.6281037  34.5027275  62.1642647   5.9519172  34.3212585  63.0465584
   6.2265534  34.0282974  61.5871964   4.7194195  12.5143671  61.8566246
   4.3619123  13.3632154  61.5960960   4.1897192  12.2522926  62.6095963
  53.5022163  62.6859093  60.3189888  53.8355713  62.8337784  59.4339828
  52.6548233  62.2605324  60.1877823  75.0792084  28.0054188  11.9354973
  74.6918411  28.8681583  12.0833530  75.6723938  27.8791065  12.6760397
  66.7872620  40.8232956  38.8767967  67.6479645  40.7644539  38.4621086
  66.5422363  41.7445602  38.7903709  84.1943359  24.2249546  36.6337280
  83.6592636  23.5738754  37.0876274  83.6319885  24.9972000  36.5734406
  77.3128815  33.5502586  81.0986023  76.7986984  34.0016747  81.7679825
  76.7230911  33.4842262  80.3475876  50.2947388  62.2090874   3.3701551
  51.1636543  61.8711967   3.1532562  49.7350426  61.9076614   2.6545322
  58.1888313  38.6177940  79.9199600  58.6451721  37.8450127  80.2528229
  57.4104805  38.6926384  80.4720459  27.4606972  40.5739059  80.0114288
  27.6568508  40.0517235  79.2335587  28.3186092  40.7995834  80.3709946
  42.5475082  35.7110672   5.5728979  41.7703476  35.9267616   5.0574098
  43.0605659  36.5191040   5.5822468  65.6425858   1.1943678  12.6836433
  65.8400192   1.7615489  11.9382868  65.1124878   1.7391720  13.2653837
  71.8374634  17.5766716  54.5919189  71.7827988  16.6368332  54.4188652
  71.9673996  17.9717903  53.7298126  30.9365482   0.7130071  27.9977436
  30.3394089   0.6215949  28.7402382  31.7436047   0.2862894  28.2854996
  43.4383202   1.6477442  74.3365250  43.9498863   0.8919246  74.6250916
  44.0662003   2.1967037  73.8667984  19.4048615  66.2435608  13.5212221
  19.4423313  66.4417419  12.5855131  19.9298363  65.4491653  13.6190042
  33.1332779  18.8259735  84.5865707  32.9776306  17.9642315  84.9730988
  32.2945633  19.0671158  84.1933212  78.3212357  55.9942894  11.9123421
  77.4362106  56.1723061  12.2305803  78.8482819  56.7168427  12.2534752
  72.4053955  45.5861359  15.5273933  71.9942017  45.5679932  16.3915825
  71.6892700  45.7893181  14.9256296  61.0783691  44.4082375  70.1666718
  60.2236328  44.4892578  69.7434769  60.9519310  44.7875175  71.0363846
  80.2474594  14.8452616  41.1285248  80.0241089  15.5985146  41.6752930
  81.1964951  14.7577534  41.2174606  15.3656101  70.6016006  23.3191299
  16.0627327  71.2526245  23.3992748  15.4567785  70.2613907  22.4290867
  60.6018715  57.6724129  33.8186493  60.5214500  58.1156769  34.6632080
  61.4575996  57.9435959  33.4863510  21.3808422   1.8147830  46.8044968
  22.2512341   1.5321817  47.0851860  21.4197388   2.7708604  46.8296967
  73.9427643  27.2066193  20.7468128  73.4251862  27.6734085  21.4029026
  73.4421997  27.2997093  19.9362583  72.0735855  55.9226990  14.5716124
  72.2335358  55.1873932  13.9800253  72.3891678  56.6887779  14.0922775
  80.1871872   6.8393164  45.9455719  80.8344040   6.7313523  46.6424828
  80.6289444   7.3789787  45.2899475  18.1461735  26.7084618   7.9647660
  18.6598148  26.1725540   8.5690899  17.2813873  26.7656174   8.3711033
  60.0358009  47.5420647   9.4286280  59.2622414  47.5724602   9.9915810
  60.7039566  47.1124496   9.9626961  15.0584154  64.8896255  76.8654327
  15.1203604  65.8444138  76.8931198  15.9667091  64.5920868  76.8134155
  72.8364792   6.1656961  56.6613350  72.8399734   5.3803368  57.2085381
  72.0108185   6.6013231  56.8728714  62.3968391  61.1465111  29.1895485
  62.5261116  62.0928230  29.1262360  63.2696877  60.7970123  29.3690281
   4.6979423  36.8424606  56.8241959   4.5219121  36.0337563  56.3433151
   4.1551018  36.7769318  57.6098557  64.1467285   4.4520473  47.2459946
  64.9579010   4.8779464  46.9687958  63.5461922   5.1751790  47.4267426
  10.1550713  47.1171608  16.6864433  10.2903337  46.8438454  17.5937653
   9.2290354  46.9420280  16.5190601  70.1990814  61.5363388  88.1780701
  69.9515228  62.3342896  87.7109299  69.3748856  61.0654221  88.3012314
  19.2186947  34.7274551  66.5626450  19.5309067  35.2242813  65.8063889
  18.7688713  33.9721756  66.1839066  11.1421509  45.3228378  11.4427290
  11.3826799  45.9201508  10.7344990  11.1811771  45.8608551  12.2334538
  82.0695953  68.8440323  84.4218597  81.7996979  69.7604828  84.3627472
  81.2571106  68.3651352  84.5854340  82.5146790  33.9136162  19.0946026
  82.7645874  34.5984344  19.7149239  83.3355408  33.6633873  18.6705647
  49.7713318  24.2474060   7.0141678  48.8142471  24.2511292   6.9996986
  49.9964905  23.8926907   7.8742332  32.3743896  24.0030193  14.4027834
  31.4822445  23.7151814  14.2092390  32.4387398  24.8697510  14.0017042
  72.3133926  43.2870102  75.9169998  71.3675995  43.3923988  75.8140488
  72.5670700  43.9818001  76.5245743  78.0592346  61.7562943   2.0210235
  78.6534882  61.0538483   1.7570851  78.6300201  62.5107155   2.1669226
  55.7735023  64.5465469  64.0712738  55.4950294  64.1119919  64.8774033
  55.0313110  65.1003494  63.8290215  29.3673134  45.7471390  36.3408051
  28.8570518  45.4627762  37.0990944  30.0574512  45.0892830  36.2561646
  86.1643982   2.3883867  12.6888704  85.9118195   3.1877823  12.2269163
  86.9737473   2.6204510  13.1442099  14.0258904  50.3766632   7.9629197
  13.9126987  49.4397583   8.1230145  14.4372292  50.7080688   8.7611685
  31.7825031  20.5067158  12.2659054  30.9560375  20.0909443  12.5115013
  31.5455170  21.4130154  12.0692091  14.6088352  37.5498886  82.5308228
  13.9717922  38.1929703  82.2196121  15.4060907  38.0571022  82.6836243
  81.4101791  34.3798409  65.2731323  81.7379837  35.0922165  64.7242279
  80.7519684  33.9438744  64.7319183  51.4856529  56.7689857  37.3770294
  50.7451897  57.2823029  37.7002220  51.6557617  57.1184845  36.5023041
  85.4702606  35.3345337  19.9884377  85.2819977  34.6785889  19.3172264
  85.1260529  36.1517258  19.6279411  35.6724281  34.1902428   6.1754789
  36.5937920  34.0964088   5.9335842  35.4834900  35.1192436   6.0432191
  14.5643234  70.8491364  59.3110504  13.7408810  71.1983643  59.6519508
  14.5522118  71.0725861  58.3803749  23.1564960  59.8950195  55.3809395
  23.1151791  60.1106491  54.4492569  22.7687206  59.0220299  55.4421616
  69.1917343  60.4065094   9.6811237  68.2659302  60.1985435   9.5551853
  69.2217255  60.8678246  10.5192890  74.4957581  19.2242680  56.6898308
  73.7900772  19.5786972  56.1488724  74.2163086  18.3316803  56.8933601
  45.4372177  20.0722809  69.4636841  44.9197350  20.7511501  69.8967896
  44.8245392  19.6530266  68.8594589  58.7351990  51.5193367  59.5738716
  59.4737320  51.2405930  60.1152611  58.9536896  51.2119637  58.6940918
  18.8279972  61.7412949  42.2464447  19.6507053  62.1945000  42.4308014
  18.5744076  61.3548126  43.0846329   2.8504875  53.6407547  38.1340561
   3.6546524  53.8334656  37.6519623   2.9282901  52.7163200  38.3698578
  25.1096115  39.2482605  64.8190155  25.0471458  38.3836060  64.4131775
  24.2848511  39.6786995  64.5937958  46.9148750  37.5448685  32.7942810
  46.2927094  36.8177567  32.7729492  47.4371643  37.3901749  33.5813713
  50.4070091  35.8669357  33.7821083  49.8080177  36.0468254  34.5067329
  51.2792969  35.9294701  34.1712494  18.1949272   9.7844210   2.5010734
  17.3739815   9.7220926   2.0128152  17.9810677   9.4515820   3.3726888
  65.3836441  17.0406895  11.5955715  66.0386658  16.3428116  11.6074257
  65.7182617  17.6937160  12.2102404  71.3046570  35.3422966  54.2923126
  71.8230591  34.6056633  54.6161385  71.0151749  35.7974205  55.0830650
  27.0078373  28.8706303  16.5941620  26.4686146  28.1849174  16.2001190
  27.9017906  28.6543617  16.3290081  23.6156940   1.5056413  79.0865021
  23.7286930   1.1710204  78.1968460  24.1042595   2.3287039  79.0966797
  15.8206987  45.6707878  59.2261772  16.1400585  44.8019257  59.4697266
  16.4754295  46.0031776  58.6121140  30.0498142  44.8351326  32.0398521
  29.2908707  45.2144051  32.4830132  29.6781483  44.1905937  31.4376335
  79.1121826  31.0983849  58.9138451  79.3896484  31.6295204  59.6602631
  78.3390121  31.5486565  58.5737076  85.4849472  35.6130676  23.4071617
  86.0903473  36.0788269  23.9840431  85.1263504  36.2931633  22.8369770
  77.9132919  55.9308167  18.4474792  77.6739044  56.3133049  17.6033058
  78.6832047  55.3946419  18.2577953  46.2668076  13.7021589  82.5529556
  47.1864777  13.9146338  82.3939362  46.2639351  13.2776709  83.4108810
  61.8290367  68.0838089  46.9839668  61.6794815  68.9714355  46.6584244
  60.9620552  67.6781464  46.9804192  60.2655602  67.7226257  78.9645996
  59.5696335  67.5197220  78.3395004  60.5573044  66.8686600  79.2837524
  11.3673687  24.1671200   9.0233421  11.7287874  23.3165932   8.7739153
  12.1285648  24.7452545   9.0740681  66.5046387   2.4746008  76.6050110
  65.5951767   2.7488980  76.7227936  66.9168854   2.6416988  77.4525757
   3.7848225  52.7010231  67.6739883   3.2274969  53.4744110  67.7605286
   4.2002659  52.7998238  66.8173294  42.5304604  19.2707672  81.9354401
  41.9164696  19.0117569  81.2483063  43.3888741  19.0135078  81.5990295
  18.7239971  61.4760742  70.7011948  18.8187408  62.3772125  70.3926392
  19.2002563  61.4558067  71.5312576  26.1729240  52.6413078  76.9598007
  26.7866898  51.9336281  76.7630463  25.4331722  52.4870415  76.3722687
  72.4648285  42.5130119  57.0940208  71.6638184  42.7780113  56.6419144
  73.1693573  42.9269905  56.5955315  86.6971970  48.7165108  16.7069321
  86.0909042  49.1892128  17.2771969  86.7195282  49.2324409  15.9009867
   7.7967505  27.7860680  65.0972519   7.9884419  28.3232422  65.8659668
   7.3190608  27.0327778  65.4445267  74.5671005  14.0012941  17.7263355
  74.7559052  13.1172209  17.4116917  75.1679688  14.1275902  18.4606647
  78.7328949  29.0486279  39.1799850  78.4375839  29.0967979  40.0892181
  79.1631317  29.8891602  39.0230484  11.3770618   7.9860287  66.4414749
  12.3025913   8.2249136  66.3908615  11.0010414   8.6138744  67.0584412
   7.7823186  48.9692993  30.8532505   8.1937294  48.3618774  31.4680786
   7.3785572  48.4054565  30.1934872  68.5289688  55.1895294  22.5929356
  69.3627701  54.7225876  22.5384388  68.4815369  55.6908226  21.7788792
  85.7111053  57.8512878  61.1888275  85.7429886  57.4397812  60.3251839
  86.4191589  57.4338112  61.6793404  54.1694794  67.3247223  25.8060284
  53.8036041  67.0390015  24.9689350  54.9035606  66.7305222  25.9618702
  67.8926010   9.9294262  25.6503849  68.0082092  10.2931595  24.7725677
  67.6514511   9.0152283  25.5009899  52.8360519  49.2025986  53.4210930
  53.6694717  49.2781296  52.9564018  52.2116966  48.9270859  52.7498932
  29.8311386  11.2772474  78.7640839  29.9404182  11.5553818  79.6734467
  29.2783451  11.9530373  78.3717117  14.3818312   4.9165683  73.1549301
  13.5356665   4.4775252  73.2414017  14.6823082   5.0370636  74.0557175
  41.5516853  30.6632690  68.2803955  41.5757866  29.7064667  68.2938385
  40.7633591  30.8899555  68.7737427  84.2974167  39.3135719  15.5038977
  83.6529160  38.7680702  15.0530367  84.8441849  39.6675644  14.8024950
   3.7290080  47.6585045  64.5326157   4.3247375  48.3105736  64.9015961
   4.1120000  47.4373817  63.6837006  38.6247559  34.7191238   5.5161171
  39.4984970  34.3429070   5.6222596  38.5087509  34.7918167   4.5687571
  13.2512722  22.1806984  87.3330002  12.6011620  21.5726891  86.9809799
  12.7995253  23.0240993  87.3618317  81.7379532  69.1858749  59.5220947
  80.8015137  69.0668411  59.6806641  82.0537338  69.6557770  60.2939186
  66.7441940  58.4991264  38.1679726  66.8388138  58.9588203  37.3337288
  67.1499023  57.6451874  38.0182533   3.9897838  67.4216766   6.5625949
   3.7768035  68.1380997   5.9645896   3.1461577  67.0136108   6.7575622
  76.4596558  13.8053398  56.1512642  75.9555206  13.2872696  55.5238228
  76.3643341  14.7081470  55.8478088  53.5904388  55.3959656  75.0709915
  54.2323303  54.7136574  74.8743668  53.0783463  55.4819412  74.2668839
  77.6828918  48.9318886  43.4453392  77.2466583  49.6682053  43.0166512
  78.5222092  49.2877007  43.7371941  39.1090965  44.0950661  17.7348461
  38.5287094  43.7044830  18.3881664  39.2644119  43.3934860  17.1024742
   5.6018252  16.5092297  62.6633759   6.2773213  16.8747807  62.0921402
   5.9587269  16.6027584  63.5466118  53.5598183  70.2117310  47.2975082
  53.9767761  69.4339294  47.6681976  54.2896423  70.7664490  47.0220528
  17.9441547  53.3116035  19.2304115  18.2205696  52.9074516  20.0529003
  18.4736576  54.1062584  19.1641922  15.5087748  66.3405838  41.5509415
  15.8884773  66.4302139  40.6768570  15.7915831  65.4754944  41.8473740
  47.2118607  28.0762539  84.9569855  46.5245056  27.4321079  85.1268463
  46.7454529  28.8407116  84.6189041  52.2773819  43.9842033   9.9560728
  53.1983757  43.8499489  10.1796322  52.1412277  44.9262581  10.0572138
  61.7181969  19.9549580  76.1793671  61.9824295  19.3156242  75.5177994
  60.7992172  19.7524529  76.3545685  47.4268532  46.8273544  37.1038322
  46.6500015  47.3400955  37.3270645  48.1484375  47.2862434  37.5339127
   8.8109264  58.9299049  38.0502052   8.1021929  58.3058891  38.2068367
   9.2559996  58.5962715  37.2712135   8.2593937  65.6619186  25.5855675
   8.3486567  66.6148911  25.5751534   9.0692968  65.3498917  25.9892139
  70.7832794  54.0473824  68.7857971  71.3227615  53.8665199  68.0160675
  70.3985901  54.9065094  68.6121597  24.2870312   4.6738267   0.3438299
  24.3400764   3.8232293   0.7796076  24.1465454   5.2989321   1.0549828
  49.9417076  23.4650784  19.2724133  50.7696648  23.9417591  19.2133045
  49.2951050  24.0601635  18.8929253  59.0504456  54.8277435  23.0563622
  59.0588989  55.5482292  23.6864891  59.8140564  54.9860153  22.5013142
  30.0849686  33.0133629   5.2968378  29.8613815  33.8492432   5.7061610
  29.9151573  33.1500778   4.3647947   1.7736623   9.1315784  89.1270370
   1.8273295   9.4797716  88.2370300   1.9898330   9.8758154  89.6888275
  62.7775650  62.7043419  53.8494377  63.5411301  62.5314255  53.2987099
  62.3292580  61.8607178  53.9090347   3.7276056  45.3863297  24.3439846
   4.6726217  45.2352524  24.3627377   3.6385045  46.3342896  24.2457047
  22.4243679  70.4054031   2.5709844  22.1005440  71.2611389   2.8521924
  23.2226887  70.2716904   3.0819039  20.5450840   5.9516072  35.7412300
  20.7147865   6.8860497  35.8606033  21.2378597   5.5169144  36.2385559
  50.1623802  61.2324448  25.1553745  49.2339478  61.0599632  24.9988651
  50.5969505  60.9539032  24.3492737  57.2673187  34.5436745  25.2303257
  56.5063477  35.0964241  25.4081650  57.5671196  34.8202515  24.3643818
  67.8829880  24.3579464  17.8071804  67.7994232  25.1580849  18.3258591
  67.0124207  24.2232265  17.4327469   6.1250167  12.9927044  12.1410809
   6.9668832  13.2027836  11.7369032   5.4848986  13.4932203  11.6351519
  76.6483688  56.3848267  58.3937836  77.0400620  56.9605408  57.7370033
  76.0151138  56.9385300  58.8505516  84.9618301  60.5882912  72.0523148
  84.9995880  59.6378784  72.1596680  85.6701431  60.9199791  72.6041336
  73.4147568  27.2274742  61.6558723  73.5966263  26.3345528  61.3628731
  72.7700577  27.1232796  62.3556900  71.9568405  39.2577400  13.6257715
  72.2249069  39.3302345  12.7097378  71.8855438  38.3158455  13.7806406
  29.2473774  62.2173271  64.5764084  28.6428509  62.1371117  65.3142014
  28.6828728  62.2196541  63.8033867  36.5565453  56.7751541  35.6050682
  36.5868492  55.9932594  35.0537453  35.6802940  56.7629013  35.9901199
  83.3018112   8.3009214  11.3896866  82.8281631   9.0062294  10.9487381
  82.9086151   7.4980111  11.0476818   4.8451719  24.7387142  81.4788513
   5.5025568  25.4262714  81.3723526   4.0773468  25.1931057  81.8255615
  63.9604301   7.4921308  27.5151215  63.6332169   6.5931387  27.5463619
  64.1643677   7.7045703  28.4258957  49.6642990  34.8114166   7.9570084
  49.6388168  35.3118134   8.7725973  49.7708359  35.4728966   7.2733951
  26.9495258  67.2652283  57.3305092  26.8757477  66.9451141  58.2295761
  27.6513596  67.9152298  57.3645401  46.6105309   4.8653369  37.7300758
  45.7500534   4.5064559  37.5132446  46.5673180   5.0397148  38.6702652
  74.1884766  21.2195930  87.9107742  73.2601700  20.9874420  87.9349747
  74.4770279  21.1481342  88.8206406  40.8409767  47.0732841  23.0487862
  41.6983566  47.2603912  22.6665249  40.9451485  47.2718086  23.9793606
  81.1107254  10.3100872  79.4663925  80.4782486   9.8529720  80.0206909
  81.9521027   9.9069452  79.6803818  51.8394012  22.2404099  66.9686584
  51.5541153  21.4001141  67.3274765  51.9207611  22.8117218  67.7323456
  15.6700373  34.5854492  13.5337858  15.8283281  35.4033928  13.0624695
  15.8249893  33.9004250  12.8834276  53.9221077  24.7966156  38.6352501
  53.0035248  25.0138302  38.4763412  53.8963852  23.9315567  39.0442009
  54.1873703  40.2670364  69.3257217  53.3126450  40.4988594  69.0137253
  54.0332527  39.8073845  70.1510696   4.8163033  61.3123169  62.3691063
   4.8304095  61.9046059  63.1209221   3.9973552  61.5173683  61.9179878
  47.1615562  69.2041702  20.6546555  47.5663452  69.8801270  21.1982174
  47.2735939  69.5191574  19.7577381  39.6949730  58.9617500  77.6267090
  40.4741745  58.5629807  77.2393341  39.3078957  59.4716263  76.9150696
  53.0624504   2.2907696  15.7941914  52.4651756   1.7977688  16.3567295
  52.5672607   2.4357874  14.9879713  28.1855068  50.0004082  51.1537437
  27.7411594  49.8820877  50.3142242  27.6341686  50.6202583  51.6312828
  53.2295265  64.7364120  28.0279293  52.9855995  63.8256149  27.8630676
  52.4582405  65.2413330  27.7702370   7.4002733  38.0228539  35.2585983
   6.7241077  37.9947090  35.9355316   6.9290695  37.8558960  34.4423141
  66.1374893  22.2227402  69.1869049  65.2446442  21.8945065  69.2932968
  66.6857300  21.4385490  69.2135773   3.8381069  24.9559212  22.5032711
   4.1228557  25.8697338  22.5129585   4.4422898  24.5231667  21.9000130
  11.1410570   0.4316699  86.0069504  11.5401087  -0.4318859  86.1130676
  11.8295221   1.0464537  86.2605057   5.8773847  67.5697479  30.7562084
   5.5000772  68.4160767  30.5162144   6.2564559  67.2371445  29.9426270
  82.8404160  37.3946533  76.1833191  82.4763184  37.4122505  75.2982483
  83.6461487  37.9076385  76.1210938  46.1295357  18.5777359  72.2803345
  46.8019066  19.0116100  71.7550735  45.4255066  19.2226791  72.3483353
   1.7401259  26.9240723   8.8342676   1.1803141  26.4444065   9.4448109
   1.1298320  27.4221382   8.2904816  47.7007942  70.8900452  83.3102493
  47.6121063  69.9374390  83.2800751  47.6394958  71.1069565  84.2405319
  53.9766045  48.9372635  75.0195007  53.9339752  49.8916130  75.0797577
  53.8958435  48.6362877  75.9245605  49.4458885  20.3473969  83.9152145
  49.2961769  19.9177017  83.0730820  49.8557968  21.1821823  83.6886292
  54.5900192  55.0224991  32.4816742  54.9368935  55.1275978  33.3675995
  53.9347916  55.7151680  32.3972702  14.7216730   6.2592392  76.3192673
  14.7026958   6.3748045  77.2692795  14.2593307   5.4346814  76.1690140
   4.7942801  15.1837111  50.8265305   4.8185644  16.0113506  50.3462639
   3.8804781  14.9034948  50.7747917  14.5185728  58.7023849  35.1192093
  14.4661055  59.1725159  34.2870674  14.0671196  59.2700233  35.7438736
  58.9250145  20.8575153   2.8428266  59.4920731  21.3471355   2.2470529
  59.3207703  19.9871864   2.8890657  61.5340385  29.3167782  20.7255421
  60.7956696  29.2161407  21.3263035  61.4236336  28.6097641  20.0897942
  18.7004299  31.1227531   4.8161263  18.3589230  31.2954731   3.9387593
  18.5644493  31.9422531   5.2916899  74.2716522  38.0926399   4.8580809
  74.2897110  38.2222023   3.9098620  73.6819534  37.3497810   4.9871249
  72.2868881   5.0172920  88.3290787  72.0078812   5.2770262  87.4510498
  71.4716949   4.9274998  88.8226624  80.1162262  54.2898941  37.7542763
  79.3188171  54.5725365  38.2020226  80.8090897  54.8288536  38.1359787
  28.6892910  23.1147404  10.3114061  28.8451843  23.8918724   9.7747555
  29.5119114  22.9795265  10.7817745  24.8091450  27.9078102  73.2204361
  25.4748135  27.3985329  73.6827698  23.9988155  27.4144955  73.3478622
   1.2405497  24.5793209  30.8462906   0.8304222  23.7484589  31.0864887
   1.7992327  24.7953224  31.5929165  28.9384956  50.2237091  47.5614014
  29.8103943  50.1598053  47.1716042  28.7793522  49.3571930  47.9356384
  64.9767914  49.0944252   2.0498903  65.4640808  48.3160400   2.3198748
  65.5761261  49.5625381   1.4686009  76.3010712  17.2103043  20.0760345
  76.4195862  16.2656345  19.9771137  75.6973801  17.3000431  20.8134155
  52.0372849  68.6395416  60.0099411  52.3487816  68.5496368  60.9105606
  51.5051003  67.8579025  59.8614197  60.3819199  28.2645874  29.3246899
  59.4896622  28.3295956  29.6651039  60.7484016  27.4942741  29.7588997
   1.1316973  46.7603569  72.7850800   2.0239384  46.4417038  72.9214478
   0.7062526  46.0705872  72.2757187  57.1445312  36.9639702  70.9422455
  56.8138580  36.2121315  71.4337921  56.4773979  37.1262779  70.2752991
  65.8445892   4.4774027  71.5107193  66.5432205   4.1301980  70.9561005
  65.2627487   4.9356174  70.9043045  52.2984314  56.7310982  79.2684250
  53.0372696  56.1462593  79.4366760  51.5656509  56.1439323  79.0826874
  13.6802588  44.2564545  29.7790947  13.5098476  43.5976906  30.4523144
  12.8186293  44.6214676  29.5776253   0.8476708  64.1683197   9.9736719
   1.4977494  63.4676247  10.0251961   1.3317555  64.9615097  10.2033234
   5.1549459  20.1138039   6.3163633   4.9483886  19.2768803   6.7324448
   4.4473028  20.6979027   6.5889468  62.1418571   4.4640942  63.6553726
  62.0036316   3.7329783  64.2575302  62.7888527   5.0165925  64.0939789
  79.6368103  33.7081909  48.5159607  78.9733353  34.3965530  48.4692612
  79.4277267  33.2279663  49.3171463  51.1870003  23.6390934  77.7951660
  51.1655273  24.2135010  77.0297775  50.3758659  23.8346920  78.2642441
  32.2805328  64.1727524  39.8571243  31.8717537  63.3080101  39.8939095
  31.9537506  64.5577545  39.0439720  72.1435852  11.6795874  63.1573906
  72.5816116  11.0815296  63.7629433  72.6466751  12.4917345  63.2169838
  69.8016281  40.0711975  68.6382599  69.2724152  40.6653061  69.1704178
  69.1618271  39.5414467  68.1626053  48.4735031  21.0650902  17.6363735
  48.0095139  20.8311253  16.8325043  48.7408905  20.2260113  18.0114479
   4.0711436  33.9784813  40.2899818   4.8647890  33.7163544  40.7565079
   3.4748936  33.2372742  40.3964272  19.6768169  51.9921761  16.5979900
  20.0437069  51.2617645  17.0961094  18.7544880  51.7638245  16.4822407
   1.9837928  52.2037964  81.2741623   1.1008373  52.0745583  80.9278717
   2.2533846  53.0556831  80.9308853  43.3699799  22.0402260   6.2134356
  43.4203644  21.8954067   5.2685962  44.0628777  21.4892330   6.5774822
   7.0296755  32.4381676  29.0549736   6.7022877  32.4862289  29.9531593
   7.5964665  33.2042923  28.9653282  37.0374718   3.1465542   0.5639797
  37.4213791   2.8314435  -0.2542825  37.7597580   3.1240675   1.1916964
  69.5301666  45.6112442  57.2227478  69.1680679  46.4723892  57.4314270
  69.4648056  45.1191978  58.0411911  65.8334732  13.7559423  66.7544861
  66.5959167  14.2765303  66.5017014  66.1301727  12.8483734  66.6872787
  59.2951393  62.3452873  85.0896454  58.5815620  62.0288773  85.6436539
  59.5293427  61.5921135  84.5473251  41.9644318  22.7141571  78.7349854
  41.9713516  21.9219074  79.2721329  41.5795212  22.4365673  77.9037094
  25.1327820   4.7738366  32.9249382  25.0275860   5.3678999  33.6680756
  24.3536472   4.2183719  32.9501801  40.9041786  42.3383522  61.0355644
  41.1865234  43.2394714  61.1920776  40.8983269  41.9349976  61.9036102
  30.6800747  57.0480156  82.7202911  31.5346947  56.6257515  82.8071899
  30.1927814  56.4815865  82.1220093  52.9436264  42.9062195  61.2157898
  52.2418480  43.3778152  60.7670860  53.5240440  42.6147881  60.5126457
  32.3009987  38.1464386  19.6226940  33.1468163  38.0409126  20.0582256
  32.2236099  37.3760300  19.0599213  52.3830643  23.8800678  72.5016098
  53.1544685  24.0015450  73.0551529  52.7341919  23.8071156  71.6141357
  41.7454300  34.7183685  17.2405910  41.1145630  35.3501244  16.8954544
  42.5921822  35.0225716  16.9139290  25.4378643  54.9754333  34.2213326
  25.2892323  54.2375259  34.8126335  26.1677856  55.4539948  34.6143036
  58.7252045  64.7492294  36.4225502  58.7230034  63.9142838  35.9544792
  57.8543968  65.1142197  36.2653656   3.0293877  30.8871479   2.4090087
   2.9837306  31.6503792   1.8331395   2.2243018  30.9280376   2.9251449
  36.2310905   5.8073978  75.6825485  36.8299866   5.6057415  76.4014969
  36.8027878   5.9588618  74.9299164  16.6657448  53.4421043  45.1693039
  15.9065571  52.8648643  45.2509117  16.3299847  54.3116455  45.3870125
  81.3811493  34.1172256  85.5316696  80.9530869  34.2620964  86.3754730
  81.8532104  34.9319458  85.3595734  12.9802971  39.0454369  66.3048706
  12.2521391  38.4797096  66.5617142  12.6330166  39.5702019  65.5835876
   4.7668023  42.4511223  69.7497559   5.5471988  42.7895660  69.3108215
   5.0498171  42.2880440  70.6495056  71.5763931   9.6434431   1.7230541
  71.8418503   8.7327261   1.8509541  70.6473083   9.5928173   1.4984167
  71.1667786   7.5058308  86.7313766  71.2777634   8.4181805  86.9988327
  70.2280045   7.3422356  86.8217926  47.5600624  41.2786789  18.4379902
  48.3898392  41.5328293  18.8418541  46.8906212  41.6651268  19.0025597
  48.9914284  19.2112331  80.8250046  48.0727501  19.2519588  80.5592957
  49.4676247  19.6243629  80.1047363  30.6068764  58.8936958  77.8290100
  29.7927952  59.3956146  77.8687897  31.1359825  59.2380867  78.5485077
  45.8255501   3.0355077  81.9407959  45.9522209   3.5120003  82.7612534
  46.6313591   2.5308981  81.8300171   6.3746662  11.1824541  65.5513611
   6.7640691  11.2684650  66.4215317   5.8608270  10.3761864  65.5975342
  24.0522518  43.4985657  30.4451942  23.5715694  44.3122940  30.5969162
  23.6016312  42.8498306  30.9858551  47.4566803  39.1147423  10.0229139
  46.5555344  38.9618301  10.3071384  47.7667160  39.8268471  10.5823898
  31.8867855  51.4676170  57.6392479  32.8225174  51.2912979  57.5415192
  31.7754517  52.3595009  57.3100281  58.6918831  64.0356140  13.6392412
  59.6052666  63.9347687  13.3713007  58.2971611  64.5682983  12.9488258
  26.0552883  38.5617142  61.0215034  27.0113602  38.5842133  61.0621490
  25.7934189  38.0811462  61.8068123  71.0746307  53.0256081  55.9231796
  72.0251312  52.9248695  55.8718452  70.9168701  53.3637390  56.8046608
   0.4595865  61.7247963   6.4866223  -0.0772946  62.4718361   6.7510452
   1.3611749  62.0279579   6.5936928  61.2939796   3.0925009  56.0242310
  62.2172928   3.1511781  55.7787094  60.8390503   3.6296098  55.3755493
  49.9617538  27.8682461  85.3649673  50.3304291  27.4379940  84.5934830
  49.0143013  27.8107510  85.2414322  56.3621140  67.6719437  73.1595383
  56.0055847  68.1810913  73.8874741  57.0124016  67.0980453  73.5644989
  81.4815750  39.2305908  62.0822678  82.4258499  39.1262321  61.9652786
  81.3741302  40.1389275  62.3644104  44.8702202  36.3395309  30.0506001
  45.4785004  35.9295006  29.4356995  45.0526886  35.9134254  30.8880806
  74.6011734  12.4125547  71.9413071  74.3155975  13.3107910  71.7744217
  74.5113983  11.9717989  71.0963745   1.4415404  40.2972565  81.3272934
   1.9555565  41.0484390  81.6235123   1.9368165  39.5349617  81.6270218
  60.3847656  56.3816986  16.8078690  60.7734718  57.2556419  16.8448486
  60.1989594  56.2412987  15.8794317  77.4124985  66.1178741  38.7168427
  76.4766159  66.3177567  38.6970177  77.6324615  65.9107132  37.8085823
  72.4806824  19.3923111  20.3014336  73.0216599  18.8742695  19.7054405
  71.7662735  19.7184334  19.7541714  79.8231430   6.6824698   8.3436852
  79.2816544   5.9008651   8.4537830  79.2607422   7.4047980   8.6232891
  85.0817719   7.3143125  61.9719200  85.8110123   7.8005848  61.5872383
  84.4789276   7.9908576  62.2803040  24.7236328  20.3814411  85.4233704
  25.4072571  21.0484695  85.3604279  25.1689548  19.5612640  85.2107010
  43.7364540  11.7225952  87.5955811  43.5420570  11.1324644  86.8674469
  43.1159325  12.4439459  87.4914780  70.4253693  21.9184322  62.2916603
  71.3072586  22.0709591  61.9521942  69.8668060  21.9148617  61.5143394
  33.7799492  65.1833801  75.4498825  33.7593536  65.2133636  74.4933777
  34.4123421  65.8580551  75.6971054  55.1147499  22.8471584  11.2484846
  55.8547554  23.0350475  11.8258266  55.5159950  22.5177174  10.4443064
  66.7426605   3.8536439  31.5629768  66.2658615   4.6207666  31.8798637
  67.0786514   3.4360204  32.3560295  48.2851295  69.3787842  27.2207756
  48.6187210  68.8714905  26.4807758  47.3638382  69.1277466  27.2873611
  42.2896347  52.9075508  86.8688431  42.4483719  52.2417946  87.5380173
  42.3342133  52.4299469  86.0405045  11.5645981  36.6305084  69.3887405
  11.6002607  37.5647049  69.5942688  10.6805801  36.3634415  69.6405640
   5.6577630   6.4615130  85.1867981   5.7131643   6.0299411  84.3342133
   6.2703333   5.9774156  85.7405472  69.8210907  20.5054474  52.3214684
  70.6108627  19.9686108  52.2559090  70.0239944  21.1479836  53.0013275
  81.8700714  47.3519211  57.9095840  82.1050186  46.4373474  57.7527695
  82.6770020  47.7549553  58.2299767  59.5511055  26.4937859  14.8621397
  60.3927917  26.0442829  14.9379396  58.8993225  25.8073273  15.0042152
  15.0796785  68.9187546  39.1796188  14.1686487  68.6472168  39.0677185
  15.5862007  68.1168976  39.0504036  30.6221619  13.5833139  75.1260834
  31.2014198  14.0123663  74.4963226  30.9432049  13.8703136  75.9809494
  42.8683624  49.5510292   9.8843384  42.1736069  49.0710335   9.4336157
  42.6881676  49.4158936  10.8146610  84.7116699  42.0532494  66.4251251
  84.2538605  42.4337540  67.1746902  84.5778503  41.1098595  66.5164261
  27.0720463   6.5885639   5.1706996  28.0208588   6.7004905   5.2295203
  26.9563999   5.7961192   4.6464005  12.6280985  41.0999832  18.1264954
  13.1886253  40.6197968  17.5170174  12.3651762  41.8834839  17.6435585
  61.8670998   5.5812635  74.9980774  61.3273506   6.0290027  75.6495590
  62.7184677   6.0152669  75.0532455  26.1632957  51.6280937   9.7383280
  26.3521175  51.4053116  10.6498909  25.2112255  51.7219734   9.7069826
  60.1365280  44.0219727  27.0131741  59.3867302  43.7943878  26.4634094
  59.9447479  44.9061432  27.3257332  11.5242672  42.0446396  59.7541695
  10.8719873  41.3442612  59.7388344  11.8831282  42.0571861  58.8668747
  81.8531342  23.9094372   9.4801311  82.8029785  24.0254879   9.4564857
  81.5620193  24.4640808  10.2039089  63.4355392   9.7028027  43.8643837
  64.2967072   9.2910376  43.9355698  62.9325714   9.1109543  43.3049469
  20.0053940  23.5346298  87.8742828  19.8758965  22.6712742  87.4817581
  19.4144421  23.5465012  88.6271896  45.1781502  60.1716995  11.5597572
  45.7158051  60.5170250  10.8470802  45.7648811  59.5888023  12.0416431
  63.6811371  67.6289368   4.4551187  62.7376671  67.5623093   4.6022997
  63.8068924  68.5098343   4.1023602  50.7158928  54.9567604  18.4022541
  49.8559914  54.6044044  18.1728153  50.5445824  55.5483742  19.1349735
  10.2177610  63.7264900  73.2036209  10.2177362  63.7237511  72.2464294
   9.4664917  63.1845436  73.4447021  54.2640266  27.6232262  84.6718369
  54.2832870  26.8183422  84.1541290  55.1120300  27.6430683  85.1153793
  35.3447685  39.7574463  65.6274185  35.4955673  39.2618103  66.4323044
  36.2040596  39.8001060  65.2078552  27.9079857  60.7398453   2.3429036
  27.5413589  60.2209091   1.6269981  27.3402519  60.5517273   3.0902472
  54.8122978  36.8983002  32.7777672  54.3752174  37.1760445  33.5827827
  54.6456261  35.9570808  32.7272186  57.2393456  22.3835030  88.6530228
  56.4639168  21.8236904  88.6924744  57.9441452  21.8417912  89.0080338
   4.7671309  44.7115288  52.6685791   5.6705880  44.7771759  52.9779129
   4.7553134  43.9204216  52.1298370  34.4872780   0.6245947  69.7289352
  34.3504601   1.5597906  69.5775375  34.5037880   0.5361369  70.6818924
  57.8160629   4.1138792  54.9329681  58.6770325   4.4282079  54.6569939
  57.3721504   3.8837824  54.1167412  51.9820595  24.9618092  58.8379669
  52.1970558  25.7988605  58.4264450  51.0694771  24.8035297  58.5963516
  29.1790504  65.5340347  13.3933249  29.1491356  64.8242645  12.7517996
  29.7303467  65.1959686  14.0990238  79.7525864  34.3629379  29.5156746
  79.6078644  34.3145943  28.5707150  79.5935364  33.4722900  29.8282146
   7.7009096  32.7383041  66.6246796   7.9141922  32.2190971  65.8493347
   7.8534427  32.1446266  67.3598785  35.1425591  61.7188683  11.9257994
  34.5421791  62.4156456  11.6607008  35.5562134  62.0496140  12.7231245
  74.5525360  54.0952492  48.1412621  74.2716675  54.5269585  47.3344345
  73.7433548  53.7611656  48.5283508  55.2226067  26.2596188  15.5722618
  55.2087479  27.2092628  15.6914930  55.8419456  26.1171112  14.8564796
  12.5965786  60.6165466  42.9664040  12.0517406  60.0331535  42.4381638
  12.6144361  60.2088509  43.8322563  68.8059158  14.6213522  53.9208794
  68.3147354  13.9242134  53.4861717  68.6906738  14.4487305  54.8553085
  82.5349503  45.0533752  63.8777237  83.2094650  44.5029068  63.4799194
  82.9714508  45.4662132  64.6228867   2.7037649  70.3104324  22.9650555
   3.5270064  70.3453751  23.4521751   2.4241126  71.2236710  22.9015312
  22.9106140  65.5792618  24.0615978  23.6843739  65.3249893  23.5587330
  22.6947289  64.8027420  24.5779667  65.6368332  37.8590851  27.7006836
  65.6883850  38.4164085  28.4771919  66.0079041  37.0225258  27.9812279
  64.5451050  60.3327026  54.3963089  65.3250580  59.7913475  54.2745056
  64.4859161  60.8514252  53.5940285   1.1661181  65.1544495  13.4894743
   1.3638979  64.5549774  14.2090244   0.3786990  64.7909317  13.0844374
  44.0489388  68.3367157   8.3562374  43.6566353  68.8126984   9.0881996
  43.5609283  67.5142288   8.3163157  13.0915203   4.6605349  80.4147949
  13.9482098   4.2872696  80.2074585  12.5656919   3.9117358  80.6959305
  34.3099480  31.1540260  79.2521896  34.3148766  31.7826157  79.9740448
  34.8377800  30.4211292  79.5691833  27.8446369  61.8493156  81.0960770
  28.5124397  62.5233345  81.2224503  28.3408222  61.0534439  80.9047241
  75.9421616  44.3548088  23.0297470  76.5184708  44.9037170  23.5615330
  75.2360916  44.1021500  23.6246109  24.4224415  69.8007126   4.8553200
  24.9472218  69.0884933   4.4898334  25.0272045  70.5407257   4.9088702
  49.8623619  36.6126022  75.3211975  50.2897530  37.3603401  74.9035187
  49.5295563  36.0890465  74.5922546  69.5910950  14.3038483   7.5135860
  69.6607819  14.4875727   8.4504004  68.6525421  14.3461695   7.3303785
  27.3575859  19.6916122  16.8849258  27.0597839  18.8213539  17.1498737
  27.1484375  19.7426720  15.9522505  75.9364548  12.5221844  14.0180235
  75.7109451  11.6091251  14.1960745  76.3343201  12.8335524  14.8310347
  63.5320168  68.9459839  35.7311630  64.3141479  69.4829407  35.6039467
  63.5373383  68.7323227  36.6641960  48.8981552  50.6138649  28.1811562
  49.5822449  50.6208420  28.8506355  48.2450523  51.2370033  28.4995747
  77.9688797  16.8874950  61.2536583  78.0084686  17.1994915  60.3495979
  77.3515396  16.1564293  61.2279205  10.1098852  44.0195923  69.0684052
  10.0362577  44.9603157  69.2291870  10.5321636  43.9553452  68.2117920
  41.9531898  28.6797714  82.3141479  42.0123787  28.1324272  81.5311127
  42.6062508  29.3659477  82.1766586  12.6629314  47.2305641  56.7038994
  12.0075140  46.9430695  57.3395119  12.1532288  47.6235123  55.9953575
  84.7031021  35.9031143  26.6434803  84.1597519  35.4022446  27.2518616
  85.3286209  35.2651291  26.3000641  43.0849686  48.4387627  85.2307816
  42.1446686  48.5574379  85.3648911  43.1701889  48.2345772  84.2995071
  69.5075684  66.6452789   8.0719252  68.8814087  67.1063995   7.5137835
  69.8433456  65.9378128   7.5214925  52.3648262  56.1811371  10.4199305
  53.0893974  56.6512718  10.8324871  52.4142532  56.4277573   9.4963684
  61.9262238  30.0178146  27.6087742  61.7553749  29.2878990  28.2039757
  61.8023148  30.7996922  28.1468678  20.2408066  70.8837891  87.6839828
  19.4511967  70.4072495  87.9402237  20.9071407  70.2045898  87.5794678
  28.4908867  24.5971756  72.8875580  27.8141003  24.1395741  73.3863449
  28.0919018  25.4358807  72.6560059  16.0956326  63.2688255  73.5856857
  16.4837952  64.1278992  73.4197006  15.1514692  63.4202156  73.5424652
  74.9397888  57.1992989  39.8481560  74.1625443  57.7570877  39.8165703
  75.6684189  57.8099060  39.9599113  36.8028908  17.4129009   4.2322249
  37.0603371  18.0671215   4.8818002  37.2698441  17.6685658   3.4367244
  11.4716654  17.6834717   1.3054721  11.7309160  18.5387974   0.9627770
  10.5204515  17.7400723   1.3961387  56.7093163  24.8229885  60.2096710
  56.8320045  24.6141453  59.2836227  56.9034004  25.7582283  60.2720337
  31.4426212  22.9530697  85.8900528  32.2290497  22.6880264  85.4130783
  31.0207043  23.5946426  85.3185654  55.2212410  39.5868073  88.7364349
  55.5336494  39.2333031  89.5692978  56.0016174  39.6216316  88.1832275
  32.3784218  26.8184910  81.9350510  32.8722229  27.6115265  81.7265167
  32.9220352  26.3592377  82.5752106  48.8114777  57.3153267  24.6880341
  48.1119385  57.1182137  25.3109512  48.7732658  58.2653770  24.5777035
  45.3497086  36.1691818  71.6701736  44.9023285  35.6644669  70.9909515
  45.2336464  35.6528931  72.4677963  18.2069969  59.2052002   6.8176866
  17.4394054  59.1161690   7.3825831  17.8476200  59.2605743   5.9322410
   5.1928825  18.4985466   0.5391093   5.2905321  18.3928814   1.4854344
   6.0248437  18.8757439   0.2531137  23.8946705  50.6444283   0.5814226
  24.1672764  51.2268677   1.2904228  23.1574078  51.0959740   0.1705924
  18.4740410  34.0209541  78.2072296  19.2090588  33.4098511  78.1569061
  18.8800716  34.8871574  78.1746674  71.0778809  35.4504280  39.8560715
  70.1208954  35.4620705  39.8393517  71.3292084  35.1588287  38.9796944
  46.4426613  54.9343681  20.0555782  46.0328789  55.5334053  20.6796474
  46.5070381  54.1040688  20.5274792  46.7293625  27.7616215  77.8906937
  47.4052582  28.0075455  77.2590942  46.0804672  27.2844791  77.3734894
  57.5359459  53.1713257  34.4298744  57.9313278  53.6099129  33.6765175
  57.0775566  53.8682518  34.8993492   4.0299582  20.2065048  21.0811234
   4.8143144  20.2025661  20.5324860   3.3119104  20.0284576  20.4737206
  58.9658890  61.3174934  20.5695553  59.6517601  60.7632942  20.9419498
  58.3890457  61.5133858  21.3078690  50.7180252  51.1492310  51.4328613
  50.2674294  50.5739822  52.0511551  50.7670364  50.6398926  50.6239090
  20.1554985   0.3854655  29.2077885  19.8249950   0.5725946  28.3291626
  20.6240654   1.1805471  29.4617996  85.5876694  10.4172287  29.7254353
  86.0454865   9.7899189  30.2850037  84.7080002  10.0529013  29.6270065
  58.0498390  14.7081041  45.1301880  58.6436577  14.8079576  44.3861198
  58.2780609  15.4289255  45.7171822  53.2759628  37.0229225  62.7848816
  52.5037575  37.2356644  62.2607918  53.3750648  36.0754395  62.6917076
  53.3563004  32.5350533  26.8028717  54.2232437  32.6483040  27.1925068
  52.9879837  33.4181824  26.7772961  15.3599520  30.5685253   1.7854904
  15.8609562  29.8315716   1.4360242  14.6544580  30.1615391   2.2883554
  68.7397308  33.8691063  53.7330017  68.7974548  33.2819786  54.4867821
  69.6096420  34.2633438  53.6693115   4.2159386   7.9570389  82.0203171
   4.8654752   7.3799710  81.6186600   4.6928968   8.4048529  82.7190323
  18.2607822  24.7820034  20.2349129  17.6786900  25.5037899  20.4724483
  18.9957829  24.8568306  20.8435211  41.6850357   1.3815025  24.8518581
  41.7536583   1.8077788  23.9975681  40.7522583   1.1903154  24.9498940
   2.9577029  57.7349510   2.3747714   2.3402050  58.4663353   2.3722653
   2.4999900  57.0334587   1.9114761  40.4364891  62.3603783  34.2827339
  39.9250755  62.6913910  35.0210571  41.3405304  62.3629417  34.5972710
  52.4861107  70.3840332  73.1669693  53.2046585  71.0162354  73.1517029
  52.8624191  69.5847855  72.7984238  71.5260010  56.9268341  39.6103897
  72.0201263  56.1127510  39.5137253  70.6878433  56.6552849  39.9845352
   2.5327125  62.6695251  36.1065102   3.4561498  62.7336540  35.8628235
   2.5016899  61.9538689  36.7414169  34.4176445  49.9679184  16.8348160
  34.7343979  49.6072235  16.0066891  35.2066078  50.2816467  17.2767868
  49.8613586  17.4387951  68.2195053  49.6892662  17.3996067  69.1602936
  49.1480293  16.9374695  67.8244476   8.7280216   1.9708973   2.2282977
   8.4720345   2.7977774   2.6369200   9.5255251   1.7122793   2.6901815
  11.1068325  29.3562546  12.9492264  11.0578547  28.4112186  13.0932455
  11.4684296  29.7043209  13.7642908  37.4476089  65.8149872  87.5030746
  37.1947098  64.9919281  87.9212189  36.6577988  66.1040268  87.0460358
   4.1258473  56.7278023  19.2157173   3.8427944  55.8924065  19.5875034
   3.4181855  57.3364334  19.4278870  50.8389511  65.2582016  84.5372467
  51.3504906  65.2674408  83.7282486  49.9432335  65.4453964  84.2564011
  16.1343479  14.8005991  15.7340221  16.3589516  15.1302147  16.6041584
  15.2098732  15.0234079  15.6247740  51.6786728   6.2349005  75.5902557
  51.4184494   6.1048522  74.6783295  50.9576111   5.8655992  76.1000824
  54.7505150  44.8171234  68.3825073  55.1516266  44.0213814  68.7319794
  55.2186432  45.5312080  68.8151398  46.7070503  45.8824730  47.6472130
  45.8537102  46.3118095  47.7081375  46.7106018  45.2531929  48.3684769
   7.1120114  30.2412376  36.4826469   7.4054217  30.4158878  35.5884209
   6.4418864  30.9042702  36.6486397  20.2165585  63.9273338  50.0943871
  20.3717461  63.4903183  49.2570305  20.3838310  63.2519035  50.7516899
  64.0802841  14.7980270  39.1284485  64.0152359  15.1620455  40.0113373
  64.9665909  15.0195284  38.8427467  64.8316040  59.3479347  83.6844025
  64.1255035  59.0789413  83.0967789  65.5088882  58.6820641  83.5655212
  84.4883957  39.1347771  35.6370583  83.5814896  38.8590622  35.5038795
  84.9649811  38.3205605  35.7987556  80.8845749  58.0506859  64.5640564
  80.5914536  58.6283684  63.8593636  81.1127853  57.2321396  64.1234589
   5.8845253  41.9735794  10.3996744   6.7387109  41.5578880  10.5171394
   6.0277767  42.8881989  10.6429510  84.3065643  14.0355110  86.2225418
  85.0996399  14.0308285  86.7584915  84.1087036  14.9634047  86.0956726
  33.0317688  21.6739178  84.0755386  33.8823700  21.6206093  83.6398010
  32.8834915  20.7932320  84.4199753  77.3578186  43.5050468   2.1405618
  76.6940155  42.8183174   2.0773118  76.8638153  44.3223610   2.0758073
   5.9844489  63.7634506   7.3193555   5.4379573  64.1615601   7.9969177
   6.4436960  63.0537415   7.7683964  70.8731689   4.6738901  59.4894333
  70.4208679   5.4297972  59.1149254  70.5204926   4.5988708  60.3761253
  71.9876785  24.2530098  65.1044769  71.9158859  24.5157280  66.0221100
  72.6696625  24.8206749  64.7454758  64.7348633  64.2942047  48.4645348
  65.2455750  64.3343887  47.6559639  63.8947487  63.9202347  48.1988487
  33.4079475  48.7095413  61.8480644  34.2854843  48.5924721  62.2120094
  33.3527946  49.6448097  61.6519585  81.2658539  14.9847794  60.2943611
  80.3811417  14.8323374  60.6264496  81.6525269  14.1112986  60.2331810
  79.2616348  21.0420589  27.7852993  78.5793610  20.5601406  27.3178635
  79.5520401  20.4411278  28.4714317  31.2439880  47.4395905   2.0002112
  30.9194622  46.5608215   2.1968904  30.7320423  48.0164261   2.5671377
   4.2659249  18.7399521  31.3505421   4.3120790  19.3008804  32.1247902
   4.6944184  17.9268627  31.6179581  12.4454041  58.6978645  69.2081833
  13.3839741  58.6800194  69.3952637  12.1131220  59.4352684  69.7200928
  23.6505642  34.7909584  76.2511139  22.8845520  34.3933907  75.8371124
  23.6984158  34.3777122  77.1131897  58.2307472  29.7799549  42.3268280
  57.4179840  29.4002285  41.9929810  58.9177589  29.1964436  42.0046997
  26.7870083  10.1341381   9.0594969  26.2105293   9.5330229   9.5312643
  27.5580063  10.2166071   9.6207409   8.1147480   0.1646556  79.2649994
   7.6951056   0.6800523  78.5761642   7.5109096   0.2182344  80.0057755
  14.2778921  16.0442963  81.9688797  13.4212952  15.6879616  82.2044678
  14.5867281  15.4778042  81.2618179  75.5626068  24.9913654  24.2865486
  75.4509659  25.2945976  23.3855400  74.9265060  25.4988480  24.7906075
  77.0924606  56.8249512  23.4193668  77.1255341  57.1025620  22.5039043
  76.1589813  56.7235870  23.6053314  36.6419983   3.1353045  33.4034042
  36.0020332   3.7904842  33.1251717  37.4611206   3.6227269  33.4911003
  85.5582047  39.6759796  48.3973122  86.1964645  40.1350403  48.9433212
  84.8976974  40.3379478  48.1929703  66.8286133  37.4610786   2.2786474
  66.1046753  37.3707237   2.8983114  66.7047729  38.3271408   1.8902773
  14.2966948  45.6568985  87.8320389  15.2533808  45.6563950  87.8006516
  14.0326338  46.1857033  87.0791321  28.7584572  59.8443794   5.8545222
  28.4478264  60.7403603   5.9847269  29.6780128  59.9431648   5.6077619
  32.0310936  51.0518379  16.1373997  31.4128933  50.4674263  15.6986237
  32.8357658  50.5385246  16.2098656   5.1846466  30.0822411   1.0841740
   4.3188686  30.2010994   1.4747279   5.7154789  29.7085934   1.7876201
  40.4639778   9.0201263   0.6604235  40.0648308   9.5485106  -0.0307526
  41.1934204   8.5741959   0.2299725   9.9407415  28.5005836  83.1146698
  10.1553221  29.1227646  82.4196320   8.9941578  28.5857410  83.2285156
  14.3690395  43.0064087   7.1905766  13.4157248  43.0795212   7.1450081
  14.5698872  42.1968689   6.7209587  47.4872627  15.4358273  16.5079346
  48.0007553  15.4748211  17.3148060  46.8564339  16.1509724  16.5906963
  17.2630825  16.0238876   9.0288534  17.0693932  15.4221268   9.7476034
  17.4360466  16.8618145   9.4580317  74.3495560  45.0945168  67.4530258
  74.0362167  44.2223701  67.6926270  75.2961349  44.9906349  67.3559265
  66.7650223  62.8606071   3.8681891  67.1124573  63.7389107   4.0234537
  66.7810669  62.7615128   2.9162676  74.8174896  38.2861099  33.2770615
  74.3172836  39.0967941  33.1831779  74.2171631  37.5993042  32.9869919
  68.8341141  22.2586002  88.1397629  68.4799576  21.3699722  88.1736069
  68.2631302  22.7207870  87.5260925  27.1131954  39.0214500  13.2702131
  28.0511742  39.1703911  13.1508722  27.0610695  38.1946068  13.7496376
  75.1937027  68.8176346  60.4498138  75.4577484  69.7363510  60.4001007
  74.4137802  68.7623672  59.8976326  75.5874100  67.1322632  62.7894859
  75.7057419  67.5543137  61.9385452  76.4637833  66.8339081  63.0327950
  59.0759277  52.4126320  72.1021118  58.3806190  52.8827324  71.6419067
  59.7543449  53.0718079  72.2486343  85.9131699   7.7053013  10.5675592
  85.6225357   7.1910834   9.8143387  85.1052094   7.9368629  11.0256081
  61.5694962  53.4617462   6.1061292  61.0574570  54.0142326   6.6967292
  61.2288322  53.6628304   5.2344947  66.6283340  36.4250908  12.1045046
  66.8368530  36.5406380  11.1774673  65.6781693  36.3108292  12.1238422
  24.7747288  52.4257431  60.1085052  25.0818768  51.7303429  60.6901474
  25.4179459  53.1268806  60.2129478  27.6660061  42.9494667  83.8818970
  28.3316536  42.2908974  83.6833191  28.0599766  43.7780647  83.6090469
  52.0565948   9.0691566   8.3409472  51.1371498   9.2996016   8.4741869
  52.4684181   9.2261333   9.1906471   3.4148643  31.1401920   6.3673177
   4.0261598  31.3021812   5.6487713   2.9560182  30.3388138   6.1153579
  71.5759888  34.8086853  37.2736702  71.5778198  34.0905266  36.6408348
  71.3368073  35.5800667  36.7598686  75.1857910  58.6827011  59.4027519
  75.7108994  59.4024506  59.7526894  74.2813950  58.9307823  59.5944748
  62.6495819  12.8974419  14.2069674  62.3029327  13.7631330  13.9909887
  63.4642181  12.8344154  13.7083387   3.7204325  22.9636459  27.4445057
   2.8873522  23.3494282  27.1736164   3.4729095  22.1848431  27.9429340
  80.1996536  54.4682655  18.1783905  80.6106110  54.4319267  17.3146629
  80.8674698  54.8540344  18.7453384  40.6695633  47.7826576  11.0624628
  40.7036095  46.8404236  11.2275867  39.9284325  47.8948708  10.4671764
  78.7999725   7.9093685  87.5225067  78.0362091   8.4827280  87.5870209
  78.7783432   7.3902526  88.3264236  84.0420380  45.4985657  85.0009613
  84.0331650  46.1432228  85.7084732  83.5268784  45.9023514  84.3025436
  44.2578468  20.9874554  77.3553925  43.4561348  20.4786701  77.2344284
  44.4315414  20.9408455  78.2955399   7.1866026  52.6022949  79.6389465
   6.5094099  52.0361481  79.2686462   6.8140779  53.4828377  79.5930786
  43.2460556  28.6800728  20.6376381  43.9092865  28.0516033  20.9229164
  42.8177872  28.9601135  21.4465847  25.5689697  62.5252037  64.5083771
  25.4039211  63.1648064  65.2011261  24.9128494  61.8429985  64.6509781
  79.8713989  50.8486938  13.9075413  80.8281860  50.8761330  13.9008837
  79.6236572  51.3244972  14.7003012  12.4283428  15.0624361  13.0403070
  13.2979784  15.4611769  13.0714760  11.9365196  15.6080885  12.4266253
  60.0702896   8.4482641  44.6863785  59.8314247   9.3064976  45.0365372
  59.8171654   8.4869852  43.7640648  32.0451584  48.5217056  22.9117031
  31.5015335  48.0044975  23.5060081  32.6544762  48.9849663  23.4864655
  82.6187363  38.4109535  73.6771927  81.8972092  38.4341698  73.0486298
  83.3463974  38.8350143  73.2223129  34.9679298  41.5524902  86.7197800
  35.8938599  41.7803841  86.8031311  34.6982193  41.3175888  87.6076508
  34.7276001  42.8371239  52.2378883  34.6437035  42.8761520  53.1906052
  33.8626938  42.5636597  51.9322853  66.8615341  39.6044884   0.3684355
  66.0904694  40.1126671   0.1165645  66.9101944  38.9044876  -0.2826138
  66.5959320  15.4483643  70.9456253  66.3913193  15.0102348  71.7717056
  66.7020950  16.3695736  71.1829758  28.0980186  42.1908493  58.8219376
  28.5088558  41.4575272  59.2798462  28.7587280  42.8832817  58.8373833
  51.3046303  50.3294182   6.4840307  51.3361511  49.6787376   5.7827091
  52.0328522  50.9210930   6.2947087  12.1153030  52.9469643  44.2963257
  12.4747925  53.8277512  44.1904449  11.1769924  53.0506096  44.1380119
  52.9135895  59.8105392  55.9027214  52.7411995  60.6160736  55.4152527
  53.3243294  59.2274933  55.2643013  85.4174805  16.2889538  68.6467667
  84.8129044  17.0199223  68.7748489  86.1659546  16.6742020  68.1911240
  72.3182678  63.1626663  54.0642319  72.6206589  64.0236053  54.3533249
  71.5441055  62.9885330  54.5995598  42.3038216  29.3816624  22.9999256
  42.3351440  28.8579273  23.8005199  42.3277359  30.2883682  23.3057785
  74.3905640  66.2968826  73.3387222  74.8197021  66.7173080  74.0839157
  75.1111221  65.9608765  72.8056946  70.2052765  57.3035049   2.1940279
  70.7788010  57.0701218   1.4640766  69.8396912  58.1535530   1.9490814
  35.1355057  58.5785713  65.7781830  34.9185982  58.8948097  66.6552124
  36.0855103  58.4624557  65.7936020  85.8102112  22.1353035  14.4371681
  86.2597885  22.8873215  14.8226290  84.9645081  22.1066837  14.8846064
  11.7655201  62.0651512  22.4059410  11.6177521  62.2701492  23.3291817
  11.5468826  61.1364517  22.3288364  34.4386482  20.0262241  71.8128662
  35.1685104  20.6419373  71.8794327  33.6622543  20.5540104  71.9996414
  39.2299347   9.5842228  12.9656191  38.8516426   8.7120914  12.8537540
  40.1734085   9.4492369  12.8769217  28.0118008  26.2655430  85.3814392
  27.6989822  26.9795017  85.9369888  28.8769588  26.0517025  85.7307281
  61.0058289   1.7347171   6.9015751  61.3975258   2.5132625   6.5057549
  61.1061783   1.0523245   6.2378712  54.8468590   6.6578450  65.7967911
  55.7303810   6.5985703  65.4333267  54.7182198   7.5917664  65.9625473
  57.2395973  12.7937546  69.6303711  57.7712059  12.0904007  69.2576599
  56.7242432  12.3673573  70.3150864  64.6647797  70.1255112  83.5419235
  64.1499557  69.6584702  82.8838501  65.4460831  70.4171600  83.0720901
   5.2096944  66.2131500  33.1297112   5.9134045  66.2607269  33.7768288
   5.5868502  66.5951614  32.3372078   5.3999300   2.6633039  70.8835907
   6.3017831   2.9518869  70.7435455   5.2978673   2.6496413  71.8352356
  80.1482468  57.7499657  13.1637411  80.9551544  57.4383965  13.5736952
  80.3881149  58.5887566  12.7698774  65.6409073  13.7702332  73.0054779
  64.8767014  13.2974138  73.3351212  66.3853226  13.2170963  73.2423859
  59.5805130  23.4151840  17.9035416  59.9738541  22.5542183  17.7612343
  58.9621696  23.5185261  17.1802120   3.1437154   2.0122254  12.1235151
   3.4412611   1.6667569  12.9651508   3.0578432   2.9545138  12.2682590
  58.7368622  16.6055050  88.9070435  57.9413109  17.0037670  89.2601929
  58.4227600  15.9886026  88.2459793  54.3749580  58.0313148  25.5264187
  55.2587242  57.9317627  25.8803673  54.4223404  57.6452637  24.6518040
  77.8259964   7.9374094  71.7172775  76.9401932   8.2962360  71.7705460
  78.3715744   8.6826391  71.4658737  83.4528656  13.6657391  57.4889259
  83.8103714  14.2050390  58.1943207  82.7410965  14.1909132  57.1231346
  17.1437378  41.9237022  34.2268829  17.6571312  41.1241875  34.1109810
  16.9056911  42.1864853  33.3377762  21.0198689   0.3085906  67.9199219
  20.9376373   1.1668259  68.3357315  21.0708351  -0.3076620  68.6505814
  39.7419167   9.2153893  48.3801880  39.5170670   8.8048372  47.5452499
  40.0247574   8.4890461  48.9357567  35.4346924  67.2980881  75.8721466
  34.9879913  67.8604355  75.2393341  35.3969040  67.7860641  76.6947556
  43.5608597  47.3656158  73.5431824  44.4232712  47.7169609  73.7646103
  43.4747391  46.5821648  74.0863342  10.4277344  58.3665428  33.1679535
  11.0591145  58.0645561  32.5149651   9.6453886  57.8391991  33.0064735
  70.9404755  16.1907730  32.8345718  71.2056961  15.6323872  32.1037560
  71.3451385  15.7880201  33.6028633   0.4925565  17.6646137  51.5905914
   1.1560277  18.1382484  51.0888863   0.9492044  16.8910160  51.9211235
   5.2032580  15.2023096  53.4217148   4.6099048  15.8824387  53.7404480
   5.1167536  15.2362165  52.4690361  60.3445549   4.6829267  53.1728745
  59.9019623   4.9196668  52.3578300  61.0114441   4.0494180  52.9080086
  70.7958679  66.3672791  23.5575829  69.9762802  66.6369781  23.9720345
  71.2542419  65.8696518  24.2347012   5.4772029  51.8830986  77.6373062
   5.4267697  52.5097313  76.9154892   4.5670381  51.7475891  77.9008789
  45.0415077  16.6956615  84.6193237  44.8384895  15.7850294  84.8332596
  44.2404251  17.1754589  84.8297882  16.9965858   0.7802792  28.0059490
  17.4464359   0.6015816  28.8317432  16.4407024   1.5363107  28.1947422
  13.8666792   7.6331954  55.2770538  13.7701073   8.1768446  56.0589447
  14.8020897   7.4339242  55.2379303  64.5772629  59.4342880  13.8063297
  65.5327682  59.4702835  13.7622976  64.2936935  60.3212624  13.5847569
  42.0927429  40.2665024  65.9218140  42.6877594  40.7322006  66.5094528
  41.8442574  39.4796143  66.4068832  32.9200554  53.5361824  87.8988495
  32.2825851  53.5046806  87.1855011  33.7033958  53.9185219  87.5033340
  83.6330566  18.6583862  68.7997131  83.1800690  18.9462681  68.0071487
  82.9343643  18.5273743  69.4407272  59.4232254  20.9958801  74.0372543
  59.6897049  20.3920689  74.7305298  58.8715096  21.6406097  74.4801636
  16.6720791  20.1057377  22.9456730  16.1828060  20.7990036  22.5027008
  16.0004482  19.5736313  23.3722954  60.2103462  26.3375549  69.6004715
  61.0711479  26.3645535  70.0182343  60.3427734  26.7594852  68.7515488
  21.7670803  66.6068573  35.5440407  21.8972607  66.0190887  34.7998543
  20.8838997  66.4077911  35.8548393  82.7519455  35.7433319  60.7108116
  83.2887497  35.6764908  59.9211235  82.2051010  34.9578590  60.6958847
  77.1741791  38.1947212  46.9845238  77.3577652  37.5696526  46.2832298
  76.9586792  39.0087776  46.5294418  25.8853760  12.7844496  16.3866405
  24.9963493  12.7606268  16.0326729  25.7730370  12.6400537  17.3261948
   4.0677524  29.2634907  76.3366699   4.9070411  29.6739254  76.5449219
   3.6863105  29.0525150  77.1888580  59.2996407  37.7083893  19.1927128
  58.7011871  36.9844589  19.0083027  58.7701225  38.3382568  19.6817055
  77.3018799  63.0435677  70.1029510  76.7898178  62.3142242  69.7535629
  77.4896851  62.7927704  71.0074234  83.4574966  35.4923477  82.0180893
  83.0405502  36.2784538  81.6653442  82.7460861  34.8560867  82.0909576
  34.9432182  63.3136635  62.7730751  34.9995232  63.0552597  63.6930122
  34.0203896  63.1965599  62.5474510  35.4396896  44.5437317  48.2517395
  35.4887199  45.4971085  48.1817589  34.5468559  44.3711090  48.5505371
  68.3513336  13.7795238  19.6868610  67.4805908  14.0612640  19.9673481
  68.9541168  14.3086529  20.2092667   9.1745510  58.4202766  28.7017536
   8.6003809  58.5063057  29.4627781   8.8833265  59.1079979  28.1030388
  37.5461540  65.1349487  13.4323454  37.8762817  66.0322800  13.4775343
  37.5623894  64.9204559  12.4996281  78.7587738  37.4623108  74.2063293
  78.8471375  38.4085960  74.3201981  78.3189011  37.3627129  73.3620377
  27.6627140   5.8301482  42.1883774  28.4499435   6.0498638  42.6866035
  27.9108372   5.9699430  41.2745247  58.7509766  65.1378632  30.0174103
  58.8600693  66.0779343  30.1609211  57.9204865  64.9253464  30.4432697
  66.7008133  34.6959152  47.2480087  66.0242538  35.2173729  47.6799583
  67.0251312  34.1103058  47.9321976  24.0152206  31.7822151  74.3917923
  23.5043221  31.1437664  73.8942032  23.3641796  32.3928375  74.7375107
  34.6168671  44.7813416   1.9449720  35.1258545  45.1655464   2.6588016
  33.8106003  44.4777527   2.3621008  62.8626366  42.6223564  44.4987297
  62.9919739  41.7419968  44.8515320  62.8201027  42.4966354  43.5507736
  82.5132217  58.8483887  88.4570999  82.4757919  59.8047562  88.4709473
  83.3684616  58.6476402  88.0769806  44.2631721  54.8207512  25.0144978
  44.6956673  54.6878014  25.8580036  43.7729759  54.0120125  24.8665733
  60.6606102   8.8618422  75.9013443  60.0317001   8.9936466  76.6108093
  60.2667732   8.1812582  75.3555145  43.2435608  50.9510612  36.3635445
  43.6593933  50.9541893  35.5013924  43.9676323  50.8324394  36.9782639
  25.6560917  66.2428284  84.6640167  26.1227036  66.9230652  84.1784363
  25.1117973  65.8097534  84.0064316  30.3041191  11.0792084   5.6252003
  29.6010303  10.4809828   5.8782282  31.0342693  10.5057659   5.3922315
   9.9130888  26.9642067  68.4993744   9.2820072  26.7075863  69.1717682
  10.5045557  26.2150402  68.4276199  65.3770752  42.6154938  68.9212723
  65.5078201  43.2346039  68.2030563  64.6268616  42.9630966  69.4035492
   9.1194592  61.2714996  39.7472496   8.8007278  60.5165443  39.2525940
   8.3276167  61.6812859  40.0955200   6.2636700  48.8986664  64.8808517
   6.4954519  48.7078171  65.7897491   7.0396686  49.3282051  64.5209122
  69.7578735  25.8641491  44.0226479  69.2985687  25.5132351  43.2596703
  69.4360580  26.7619591  44.1039276  25.0425663  68.0674591   8.4606562
  25.1910839  67.1637115   8.1824331  25.8548851  68.3194199   8.8998461
  51.7967415  15.2022333   9.6177740  51.0216751  14.7096691   9.3478107
  51.6471214  16.0864868   9.2831964  49.8482552  41.5724182  19.7364941
  50.5093994  41.7910461  19.0797424  50.3282318  41.0862007  20.4069042
   6.5340047   0.2789321  38.7565269   7.1387935  -0.3538720  39.1438560
   5.7556691   0.2374248  39.3121376  80.9637299  36.0830841  73.9460602
  81.4192276  36.9163437  73.8259201  80.0704575  36.3306732  74.1848068
  63.1931801   0.9738896  84.0863342  63.6569786   0.1367102  84.1022491
  63.7888832   1.5691113  83.6312790  22.3005867  17.0452671  85.0245361
  21.9102287  16.2389088  85.3616409  21.5651035  17.6528416  84.9461060
   9.1246901  39.7521973  54.1568336   8.2948160  39.6086998  54.6117516
   9.6875820  39.0374031  54.4542465  15.2309599  58.0362587  54.0061340
  15.4165945  58.3021660  53.1055412  14.7751980  57.1989899  53.9195480
  16.5911655  47.5701065  84.9772263  16.7666416  46.8296814  84.3965302
  16.5504303  48.3277550  84.3936691  11.7510614  15.8573132  81.2008972
  11.5589476  16.6385365  80.6822357  11.2593079  15.1575537  80.7710800
  61.4834824  32.7847443  35.8617973  62.1210594  32.7619934  35.1482086
  61.7898407  33.4879646  36.4343834  21.3154297  46.7029037  81.0522232
  20.8978348  47.1886864  81.7634659  21.2819347  45.7888870  81.3345032
  18.3622742  69.8411636  54.3045044  18.8764153  69.1888580  54.7803001
  18.9218998  70.6174088  54.2821465   3.9770870  11.2392273  48.6582260
   4.5375810  10.6128645  48.2002449   3.3262901  10.6969862  49.1039505
   8.0376835  11.3036613  15.4082727   8.6452751  12.0364161  15.5089436
   8.4078693  10.7816267  14.6964617  56.8567047  60.1736679  84.1663589
  56.0336952  59.7472954  83.9274139  57.2911949  59.5479012  84.7459030
  14.5231724  12.7568111   9.1043043  15.4594774  12.7822084   8.9070215
  14.4513550  13.1463604   9.9756975  35.9234238  65.8876038  79.9536667
  36.5044174  65.7883453  79.1994629  36.5097237  65.8802948  80.7102585
  29.2427711   2.0048175  41.7041626  29.3458080   1.5722810  42.5518227
  29.9364052   1.6327139  41.1595116  25.9801502   3.0113547  78.4637451
  26.4659805   2.8583035  77.6533279  26.3584728   2.3941712  79.0899963
  51.8535080  18.1557484  10.8014965  51.4004402  18.1477566   9.9583502
  52.0594940  19.0780010  10.9539776  66.9385910  39.5156631  41.2182693
  66.8777924  40.1545067  40.5080452  67.3121719  40.0062599  41.9503784
  34.3055267  16.0866089   7.2055712  33.6072769  16.6463280   6.8658724
  35.0568771  16.6719913   7.3005981  59.7821693  13.1458006  50.4848709
  60.1853104  13.7200956  49.8337975  60.3864746  12.4072609  50.5597343
  41.0509872  37.4364624  79.5143433  40.7476082  38.3310432  79.3596954
  41.6731224  37.2688026  78.8064804  26.8996506  64.5677185  20.1950722
  27.1357708  65.2866592  19.6088943  27.6724796  64.0030289  20.2049103
  82.1507797  42.7637024  35.2395058  82.4058456  42.4768524  34.3626442
  82.8475342  42.4389763  35.8098679  70.5872955  14.7648239  51.6210938
  70.2366714  15.6527061  51.6915398  70.3854370  14.4980602  50.7242546
   5.5249748  10.3120642  77.8466263   5.9754949   9.6563234  78.3788605
   6.2165570  10.7040930  77.3134689  77.9149323  54.5607033  54.6845589
  77.1072006  55.0584412  54.8113136  78.2885895  54.4829216  55.5623741
  71.3486328  60.7251854  28.3712482  71.2479324  60.8518181  27.4278202
  70.9506912  61.5035210  28.7612076  50.6315460  42.9719963  39.6749763
  50.5116158  42.3787498  38.9334183  51.5684586  42.9297638  39.8664017
  41.0867691  52.7129059  64.8431244  41.8528595  52.3095779  65.2513733
  40.4710121  52.8419533  65.5645294  84.6054840  23.6484013  85.2192612
  84.0839233  23.0804024  85.7863464  84.3719940  23.3794041  84.3308029
  82.7668915  54.2153320  24.6218224  81.9754715  54.7458153  24.7139111
  82.4490662  53.3583679  24.3375015  12.4731197  61.1638412  64.7658081
  12.3003235  60.6196022  65.5340347  13.2432098  60.7665710  64.3591537
  25.7547970  61.4061470  56.3592720  25.3053188  60.5725288  56.2204018
  26.4759007  61.1936455  56.9517975  52.8649940  68.0238953  50.2721863
  52.8429794  67.4579926  51.0438690  51.9494400  68.2589111  50.1213264
  22.8529587  53.9194679  29.9981251  23.5694389  53.6147346  29.4413261
  23.2528229  54.5814934  30.5620918  33.4894562  48.6180649   1.2069507
  33.9447060  48.0351562   0.5993348  32.7313652  48.1129456   1.5008538
  33.1025581  69.0529709  57.2642632  32.8649597  68.2126160  56.8723640
  33.3890724  69.5894699  56.5251350  77.5612488   7.5935192  82.5827255
  77.5801697   8.3722763  83.1389694  76.6312180   7.3853436  82.4936523
  75.7411575  42.2262611  11.9597301  75.6111908  42.1869431  12.9072504
  75.1982346  42.9609108  11.6737890  74.7036057  62.5485687   4.9789701
  74.6538773  63.4662285   4.7112846  73.8582535  62.1786766   4.7244267
  70.3569794  21.7131233  57.3582802  71.1622086  21.9414768  56.8938522
  70.6561584  21.2785320  58.1569405  62.0153465   1.6032799  64.9202194
  62.1541977   1.0681169  64.1388474  61.7851944   0.9739549  65.6037521
   2.7559206  66.3481216  67.1826324   2.0753658  65.6759796  67.1464539
   3.4488790  65.9588623  67.7160339  86.1819077   7.6334844  33.4081726
  86.8177643   7.5216980  32.7014694  86.6781082   7.4556456  34.2071648
  18.5454998  25.6108246  12.3651009  18.4219036  26.4469090  12.8144550
  19.2483807  25.1793976  12.8509598   9.6601715  66.6000214  54.5452652
  10.2298651  66.9202347  55.2446518  10.1036406  65.8192215  54.2137260
  66.7677155  29.8701725  46.0316849  66.9091949  30.0307217  46.9646568
  65.9106369  30.2555275  45.8496094  71.3150787  21.7280769  18.4938030
  71.3127289  22.5638638  18.9603729  71.8727341  21.8811512  17.7310276
  75.6416855  44.5778008  34.7651253  76.0701675  44.0102081  34.1244431
  75.7967682  44.1488724  35.6066742  38.1631432  46.2111015  16.2486382
  38.3417778  45.4612274  16.8161011  37.8367958  45.8242683  15.4361792
   2.0500097  10.8561354  69.5981674   2.3845780  10.3542461  70.3414078
   1.0984849  10.7748108  69.6631165  39.0270462  51.4364395  39.1839828
  39.9628029  51.4057388  38.9848518  38.5980148  51.2662010  38.3454247
  12.2430439  26.2081013  27.2247753  12.5566711  26.3407173  28.1193600
  12.8419962  25.5596485  26.8546429  22.3493595  17.5109291  88.0851898
  22.4814224  18.0202770  88.8847809  21.8486214  16.7459202  88.3684845
  71.2047119   9.8025579  44.3328667  71.6117554   9.3521175  45.0729027
  70.4782410  10.2910395  44.7199821  40.6300278  48.8785210  38.6671143
  40.1362305  48.0585442  38.6611710  40.3402061  49.3383598  37.8792152
  72.4945755  68.9464951  45.2554436  72.5809174  68.7833633  46.1946793
  72.0915604  69.8128815  45.1988831  61.6105957  10.7263336  11.9336185
  61.0533600  11.4438524  11.6321468  62.2872963  11.1531420  12.4591093
  37.6824608  70.6642456  14.8026972  36.9589424  71.2535553  15.0159216
  37.7211761  70.0557556  15.5405855  42.1385422  54.9556351  78.1195755
  41.7185783  54.8548241  77.2653503  41.4393845  55.2658081  78.6950836
  53.7758369  70.4677582  55.5480385  54.0364952  70.1423035  56.4096489
  53.0251770  71.0352020  55.7233887  80.8244934   2.4391654  73.4652557
  80.6843643   2.2926390  74.4007416  80.9124069   1.5605550  73.0957336
   9.6063328  66.8387680  19.9913387   9.8303766  66.7693710  19.0633202
   8.6909523  66.5628510  20.0380230  15.3638268  27.5026817   5.5680447
  16.2081871  27.0714779   5.6997681  15.1996794  27.4258194   4.6281619
   5.5187888  41.4576302  76.8571320   5.5108728  42.3603859  76.5390015
   4.6760206  41.3518105  77.2984695  66.9679794  62.7320137   1.2458754
  67.2452545  63.3264084   0.5487062  67.1036530  61.8568954   0.8825684
  72.0595474  61.4634857   4.3140707  71.1492157  61.7559853   4.2697511
  72.1240311  61.0074997   5.1532078  31.7835865  52.4830284   2.7059059
  32.4482880  51.8036919   2.5923042  31.6917801  52.5720444   3.6545258
  85.0047836  35.6380997  75.2943878  84.3419266  35.7582283  75.9744034
  85.7508545  36.1583862  75.5925827  43.8443260  49.1839867  56.1163292
  44.1136208  49.8523865  56.7463684  43.2442970  48.6213264  56.6058273
  38.4139977  69.1550598   3.0815308  38.3203697  68.2170105   3.2474551
  37.9480324  69.3003235   2.2581189  49.2445984   4.0013423  58.1786232
  49.5768242   3.3987119  58.8439751  49.9158554   3.9984355  57.4962463
  84.7358475  33.4679451  59.6701927  83.8558350  33.0936966  59.6284409
  84.7436752  33.9712944  60.4843216  42.3032761  62.6245766  73.2337112
  41.6003571  63.1335297  72.8298492  43.0740166  63.1887016  73.1708221
  41.6500854  68.4282532  88.3872757  41.5154877  69.1470337  87.7696381
  41.2120514  68.7156448  89.1883698  54.1430931  39.1956215  71.8825989
  53.7090912  39.9018478  72.3612595  54.6944542  38.7664108  72.5368195
  23.1790867  60.3445663  13.6085806  23.6064167  59.4880905  13.6168242
  22.2564507  60.1503181  13.4435329  56.8458290  51.8026237  14.0431347
  57.6716805  51.3219147  13.9872932  56.9560814  52.3813133  14.7975855
  29.3235302   4.6651206  23.2794819  28.5378437   5.2000136  23.1662674
  28.9943695   3.7698002  23.3587704  68.0981216  58.0686188  57.4293671
  68.4884338  58.6949234  58.0389824  67.7739792  57.3615570  57.9872437
  31.8158836  57.0940437  34.6331558  31.1404285  57.7379913  34.8460388
  32.6338272  57.5910072  34.6481972  74.6250610  27.0522823  42.1583557
  75.3871765  27.6287556  42.1027756  73.9059372  27.6299515  42.4140663
  32.9868317  53.5785866  59.5106430  32.0427742  53.5194244  59.3640594
  33.1100006  54.4253349  59.9396858  77.6605453  57.3323021  31.1875134
  77.2697144  58.1948128  31.3273582  78.0878525  57.1253624  32.0186653
  60.6858559  57.9259872  53.5715141  60.0911636  57.5423279  54.2160110
  61.3810616  57.2758560  53.4702644  73.0396881  38.2166023  35.7908287
  72.1688919  37.8445206  35.6511955  73.3458557  38.4455566  34.9132919
  62.9228439  -0.0457758  37.2821121  62.9478951   0.8334680  37.6596489
  63.7754021  -0.4235626  37.4981117  40.7821503  43.4266090  35.8670197
  41.6265869  43.6527863  36.2568893  40.3425255  42.9015312  36.5357895
  80.0730972  45.2793121  39.7543945  80.4258728  44.4261398  40.0071411
  80.3911057  45.8793564  40.4289665  54.6343803  33.2886658  81.3270264
  54.0655632  33.2370186  80.5589066  54.5407104  32.4361992  81.7521820
  60.2016068  68.6977386  43.6063004  59.7400932  69.0771103  42.8584290
  59.5054970  68.3773270  44.1798859  75.8606949   1.4294939  84.3198853
  75.2688141   2.0461886  84.7506943  75.2903900   0.7244564  84.0134430
  85.1999130  47.0075836  39.4819183  85.2091141  47.5980072  38.7285614
  85.0181808  47.5765305  40.2299194   8.0680313  28.8944435  21.4679184
   7.7353659  29.3160954  20.6755943   7.8696203  27.9659443  21.3464546
   4.7120709  47.4145470  71.2766418   5.5896235  47.2274857  70.9432602
   4.8617158  47.9320259  72.0678787  60.6197968  70.1308289  25.1270275
  61.3680305  70.2010345  25.7198601  60.9725685  69.7055206  24.3454285
  25.1880722  43.9945488  17.7810421  24.4330463  43.4224167  17.9182835
  25.6256542  44.0219078  18.6319256  38.3750648  67.6045227  12.7855921
  38.4452019  68.5562744  12.8596201  38.7174988  67.4061966  11.9140186
  12.8960705  47.7412262  65.3191757  13.6145525  47.2856026  65.7578354
  12.1281080  47.1950989  65.4871368  80.8685150  25.6647072  73.2003403
  80.4747849  26.5341129  73.1272507  80.3126526  25.1037979  72.6593933
  30.1123238   6.8829956   4.9987831  30.7462864   7.5971818   4.9334974
  29.9655571   6.6094956   4.0933061   6.2771468  69.3149872  56.1363335
   5.3770618  69.1713791  56.4286613   6.2970743  68.9696884  55.2438087
  75.3429871  51.7572365   7.7982240  74.8959503  50.9127350   7.7416320
  75.9141006  51.7778549   7.0303431  79.6776199  26.1876831  16.5154381
  79.1724167  25.5325546  16.0339737  79.3495178  26.1311150  17.4128685
  50.1042480  64.7127151  26.7219448  49.4598694  64.3833237  26.0954380
  50.0988426  64.0700684  27.4313164  17.3588428   0.3095417  12.8581285
  17.0609493  -0.5106196  13.2516098  16.6898689   0.5194107  12.2064676
  77.1409683  23.8616409  19.2098846  76.6312408  24.0162811  20.0051785
  77.6383133  24.6696358  19.0832672  78.5164337  49.4440842  59.0624313
  79.0525208  48.6529884  59.1172638  79.0703278  50.1344910  59.4268112
  81.0324402  59.6798096  77.1288376  80.0777512  59.7371826  77.1677246
  81.2479630  58.9116669  77.6577454  61.1020660  64.2161713  30.7506962
  60.1947289  64.4689484  30.9212151  61.3434639  63.6706848  31.4993000
  63.8688698  47.1512909  47.3217278  64.7646942  46.8356400  47.2030106
  63.6924133  47.0261230  48.2541618  37.9620705  18.4262791  18.8046436
  37.0176773  18.2873211  18.7336426  38.2213287  17.9205856  19.5748959
   8.2262449  70.6071396  57.2078934   7.7203102  71.1855316  57.7786179
   7.5982485  70.3120804  56.5485077  55.6617470  24.6947327  31.7318821
  55.6609840  23.8036442  32.0814438  55.3006172  25.2296276  32.4387779
   6.3604164  68.2519302  64.1375732   6.8314590  68.8664627  64.7003250
   5.6797037  67.8844070  64.7013016  86.4365005   4.9048467  11.6881714
  86.9777374   5.6569610  11.9282198  85.9408951   5.2004175  10.9244652
  84.1956558  45.5384483  56.7167778  84.2999191  45.8779602  57.6056480
  84.2778778  44.5895195  56.8116570  81.4721756  64.7466125  55.7632942
  80.8314056  65.4540634  55.8350449  81.0005112  64.0400696  55.3222046
  24.5825882  57.4127426   9.7255564  24.9667568  57.7020607   8.8979435
  24.1479321  56.5870514   9.5121632   5.0693393  49.2072067  16.6227665
   5.2213182  48.5025444  17.2525177   4.4011865  48.8601952  16.0316772
  63.4048004   0.8208649  43.4253998  63.4549866   0.0573001  44.0004501
  64.2202148   0.7975539  42.9246063   0.7953740  26.7307301  66.3399887
   0.3217146  26.9712181  67.1362610   0.4351053  25.8783722  66.0951920
  47.7155914   9.3087835  43.5330124  47.6565971   9.5010319  44.4688492
  48.6552353   9.2858047  43.3519859  56.3715286   7.7873278  33.7105446
  57.0513153   7.3905072  33.1658859  55.5490036   7.4929557  33.3193512
  33.7275085  53.0920219  34.6648216  33.7331543  52.3646889  35.2870636
  33.2023315  53.7686806  35.0920830  28.3341446   7.1105561  85.5004425
  28.2608070   6.5593343  86.2795486  27.6656704   7.7850666  85.6204758
  11.7590799  64.7200241  18.0842609  12.5418234  65.2461243  17.9206562
  11.7575092  64.5811081  19.0313263   5.5382786  57.8273125  74.0473480
   6.1467609  57.8161240  73.3085251   6.1009803  57.8064117  74.8214035
  10.7947426  37.4096451  66.9439011  10.9926214  37.0067673  67.7893372
  10.4116325  38.2580681  67.1666946  59.4996529  50.6655693  20.7776299
  59.7931061  49.9420090  20.2239342  59.0991211  51.2859993  20.1686382
   8.3486233  27.6316376  86.7500916   7.6583600  28.1229782  86.3047256
   8.2787514  27.8978710  87.6668625  44.2043648  43.0204277   5.7603192
  44.6751747  42.2253647   6.0102105  44.3374290  43.6186752   6.4955902
  73.3312988  45.3246994  19.8881626  72.5252609  45.4358864  19.3840027
  73.8322906  44.6726952  19.3981323   7.4398360  55.4371300  79.9443359
   7.1971064  56.3627129  79.9197159   7.3395009  55.1875610  80.8629684
  19.8756084  49.2108078  35.9010696  19.6608334  48.3047218  35.6794586
  19.1275158  49.5155563  36.4146080  85.6696625  15.9354506  72.3650055
  85.3481598  16.7360153  71.9503250  86.2454147  16.2429562  73.0651321
  59.6938019   8.1380625  19.0271778  60.1837730   7.9330087  18.2308636
  59.0055580   8.7368793  18.7374077  85.6494217  60.2270164  63.6659164
  85.7711792  59.3673172  63.2630234  85.3747940  60.0346375  64.5624619
  14.8477201  55.8407936  68.7871323  15.5806246  56.1862755  68.2774963
  14.6473007  54.9989357  68.3780594  24.8739643  57.7067184  35.2068481
  24.2974377  56.9727173  35.4192047  25.7126884  57.4758072  35.6061630
   9.3147869  48.3384933  44.8902969   9.7597971  47.8430290  44.2027588
   8.5294161  47.8267937  45.0841675  20.2360497  58.8019371  82.1648102
  21.0487900  58.7044029  81.6686554  19.6924667  59.3747482  81.6238480
  29.4877682  35.8749657  11.0493231  29.6659279  34.9431839  10.9217482
  29.8874969  36.0817757  11.8941174  38.3075790  58.4480743   1.7494059
  37.7747231  57.6920586   1.9958388  37.6731987  59.1048851   1.4623660
  55.5850563  12.8486834  54.7228928  55.7456093  11.9707088  54.3770409
  55.5240479  12.7254982  55.6701698   5.2677670  17.0313473  41.1338959
   5.5708065  17.7482624  41.6910591   5.6963406  16.2532711  41.4904861
  10.4822187  11.3890657  79.9219513  10.6739244  11.3643131  78.9844742
  11.3161926  11.1797743  80.3425674  63.9150314  14.0863018  59.9681053
  63.5470695  14.8352013  60.4371300  63.5576324  14.1588345  59.0830994
  58.0997162  14.1629543  32.6251373  57.8502235  15.0264502  32.2959557
  57.3414307  13.6083870  32.4415894  58.3982811  15.1397820  63.7084961
  57.8748093  14.5602932  63.1549606  59.2329674  15.2220154  63.2472267
  74.8450470  52.7254829  70.6896591  74.2608261  53.4768829  70.5881195
  74.5000763  52.2546768  71.4483261  68.1702042  44.6414528  31.6216698
  67.5869370  44.0441208  32.0898819  68.9116669  44.7656670  32.2141533
  22.4040394  12.5797129  11.5974712  22.7533379  13.3571844  12.0330868
  21.5861912  12.3938084  12.0587692   3.4346907  21.8633404  76.7522125
   3.4371006  22.8186245  76.8126984   2.5393279  21.6418095  76.4963150
  17.5014095  66.8407059   3.7887597  17.9627628  66.5248871   4.5657034
  18.1777954  66.8935623   3.1135249  35.3069038  18.2617760  78.6968079
  34.8148308  17.4741211  78.9285355  34.9546013  18.5225925  77.8458710
  51.9498825  66.3059921  86.9647675  52.9020615  66.2345963  87.0317612
  51.7338257  65.8648148  86.1432419  67.0899734   7.3893971  80.7524261
  67.2159271   8.0491219  80.0704193  67.8032303   7.5455661  81.3713837
  32.0325623  14.8498812  80.0312653  31.7069187  14.6313581  79.1580887
  31.5006104  15.5970087  80.3052368  43.9414635   3.1456397  49.7537460
  44.5397758   3.0702288  49.0103989  43.3093643   2.4384344  49.6251373
  27.4712219  38.0406952  81.3694992  27.0888577  38.8332901  80.9929047
  27.5058155  37.4216385  80.6402512  55.6807632  62.2003098  15.2235451
  56.3933525  62.6314850  15.6952868  55.5653725  61.3645782  15.6757269
  57.0711746  48.9365158  59.0542107  57.0575676  49.3722839  58.2020645
  57.9595528  49.0778999  59.3813629  52.4618797   8.9691267  13.7619801
  53.1644554   8.7048559  14.3559313  51.8903160   9.5197735  14.2970839
  17.5585308  10.8255234  27.1324158  17.7146587  11.2589664  27.9714527
  17.3909092  11.5420141  26.5202274  51.0001144   1.7105598  41.7141762
  51.0376625   0.8993688  42.2209206  51.8178940   1.7203338  41.2168121
  39.0468941  34.3165817  57.8645744  39.3805656  34.8563423  58.5811996
  38.6507988  34.9421349  57.2579231  25.9794865  30.7373943  23.8028336
  26.2188454  29.9840679  23.2629814  26.4538326  31.4717655  23.4130554
  43.6325455  43.9115677  81.3628387  43.7155952  43.1185112  81.8923569
  42.7120209  44.1602440  81.4467010  16.0345631  14.7426405  69.1656036
  15.4221716  14.3698940  68.5313568  16.3166180  13.9957666  69.6936722
  61.8873253  51.0066032  57.3133087  62.7633934  50.9138069  56.9389763
  61.5101318  51.7585220  56.8566055  71.8072281  21.8189011  69.5696487
  71.2334518  21.5794621  70.2974396  71.5202637  21.2626953  68.8454132
  78.7072525  32.7185211  86.5122299  79.2669907  32.3328667  85.8382874
  79.3103027  33.2028961  87.0760956  48.0755119  38.8657188  53.6616669
  47.2053375  38.4702644  53.7131004  47.9186974  39.7461281  53.3203125
  32.8802185  22.1252079  71.5492630  32.4492912  21.5168037  70.9489441
  33.4679413  22.6354980  70.9921112  79.3846207  12.0360470  72.2396622
  78.4954605  12.1234932  72.5831451  79.9501953  12.2072706  72.9926834
  48.6337128  55.7940254  28.6237793  48.9457817  55.0468369  28.1133347
  48.5721626  55.4630203  29.5198135  65.8254700   2.8352587  67.1950912
  65.0267181   2.6159844  67.6748199  65.6319809   3.6752944  66.7789917
  84.8202896  71.1362228  38.9441948  85.5234604  71.5735855  39.4242935
  84.0919037  71.7567978  38.9681587  52.3325958  60.2493629   7.1268296
  51.5620422  60.5847435   6.6685762  52.9310112  60.9953728   7.1668615
  24.4798126  41.9054489  80.0436783  24.1195087  41.5361862  80.8499451
  25.4212666  41.7442513  80.1062241  26.1551018   3.1834297  81.4353714
  25.3896713   3.7560601  81.3859558  26.7946167   3.5872726  80.8487167
  33.1033211  38.3587379  22.8262920  32.4854469  38.6724739  22.1659641
  32.5739250  38.2474480  23.6159687  84.7616043  26.8632603  58.6798286
  84.9354019  27.8021412  58.7471237  84.7570343  26.5549717  59.5860138
  74.4902344  68.8049850  54.3381729  74.1816788  69.6722488  54.6006165
  74.9819336  68.4865036  55.0951653  42.4871292  43.1746521  53.6909904
  42.7711906  43.6202698  54.4890900  43.1697464  42.5248528  53.5235863
  30.2666073  62.1516113  84.7122498  29.6432934  61.5420456  84.3171082
  31.1124516  61.7093086  84.6405029  70.8659134   3.8350301  70.5665436
  70.8856659   4.7629938  70.3326111  70.6595001   3.3857455  69.7469254
  64.5163345  63.8807640  85.0778809  64.8275375  63.3195801  84.3676224
  64.5324173  64.7641830  84.7097168   5.5505891  34.7221260  45.9841652
   5.3760223  34.0157967  46.6061401   4.6855040  34.9805603  45.6662483
  31.5473824  53.8171692  15.7232866  31.9306774  54.2230988  16.5008049
  31.7700100  52.8896294  15.8029308  30.0007839  63.4981804  80.8162460
  30.1680126  63.9458847  79.9868927  30.0789680  64.1844635  81.4789200
  74.0094299  37.5297699  10.7515535  74.2340775  38.4441376  10.5792189
  74.3529739  37.0523109   9.9964085   4.8112187  17.6929665  74.3997803
   5.0932140  16.7937260  74.2322159   5.5971880  18.2207165  74.2584839
  37.1687546   0.4774323  78.7311554  37.9613075   0.1822959  79.1794739
  37.4800186   1.1168283  78.0904388  47.2710266  40.5609627  28.9901333
  46.5003090  40.0536346  29.2447720  47.6157341  40.9031754  29.8149376
   2.4896176  34.0140533   2.0256736   3.1095102  34.6981201   1.7726537
   2.2350764  34.2404366   2.9202073  27.8860703  45.7537689  70.6944275
  28.1185226  45.0215263  70.1234436  27.5727196  45.3401718  71.4987793
  47.6008186  39.8309364  79.3295746  47.8882599  39.1828842  79.9727173
  48.2568474  40.5261192  79.3803864  80.5167923  57.9072990  41.6091270
  80.2496490  57.7655220  42.5172958  79.7144547  57.7851791  41.1016083
   8.8845978  55.5442505  74.8587723   9.7830534  55.6792259  74.5574493
   8.9723978  54.9860344  75.6313705  55.2875824  15.1185427  88.0491409
  55.1655922  15.7936001  88.7167053  56.0331306  14.6054544  88.3608017
  79.5874100  67.6324081   8.7333231  79.8934631  66.8297119   9.1555099
  78.6720352  67.4551086   8.5167856  66.2687073  55.4267159  19.1043358
  66.8023300  56.0893250  19.5430031  66.5140152  54.6035271  19.5267296
  37.0991020  67.3131332  84.0359344  36.7908325  67.7558289  83.2452240
  38.0444260  67.4633408  84.0414200  25.4925728  44.7223434  81.8475647
  25.9931374  44.5561295  81.0487900  25.0689354  43.8865433  82.0430145
  81.6187744  47.1675568  32.5695381  81.7757034  46.3236885  32.1458702
  82.4909058  47.5466614  32.6786079  40.0228500  63.7895927  71.7498016
  39.3134460  63.1990128  72.0031662  40.1338272  64.3681488  72.5042496
   8.1785545  28.8823738   0.1007992   8.1291256  28.9890575   1.0507504
   7.9091454  29.7312927  -0.2498954  16.1268959   0.3754313  32.1500282
  17.0488834   0.6007246  32.0258713  15.8938007   0.7738559  32.9885712
  71.3884735  16.7226429  67.0401764  71.2465134  17.2329941  66.2429199
  72.2928619  16.9135666  67.2889099  40.0264854  30.0502815   2.0124922
  39.4339485  29.3815079   2.3558214  40.8366928  29.9294472   2.5076623
  56.4884186  19.4609108  37.1813583  57.0457649  19.0142517  36.5441055
  56.1605797  18.7604408  37.7453613  64.8729630  30.8879223  77.9384308
  65.3270035  31.7288685  77.8846512  64.3059769  30.9704628  78.7052002
  65.6668472   7.5168295  17.2312984  65.4665527   6.5995669  17.0448990
  65.0640717   8.0112495  16.6759186  78.1537704   3.5278416  36.9850273
  78.2295074   3.3688672  36.0441628  77.5125122   2.8840141  37.2858620
  55.9287376  16.3216515  42.8340340  56.2921600  16.4772396  43.7057838
  55.3660049  15.5549688  42.9424782  68.8438721  17.4297390  86.8325577
  68.7436371  16.6600685  87.3927307  67.9481659  17.6770668  86.6028442
  18.9051018   7.3533769  24.9623966  19.0829239   6.7949324  24.2055931
  18.8220310   6.7437415  25.6956615  65.8951340   0.4478886  42.3803406
  66.0047073  -0.3107659  42.9536362  66.7506027   0.5604737  41.9659271
  57.1954498  21.7890720  58.7552567  57.8330078  21.7814617  58.0413246
  56.4138107  21.3810501  58.3827133  23.4444160  24.0232277  59.5019188
  23.9650784  24.8223114  59.4206314  22.9705601  24.1289883  60.3268471
  75.4000549  32.6509209  65.2966461  75.9859695  33.0886765  65.9141464
  74.5890656  32.5197144  65.7878952  31.3703709  70.9426498  61.4398613
  30.9892616  71.7607498  61.1209488  32.2078247  70.8738327  60.9814224
  86.1239319  33.2006226  66.6796951  85.4217224  33.1907539  66.0292816
  86.5653687  32.3586197  66.5683594  22.7355556  21.6728554   6.3626919
  22.1203556  21.6433182   5.6299644  22.1798592  21.7338467   7.1396823
  51.3749008   5.4674816  31.9700356  51.0355110   5.2682533  32.8425903
  50.6443367   5.2806282  31.3804626  74.0178909  46.5776558  46.0526314
  73.1746979  46.7533417  45.6350365  74.1307144  45.6302834  45.9752617
  61.4062233  21.5534267  86.0500183  61.6980362  20.8962765  85.4181671
  60.9422531  21.0517750  86.7203217  26.2891350  37.6291847  70.5803680
  26.0133858  36.8900375  71.1224442  25.5166874  38.1924515  70.5325394
  49.8224716  56.4481544  49.8292427  50.6185265  56.5124435  49.3016090
  49.6251259  57.3516731  50.0760994  74.6401443  67.4219055  40.4779091
  74.3775253  66.6113358  40.0417404  74.4995804  67.2493286  41.4088707
   3.0628023  67.5443192  28.6542683   3.5142252  66.8750687  28.1399212
   3.5784798  68.3391953  28.5183239  33.7750130  62.8762054  57.5492363
  32.8563919  63.1447792  57.5338669  34.1527672  63.3567963  58.2858238
  57.7543831  14.2247105  48.5942917  57.8896484  14.1913986  49.5413017
  57.2011604  13.4669619  48.4045677  80.4375305  32.6332932  20.2153683
  81.1212463  33.0505409  19.6912880  80.8374405  31.8220291  20.5286598
  30.3955688  36.9391556  65.7896576  30.0287609  37.4609184  66.5034180
  30.3236179  37.5028610  65.0194092  34.0145645  61.7655144  18.8875675
  34.8269424  61.5916672  19.3630199  34.2894325  62.2638512  18.1179333
  43.6726189  60.8454475  32.2584686  43.8771019  61.7405624  32.5289993
  42.9687347  60.9439011  31.6173077  23.2562637  31.6284027  16.8892193
  22.6257477  32.0270653  17.4890118  23.0808334  32.0451660  16.0455589
  68.9784546  26.4828911  59.0622826  69.6671600  26.1938229  59.6609077
  68.8806381  25.7598610  58.4426918  61.6449661  39.3558731  21.1461525
  62.1866455  38.5951729  20.9360390  62.2432175  39.9629173  21.5818386
  46.9946556  68.2431183  47.2367287  46.1805496  68.7244873  47.0892677
  46.8087463  67.6833801  47.9906311  62.8658981  33.2927513  74.1117783
  63.0492287  32.4533081  74.5336227  63.5376701  33.3722534  73.4345551
  12.3893595   4.8641777  84.5034180  11.8836212   5.2807512  85.2012177
  13.2657948   5.2401180  84.5856476  67.8763657  70.0816193  44.0328941
  67.5670166  69.9175186  44.9237404  67.8434143  69.2253418  43.6063652
   0.5489990  63.6778679  66.4641418   0.9603602  62.8267822  66.3135757
   0.1595392  63.6048508  67.3354721  20.5399380  19.5188351  63.6822281
  21.3271885  20.0316715  63.4992905  20.2270775  19.2445583  62.8201790
  22.4718800   5.8326302  16.0802498  23.1762295   5.2161937  16.2805748
  21.6833611   5.4169135  16.4290314  66.2810974   2.7586057  45.5247192
  66.5146561   2.6432798  44.6036453  66.0743332   3.6897879  45.6046066
  74.7730331  42.0583611   6.2110796  75.5753555  42.2528305   6.6955352
  74.4834442  42.9072189   5.8767028  41.7740898  56.4416008  59.0696640
  40.9294777  55.9915276  59.0868530  42.0263214  56.4423828  58.1462975
  72.9252853  29.4014263  81.8465500  72.1355972  29.8352203  82.1697159
  72.8078537  28.4817753  82.0846252   3.8809748  59.2171440  42.5723267
   3.7022552  58.8673592  41.6994324   3.9617045  58.4425430  43.1288414
  32.7775497  60.6456718  84.7784042  32.3890533  60.5786362  83.9061661
  33.6101799  61.0958061  84.6357956  48.1394348  43.8291664  40.4996223
  48.2867928  44.4600601  41.2042427  48.9984322  43.4352722  40.3472900
  21.4901562  16.4522591  69.4673843  22.4255123  16.4953690  69.2686844
  21.3989754  16.9251766  70.2945862  20.4557209  31.9955044  78.0920410
  20.0494270  31.1902065  78.4124374  21.1208324  32.2054558  78.7476120
  58.2641525  11.5757685  53.5808105  57.5593376  10.9955873  53.8686714
  57.9232178  11.9924068  52.7893524  73.1614456  22.1238976  23.8276463
  73.4279022  21.9012489  22.9356499  73.1637497  23.0809097  23.8464775
  50.4527435  48.2451439  62.1697311  50.5268097  49.0424957  62.6941109
  50.2600136  48.5570183  61.2855263  68.6517410  54.1424713  47.6477737
  69.3254089  54.7146225  48.0152588  68.4954224  53.4883499  48.3288918
  53.2450752  67.9443970  62.3691978  53.8499985  68.1618500  63.0784340
  53.3231087  66.9955215  62.2703171  26.7906837  40.3592720   0.7423070
  26.0642300  39.7504120   0.6089533  27.0766449  40.1977043   1.6413918
  27.2198601  46.6336632  46.5912743  27.6153812  46.7646904  45.7295151
  26.3272457  46.3434639  46.4035072  85.4152756  62.4867554   9.9029655
  85.4371338  61.8148346  10.5843449  86.2799149  62.8955650   9.9418945
  74.1117477  62.6239586  24.3467922  74.5711136  62.2196732  25.0828419
  73.4432068  61.9844246  24.1012726  77.1485214  38.4773560  66.6923141
  76.9197159  38.4660950  65.7629318  76.7280197  39.2669029  67.0329514
  44.2287254  64.1323853  68.9137955  44.1173553  64.2725296  67.9734802
  43.4359665  63.6679802  69.1822891  39.1202393  30.4993935  84.0059280
  38.7356834  31.3752403  84.0411606  39.7463303  30.4834099  84.7297974
  29.6283207  58.8152809  61.3764191  28.9899426  59.1640930  61.9985390
  30.4656372  58.8686905  61.8371582  63.2695656  21.9304180  49.4879532
  62.3499451  21.6744862  49.4170418  63.7208900  21.3823967  48.8459167
  86.1892624  44.1824226  10.0047894  86.2254105  45.0593643  10.3867626
  86.0419083  43.6018524  10.7514172  64.4530945  55.5479546   3.4258296
  64.8533554  54.8144989   3.8928020  64.0412979  55.1481056   2.6598194
  18.2708130  55.2071724  31.9611130  18.5114651  54.8227692  32.8040543
  17.8861637  56.0545158  32.1853561  73.5603943  25.0957928  37.2989464
  74.1446457  24.8393230  36.5854301  72.8800278  24.4225216  37.3051529
  49.2326393  39.9886627  14.2682486  48.5135574  39.4909706  14.6574278
  48.8912582  40.2819366  13.4234514  69.9726028  56.2974014   4.8675299
  70.5779877  56.4279175   5.5974021  70.3821411  56.7532845   4.1322184
  63.2515831   6.6922817  61.7807808  62.3506088   6.9950261  61.8940010
  63.5474052   6.4839525  62.6669617   2.4717991  39.3475914  51.9685402
   3.0981719  39.6917839  52.6052628   2.9553905  38.6667061  51.5008125
  50.9707909  13.6782436  42.0450859  50.2594566  13.4298601  42.6354599
  50.9885635  14.6346216  42.0805359  27.5277576  61.1648903  66.8468857
  26.9090881  61.8454552  66.5817261  28.0157738  61.5543365  67.5724258
  21.0830917  13.5528564  30.6030426  20.8541737  14.4503765  30.3616161
  22.0281658  13.5787220  30.7527008  65.3632584   1.3155150  55.1496887
  65.3195953   2.2072196  54.8044510  65.5548248   1.4282542  56.0807228
  58.3873367  53.7990990  41.2818985  57.4436951  53.8374939  41.4377632
  58.7787590  54.0427933  42.1207237  29.7238560  53.5520897  13.7254190
  30.0907154  52.7485390  13.3567028  30.2902508  53.7542839  14.4700966
  84.3066559  33.1593819  11.6343479  85.0942535  33.2221451  11.0939894
  84.2283783  32.2269936  11.8362312  76.1928329  66.8415375  31.9105511
  76.8925171  66.5526505  31.3247051  75.8230209  67.6123734  31.4800987
  85.3532410  66.4357376  86.9291458  86.3018570  66.3189926  86.9813309
  85.2393570  67.2737350  86.4807892  17.9452133  53.1935463  73.2922058
  18.7045803  53.7758789  73.3141251  17.2072754  53.7530136  73.5344391
  67.2001495  47.9417305  29.0776863  67.7763901  47.4291306  28.5107460
  66.3805771  48.0094414  28.5878334   6.8125682  20.6616325  78.3226776
   7.7577715  20.7952213  78.2521286   6.4317589  21.3558235  77.7847900
  56.3288612  33.2049103  27.7094975  56.7024193  32.4696312  28.1953526
  56.8946877  33.2977219  26.9430408  16.2567921  24.2995605  15.6238871
  15.4536991  24.8011417  15.4835682  16.0814800  23.4491100  15.2211084
  34.0156784  33.6039047  12.9908094  34.1641197  32.8724442  12.3915081
  34.0947723  33.2184563  13.8633947  72.8839874  41.9299240  53.3049126
  72.0928650  42.2057266  52.8419991  73.4824524  42.6720734  53.2195549
  28.0178738  17.5138416  88.1612473  28.2551041  16.9301968  87.4406128
  28.8528957  17.8670158  88.4682312  56.7336044  56.6261368   0.1768444
  56.2436676  56.2545052   0.9103855  57.5492249  56.9394417   0.5677907
  67.8775253  14.5696507  58.9043465  68.6730194  14.0378332  58.9285927
  67.8829803  15.0467310  59.7341652  76.3810654  63.7623405  56.4664001
  76.7785339  64.2316360  57.1998901  76.7526474  62.8816032  56.5159836
  65.3964844  48.7790565  56.1824417  65.7285385  48.1425285  56.8155289
  65.8002319  49.6074066  56.4413910  82.3936844  69.6440353  37.2315025
  82.6479950  70.2434921  37.9330826  82.8382950  68.8235779  37.4445915
  74.0818634  51.3253517  12.9727745  74.4924011  50.4630394  13.0368347
  74.8120422  51.9285660  12.8342295  10.5390358  47.4849892   7.9467216
  10.4936199  48.2351036   7.3538518  10.3658409  47.8535347   8.8129826
  17.6356678  44.0002785  48.0252266  18.2608318  44.2150650  47.3329353
  17.5459919  43.0483589  47.9800682  17.2090874   3.0566092  87.8446884
  17.5676632   2.6378713  87.0621796  17.1110229   3.9768698  87.6002808
  80.2757339  68.5708618  28.7952404  80.5313950  67.8591995  29.3821011
  79.3674011  68.7604675  29.0302162  83.7325516  21.5935669  86.6475677
  83.2121201  20.8276310  86.4052277  84.1846313  21.3319225  87.4496841
  86.5918427  70.8029938  72.3333588  87.4204330  70.4412766  72.6477432
  85.9640274  70.6018372  73.0273361  69.3577652  65.6976929  18.5319004
  68.8873367  66.4698792  18.2178192  69.4783554  65.8551407  19.4683304
  77.8381653  36.3992310  42.0603104  76.9382553  36.0841560  42.1446953
  78.3268356  35.6437073  41.7337761  56.7610893  66.5260696  57.9286385
  56.7720604  67.2794724  57.3382988  57.4628334  65.9598541  57.6074181
  35.8473701  12.0059929  15.2584457  36.6153641  11.4359417  15.2966566
  35.2858238  11.6070824  14.5937872  74.3405609  18.8475189  71.5982742
  74.7302933  19.5844250  71.1278305  74.2362671  19.1643391  72.4954758
  65.5177917  46.9410896  84.9689560  64.8884430  47.1307831  85.6647720
  65.3184738  47.5803146  84.2849274  59.0376282  16.9001522  74.5260239
  59.3268776  16.0027599  74.6911087  58.2324142  16.8025856  74.0177460
  40.8977852  65.5712585  58.3539047  40.7231598  64.6301422  58.3482018
  41.1262054  65.7779770  57.4476357  67.0727386   8.7960758  34.3863297
  66.8364334   7.9336691  34.0447960  67.7564621   9.1091127  33.7940788
   9.2916327  53.2363892  58.6476479   9.4576654  52.8195648  57.8021164
  10.1606264  53.3544006  59.0312538  82.0573502  45.1140633   5.1631474
  82.2946167  44.9681206   4.2473760  82.8888855  45.2998962   5.5993190
  76.1764374  11.1199074  64.8738708  76.9760895  10.8609028  65.3318024
  76.4848557  11.6120052  64.1129837  81.0981445  69.7617493  81.3441925
  81.6950378  70.4287109  81.0049133  81.4404907  68.9366760  81.0002747
  60.0237656  62.0404243  46.8593903  59.3504868  62.5690193  46.4309998
  59.5497665  61.2853241  47.2077866  47.0749969  42.2531281  38.1026039
  47.9383659  41.9895859  37.7842178  47.2506142  42.6942596  38.9337425
  20.3579006  56.8065147   0.3540691  20.7595310  55.9663734   0.1325034
  20.4077206  57.3164444  -0.4544605  24.9087772  42.5011253  83.3981323
  25.8290920  42.7628517  83.3707199  24.9302711  41.5451202  83.3553467
  83.3456573  40.9941406  22.6353874  84.2039795  41.3956604  22.7706718
  83.0498352  41.3393517  21.7930412  51.4249039  14.9504881  82.8563232
  51.5680161  15.8963318  82.8227005  50.9180641  14.8132353  83.6566391
  53.6589622   4.0854445  52.2993546  54.1368561   4.8807602  52.0641479
  53.6017761   4.1139951  53.2544174  11.9677811  70.8653030  71.6189041
  12.8606644  70.6039963  71.3937149  11.4968548  70.0391769  71.7283707
  20.5741043  47.0172729  33.4001236  21.1525421  47.7122688  33.7141647
  20.7214661  46.2909966  34.0059586  14.7901812  35.7209129  77.4268570
  15.0626392  35.7371597  76.5093918  15.5161161  35.2972145  77.8848190
  70.6470108  64.3765717  35.4730492  70.1091843  64.1814728  36.2404594
  70.0153809  64.5837097  34.7843018   8.6117277   3.3453128  27.8187466
   9.2548237   2.8562963  28.3320904   9.0931311   3.6328664  27.0429916
   1.8620722  33.1127319  28.6097755   2.5554450  32.4549866  28.5565414
   2.0565674  33.7238274  27.8991642  48.0221672  49.5918884  75.2137527
  47.2205887  49.0709534  75.2620316  47.8193550  50.2859230  74.5865173
  83.5881882  25.6062088  17.5499306  83.1278534  26.1740513  18.1678963
  84.0818176  25.0007114  18.1030407  16.3167934  16.9127026  62.6599655
  15.6565762  17.4726677  62.2515755  17.1304607  17.1312866  62.2056580
   7.7219086   9.5884609  72.3676910   8.5173092   9.5764132  72.9000626
   7.6243887  10.5032835  72.1034546  72.7069855   6.2645197  76.4800568
  72.3245544   5.5852532  75.9245605  71.9562454   6.7703905  76.7910385
  29.0043716   8.5355244  83.3359146  28.8855953   7.8434982  83.9864731
  28.1196365   8.7250290  83.0235596  10.4130602  38.5783882  18.6634388
  10.2095919  39.4373589  19.0335732   9.7504969  38.4467697  17.9852657
  21.2650967  64.7482452  43.6454620  20.8820267  64.9860001  42.8010902
  21.8015518  65.5035324  43.8862724  65.9188919  11.0732117   1.4470232
  66.4623718  11.2284880   2.2195165  66.1488495  10.1874018   1.1665072
  59.7417526  46.6363487   2.3776636  59.5120697  46.6410294   1.4484404
  58.9206581  46.8336563   2.8283360  70.9149933  66.2930145  49.6122055
  70.3182907  67.0037918  49.8466797  71.0520706  65.8156128  50.4304581
  23.1239338  62.6149330  50.3672104  23.1341457  62.6464043  49.4105835
  23.8251724  63.2093811  50.6339111   8.2161341   7.6786485  16.6698132
   9.1709385   7.7440634  16.6871758   7.9162693   8.4061403  17.2148514
  52.3675117  25.2231388   5.1790094  51.5120659  24.8721981   5.4265695
  52.7592888  25.5046253   6.0057545   2.6164701  48.2518463  35.6911545
   3.0226490  48.2070732  36.5567436   2.9441607  49.0686607  35.3147736
  55.9335136  13.3238039  44.7413216  55.4224167  13.8763494  44.1499634
  56.7795982  13.7659874  44.8109169  12.3951035  27.5294971  70.3398666
  13.1211185  27.9231586  69.8559647  11.6138163  27.7853699  69.8496094
  55.0003014  13.7330456  32.6842728  54.3002434  14.3403025  32.4447250
  54.6663055  12.8716764  32.4338303  21.4523735  40.1188316  86.1148529
  21.0123291  40.2518806  85.2752686  20.7465248  40.1390343  86.7610703
  26.5486641  66.7573013  29.6997261  26.9743404  67.2128220  30.4260368
  26.5367889  67.3983459  28.9889870  56.1176033  19.1669521  11.5719395
  55.2379951  18.8078156  11.6883011  56.1074409  19.5453587  10.6927719
  61.3813248  15.1114159  27.9960365  61.0272102  15.9830942  28.1721458
  60.7447853  14.7092218  27.4050274  67.0735855  52.8384056  15.8305464
  66.7453461  52.7477150  16.7251225  66.3137131  52.6578789  15.2771578
   4.6954985   3.5501449  80.6052094   4.3334055   3.3727884  79.7370758
   5.6437049   3.5475814  80.4743271  24.2739201  37.5236244   7.5022278
  23.5552769  36.8918762   7.5282221  24.2396851  37.9604836   8.3532352
  76.6212540  65.8431778  16.2052784  75.7858124  65.8818588  16.6708775
  77.1798325  65.2990265  16.7603626  29.8520756  39.2202530  45.0990715
  28.9310951  39.3751564  44.8892403  30.1253071  40.0060310  45.5724945
   0.9790537  67.3601151  25.2277546   1.8470656  67.1886520  24.8625336
   1.0428746  67.0772400  26.1399708  85.7364655  58.2590942  14.9276896
  86.4238205  58.2873650  14.2621260  86.0792542  57.6716423  15.6012106
  55.5018196   3.9934173  38.5059357  55.4509201   4.6409597  39.2090225
  56.2272530   4.2919455  37.9574280  56.2472000  55.4428635  12.2675667
  56.6379738  56.0108299  12.9316025  56.4698219  55.8594246  11.4350109
  11.5354462  33.2116051  18.4704494  11.8976917  32.5022163  19.0012798
  11.6754274  33.9994011  18.9958191  82.4608994  26.9893646  21.6006699
  82.8136292  27.8603649  21.7828102  83.0401917  26.3924942  22.0743790
  11.2421465  12.9438076  75.2407761  11.4814186  13.8688517  75.2979965
  11.7878609  12.5985203  74.5342255  32.3275452  58.9965401  54.5494499
  32.6308441  59.0870895  53.6460991  32.6747322  59.7680779  54.9971390
  45.6522560  13.8616085  79.6389923  46.1697235  14.0336428  80.4256668
  44.8553925  13.4421349  79.9634628  55.5176086  19.9662762  19.7145481
  54.7254868  19.4508133  19.5626583  55.2418518  20.6573734  20.3166904
  47.2716408  52.3464241  13.4464760  46.5834961  52.4036293  14.1093597
  47.8983727  53.0267906  13.6925220   0.2403202  27.8948193  44.8527527
  -0.4945210  27.5057755  45.3269730   0.7143297  28.3968697  45.5156937
  48.7358170  54.8079567   8.1515932  47.7787590  54.7961464   8.1399336
  48.9592705  55.5169792   8.7545748  55.5739021  42.5938644  40.3712463
  55.9530144  43.4714851  40.4190979  54.6751213  42.7370567  40.0747337
   3.2780278  60.4720192  71.2761459   3.9366980  59.8898010  70.8974533
   2.5570686  59.8915291  71.5200272   1.6398646  24.2095451  35.8283501
   0.6976929  24.0956020  35.7036057   1.9331141  23.3812065  36.2079468
   1.1820606  15.2105751  60.1027908   1.4743327  16.1154137  60.2126808
   0.9771353  14.9156427  60.9900627   9.9947910  10.5550976  60.6860542
   9.3451853  11.0459538  61.1893463   9.8614664   9.6438942  60.9471359
  52.8472900  10.1482124  82.5314331  52.3403397  10.2189093  81.7225876
  52.6710320  10.9658833  82.9968185  82.3190536  33.1871910  56.7309265
  82.8866730  32.4224854  56.8271828  81.5261078  32.8463173  56.3170662
  21.1884193  19.0022297   3.8608592  20.7757301  18.1995640   3.5420384
  22.1221409  18.7942886   3.8948312  30.9659138  24.7988396  84.0536880
  30.3468018  24.7360687  83.3263702  31.8271809  24.7958298  83.6360245
  31.0450726  30.6949463  87.4005127  30.9366455  30.0312710  88.0816956
  30.3648720  30.4923134  86.7582474  38.5814095  54.8894005   6.7873006
  38.0075531  54.5922012   7.4934111  39.4383163  54.5223007   7.0045171
  80.0165787  63.5145988  35.9243202  80.1135330  62.7811813  35.3169250
  80.2173996  63.1425400  36.7830811  31.2078743  67.4879150  26.7784634
  31.3458309  68.3896255  27.0684872  30.2738361  67.4422607  26.5742149
   7.5620499  66.8670425  70.6415405   7.6858168  66.2715378  69.9024353
   7.5934181  67.7411423  70.2527084  76.3769531   1.4555235  37.5014954
  75.6347275   1.4953127  38.1046143  76.3733521   0.5552536  37.1763306
  51.5319595  54.3909531  29.2745457  51.4524918  53.8082008  28.5193539
  52.4685593  54.4010086  29.4718056  59.4291916  28.0956135  38.1672363
  58.8014984  27.3750458  38.2221375  60.2763672  27.6666222  38.0468636
  39.2242584  71.6405411   4.3071790  38.8073311  70.7891846   4.4398303
  40.0677223  71.5663223   4.7536025  32.3651161   5.6516075  74.3298950
  32.8778191   5.3432670  75.0770874  31.5347729   5.1803560  74.3983536
  36.7878685  48.7445717   1.5485939  37.5548172  48.4564247   2.0435600
  36.0788765  48.1790428   1.8547603   5.3975248  13.5162430  29.6227016
   5.5480285  13.0158844  28.8206902   6.0994592  14.1669226  29.6343365
  36.4249382  69.0873260  55.6411629  36.5504189  68.5249863  56.4055290
  36.2857285  68.4782562  54.9159851  47.4505272  36.6575813  12.1354313
  47.3634872  37.3571510  12.7829361  47.8493118  35.9332047  12.6175928
   5.0676785  50.8790512  49.1697083   4.3672028  51.0904541  48.5525589
   5.4757419  50.0921402  48.8084793  14.2550297  71.5334778  26.5643940
  14.5629349  70.6318741  26.4719830  15.0462618  72.0388641  26.7508717
  82.4144669  38.7877007  42.7659836  81.9845505  38.3250046  43.4852295
  81.7015839  39.2317085  42.3067551  70.9263992  41.5367813  48.6203957
  70.5576477  42.4148254  48.7167702  71.2944183  41.5272141  47.7368240
  19.8205719  53.1480942  54.5726089  19.1211281  52.6052094  54.9363174
  19.6368008  53.1781349  53.6336975  26.4678040  22.2081165  76.9571991
  26.3041744  21.3377838  77.3204880  26.8027077  22.7168064  77.6956406
  68.9034882  29.3537369   1.8107234  68.2101288  29.6398582   2.4053807
  69.7088547  29.4463024   2.3196933  72.5286484  11.9128094  82.0017776
  72.7776184  12.4504070  81.2499619  71.9320908  11.2572556  81.6404037
  45.0043144  46.8682899   2.5762727  44.2753181  46.9668045   1.9638244
  45.3856735  46.0174446   2.3598137   7.3150454  63.9637756  37.8019714
   7.0357151  63.4244347  38.5417786   7.4872937  63.3364716  37.0997925
  66.2917938  33.8294067  26.2908611  67.0626678  33.3380699  26.0069962
  65.8315125  33.2328186  26.8811646  38.4356728  44.9204788  76.5869827
  38.7679596  44.6618729  75.7273636  38.1410751  44.1018410  76.9860764
  31.2787132  45.8489189  79.7239304  32.1186142  45.6652107  80.1447067
  31.3428497  46.7640152  79.4505844  71.5692444  48.8457870  72.2496567
  70.9939194  49.1625175  71.5532990  72.1655502  48.2393951  71.8104095
  55.2290154  54.3635635  49.3320312  56.1083336  54.7335052  49.2534370
  55.3172417  53.6738930  49.9899025   3.2960062  60.5431900  26.7460556
   3.1682215  60.3911209  25.8096905   3.7021644  61.4085693  26.7949276
  68.9457779  54.2337952  88.9883728  68.9016876  53.4589195  88.4281464
  68.9890060  54.9691391  88.3771210   0.4101503  43.5894432  39.1402435
   1.3496431  43.4182167  39.0749283   0.1175325  43.6691589  38.2323608
  28.2165298  15.1760111  72.2423325  28.5814590  15.6592827  72.9836197
  27.3687935  14.8608980  72.5558243  12.5226879  60.4402809  36.7129822
  11.8305159  61.1014137  36.7185020  12.2047272  59.7557106  37.3016205
  45.7351875  43.5629158   1.6306224  45.0844040  43.2034912   2.2335501
  45.2302513  44.1177216   1.0360967  61.2279625  16.3606472  86.9621277
  60.5842590  16.9925270  86.6418076  61.6850662  16.0644665  86.1750031
   8.4541388  18.2010326  69.0364075   7.9895568  17.9142666  68.2501755
   8.8466787  17.4017658  69.3875732  31.0584354  62.4122505  36.0426598
  31.3556747  63.2266998  35.6370049  30.6848640  61.9073334  35.3203506
  22.9468727  60.7198830  79.9022522  23.0977268  61.5622482  79.4734116
  22.1050854  60.4226494  79.5568848  83.2465210   4.0431342  27.0972061
  83.5386887   3.6861994  26.2584763  83.1006851   3.2734759  27.6472874
  17.5499363  69.8955536  57.3519058  17.6503277  68.9485321  57.4483223
  17.3070488  70.0184631  56.4342308  53.9966698  26.6893692  18.4079609
  53.2743034  27.1605721  17.9927692  54.6150475  26.5237770  17.6963291
  24.2420101  53.0012207  22.5524731  24.7556763  52.4779510  21.9371948
  24.3145561  52.5327682  23.3840504  67.7644577  16.4564877  15.2578278
  67.4774933  15.7985249  15.8910494  68.6489639  16.6901493  15.5394058
   4.8088503  31.5312653  22.7757797   4.7920551  32.2343063  23.4251518
   5.6265440  31.0647621  22.9489384  50.2678108  43.1528015  78.0494385
  49.6327209  43.8520432  77.8946686  49.7498207  42.4351501  78.4139862
  56.1623268  30.7996845  39.9005890  57.0057526  31.1044273  39.5659294
  56.3172798  29.8873940  40.1454277   6.4585323   7.8966837  58.0645294
   5.7024155   7.6029787  58.5727196   6.7872353   8.6580801  58.5425072
  70.5877228  68.6247559   3.5933955  71.0043106  67.7638626   3.5539701
  70.4570007  68.7850037   4.5279884  56.8097725  63.0512199  60.6662827
  57.0153999  63.8530159  61.1469879  56.6543541  62.3968239  61.3473434
  81.6292267  70.6043243  87.4032669  81.5234756  70.9137878  86.5036621
  81.9645538  69.7124481  87.3118820  63.8812447   3.2065213  49.7536545
  63.5207062   3.6058190  48.9619446  63.5837669   2.2973361  49.7201538
  30.4725723  65.5637741  75.0362473  30.0137424  64.7438660  74.8533325
  31.3701210  65.4064941  74.7431564  12.8366957  61.9300499  46.2022209
  13.1826534  62.5944061  45.6062546  11.8929281  62.0892105  46.2164764
  73.8581924  14.6896925  69.2110596  73.0567322  14.2444897  68.9359436
  73.6904297  14.9463139  70.1178284  60.8010178  58.0720024  59.0414009
  60.6959152  57.1761169  58.7211304  60.7642059  58.6139717  58.2532768
  61.2430115  65.5073624  15.6197329  60.6888847  66.2734146  15.4702969
  61.3157425  65.0929718  14.7599506  26.3600388  15.4538307   0.9381424
  26.8210106  16.2478161   0.6673558  25.9822826  15.6747389   1.7894541
  18.9522400  59.1700897  22.4136143  18.3427334  59.3206902  23.1361465
  19.1578636  58.2366142  22.4643383  53.9279785  40.0486870   9.9197655
  53.7281342  39.2561684  10.4179678  54.6064568  40.4887848  10.4318342
  68.3638763  26.7094116  84.3656082  68.0161057  26.9800510  83.5158768
  68.1556091  25.7769508  84.4236603  22.0857086  51.4584427  64.9720535
  22.3068142  52.1552811  65.5899200  22.5662727  50.6944122  65.2907181
  57.0049286  29.0000038  86.8483734  57.1839828  28.2041893  87.3492203
  57.5054131  28.8917255  86.0396576  31.2582855  45.4105377  87.4251175
  32.2122269  45.3663177  87.3597183  31.0491066  44.9132156  88.2157822
  16.0516872  24.2013874  27.3997116  16.4529285  24.4128475  26.5567875
  15.6057854  23.3676758  27.2502899   8.6037350  70.5170746  46.3579979
   8.8688536  70.4526138  45.4405098   9.3213472  70.9875336  46.7821846
  57.6170425  58.9829979  19.0946178  57.9184341  59.8543549  18.8374691
  58.0282249  58.8286552  19.9451103  79.1958160  47.6162949  69.9975815
  79.9687271  47.0595932  69.9031067  78.7297058  47.2531815  70.7506638
  67.3029556  11.4672527  68.8825378  68.0598602  11.6923285  69.4235229
  66.5521393  11.8124018  69.3656311  61.5398331  29.3256855  15.4096184
  61.6706161  30.2090244  15.7543497  61.0996170  28.8550949  16.1174221
   1.9719428  51.6524887  88.0302277   1.8720256  52.4141617  87.4591751
   2.8498552  51.7442436  88.4004745   6.4396577   5.4105983  64.4305801
   7.1931295   5.3129106  65.0127945   5.7438331   5.7490015  64.9940872
  22.3890476  18.5460396  13.2141085  22.0646629  17.8035450  12.7044926
  22.6789646  18.1606483  14.0409422   1.1646825  53.6159668  41.1001396
   1.9962531  53.5740433  41.5723305   0.8475626  54.5062294  41.2521324
  77.3939667  20.8838120  84.9904556  77.5963287  21.8182659  84.9448929
  78.1998901  20.4796162  85.3119354   0.9899585  55.7912331   5.9545298
   1.5596367  56.3972015   6.4283466   0.3244404  56.3511467   5.5547595
  35.1065636  54.3348694  63.8867912  34.3842735  54.9412766  64.0504837
  35.0343399  54.1219330  62.9563751  63.9506607  24.5444279  62.2170753
  63.6978073  23.6445122  62.0110397  64.1406174  24.5310440  63.1551399
  25.4125366  51.3782272  56.6729126  25.6961670  50.5097656  56.9584999
  24.5299492  51.4718513  57.0313911  31.3461666  53.4298096  23.9200191
  32.0012589  52.7901840  23.6407986  30.9373951  53.7247963  23.1063099
   7.6251574  39.6375885  76.8135986   7.2052698  39.0293274  77.4218216
   7.0457568  40.3993645  76.7984924  41.2910919   0.9650723  77.1842575
  41.3647270   1.7430598  77.7370224  40.5988007   0.4455299  77.5929642
  41.1519051  54.2045784  39.3476982  40.9693031  54.5399857  40.2254181
  41.4105721  53.2937889  39.4883575  58.8147011  44.7052002  64.0767899
  59.1676788  44.9173889  63.2127266  58.1000175  44.0934906  63.8999443
  35.3713608  32.2674446  77.2209625  36.2788925  32.0364227  77.4190598
  34.8800240  31.9938660  77.9955368  82.8112946  59.0924873  34.9500237
  83.6904297  59.4654350  34.8847504  82.7453156  58.5019455  34.1996002
  63.7228050  37.3834038  10.0385866  64.1674957  37.0677643  10.8252602
  62.9218292  36.8615227   9.9905329  53.2440453  28.2234669  10.2084579
  53.9007492  28.1591778  10.9018793  53.3920822  29.0845394   9.8174677
  78.7450409  71.1019592  21.5833740  78.3840942  70.2923584  21.2221203
  79.1836090  71.5202179  20.8424606  77.1561050  23.9529305  11.0458736
  76.9857941  23.1780663  11.5814199  76.5083618  23.9052143  10.3427515
  60.4691162  22.4726162   1.0148320  60.2240524  23.0665646   0.3053248
  61.1819725  22.9224968   1.4683461   7.0829825  50.3582001  70.2075729
   7.2398214  51.2892113  70.3652267   6.1401234  50.2497177  70.3319931
  68.3588181  19.5134182  63.1035080  68.9669647  20.2120953  63.3448448
  67.9238663  19.2805424  63.9237595  24.7349052  36.9291534  62.9846230
  25.0615559  36.4701843  63.7584953  23.7820587  36.8853951  63.0646133
  68.9177551  62.5862007  62.8370399  68.4532547  61.7693977  62.6545334
  69.6015625  62.3389244  63.4595261  48.0530968  17.5348110  60.3952866
  48.7627296  16.9704475  60.0884552  47.8493233  18.0928593  59.6447639
  78.3947983   3.8621583  79.9939880  78.4438858   3.4944801  80.8763962
  77.4827881   3.7358062  79.7322617  58.4334335   6.5232224  61.6149139
  57.6138077   6.0485229  61.7531319  58.3917160   6.8128490  60.7035370
  34.8601151  45.7901840  61.2379265  35.0992661  46.6845016  60.9945450
  35.2031441  45.6835594  62.1251678  34.0326805  70.1053619  23.7696228
  33.4070320  70.5594482  23.2051735  34.6903534  70.7682419  23.9800797
  57.6271553  26.1675224  70.3635101  58.5168266  26.3451519  70.0582962
  57.6893921  25.3191032  70.8023071  26.8599644  40.8432121  75.7947235
  27.1653004  41.1118660  74.9282227  26.5195522  41.6465530  76.1884232
  45.3678551  34.9156265  32.3790092  44.5240669  34.8757896  32.8291893
  45.9973068  34.5859680  33.0203743  50.0407906  21.5651131   6.3562269
  49.5035706  22.3057594   6.6374259  50.2928886  21.1293392   7.1703382
  26.3904514   4.9341049  85.0878525  26.8258114   4.1675897  84.7148285
  26.7551651   5.0113025  85.9694748  57.7587509  34.1410828  34.6720848
  58.2192497  33.3084106  34.5680161  58.0275078  34.6598129  33.9138489
  50.0166779  55.4080658  61.3873177  49.8013306  55.5983086  60.4742661
  50.2017365  56.2642822  61.7731628  60.9981995  16.8394032  21.6714859
  61.1278725  17.3733158  22.4552937  61.4839439  17.2982216  20.9860897
  13.6753311  55.8249054   1.1916153  12.9900074  55.9248543   1.8523517
  13.2362423  56.0093536   0.3613075  50.5325050  12.3589935  31.2558746
  51.3226509  11.8864441  31.5177917  49.9861336  12.3661718  32.0417862
   6.0651493  57.3469238   1.3722742   6.4152918  58.1245117   1.8070000
   5.2416835  57.1688728   1.8266246  74.0681992  20.2195415  73.9239349
  74.7190857  20.4113922  74.5990448  73.4897308  19.5716171  74.3261795
  11.6574564  47.0522423  72.4883041  11.9266682  47.4374466  73.3221970
  12.4494362  47.0669098  71.9509201   5.9051924   0.7451435  56.6725655
   5.6569061   1.1455824  57.5057716   5.5431356  -0.1399303  56.7148857
  55.6783562  35.6604881  40.6155968  55.0059967  35.8878899  41.2578201
  56.4773598  36.0669365  40.9511986  44.3282890  10.0610886  80.9660797
  44.7269592  10.1702585  81.8294296  43.8861694   9.2133484  81.0118866
  57.9257355  33.2055397  45.4099426  57.1932907  32.9326286  45.9624596
  57.5236359  33.4212761  44.5685120  84.4207077  57.7639160  10.9768906
  83.8203659  58.4956512  10.8341351  84.8145142  57.6062965  10.1188097
  81.4707565  26.5133381  82.7252350  81.1214600  26.9961052  83.4743423
  81.0095978  26.8773651  81.9695587  79.9731674  49.2046089  45.9258041
  79.5354691  48.9803314  46.7469940  79.9372101  48.4004631  45.4078369
  64.6115570  43.3192558  54.1794090  65.5301743  43.2752190  54.4448128
  64.1833191  43.8118515  54.8795471  63.0864868  -0.0139577  14.8073492
  62.8587036   0.8346213  15.1871662  62.7755508  -0.6541063  15.4474754
  73.6067581  42.7773857  70.8599701  74.4148560  42.3553734  70.5682297
  73.1304932  42.0883675  71.3232880   2.2887826  56.2342987  36.1341019
   1.9152974  56.2858582  37.0139198   3.0998623  56.7397232  36.1882133
  23.6447716  18.4026394   3.5310948  24.2145977  18.8895779   2.9357619
  24.0406876  17.5327415   3.5836318   5.9593129  10.5108118  85.2561798
   5.2174697  11.0902309  85.4298935   6.1376619  10.0911674  86.0978012
  86.3532410  36.6905479  85.7088776  86.4747238  35.7957230  86.0263062
  87.1234818  36.8587532  85.1660385  63.7620239  40.2789154  80.6785278
  62.8104591  40.2923698  80.7813644  63.8997192  40.1456451  79.7407074
   6.4843888  39.2318954  56.0708122   6.2985315  38.4345055  56.5666542
   5.7177696  39.7869644  56.2137260  57.5640297  34.9528198  87.0111542
  58.4697456  34.8326836  87.2966003  57.6371803  35.3059006  86.1244659
  20.8022137  30.8265171   7.6050959  19.9667530  30.5472660   7.9796062
  20.6912079  30.7135715   6.6610866  42.3963318   3.6794286  32.6658096
  41.7292366   2.9940844  32.7047997  42.0970497   4.2657223  31.9708824
  16.1144371  41.3242455  52.4122887  15.6818743  41.9496689  51.8309441
  15.3967247  40.8885536  52.8719559  18.9988670  53.3892174  84.9375153
  19.2493610  53.4211731  85.8608093  19.2476063  54.2465477  84.5920486
   6.7628465  35.5516357  52.0670853   7.4743390  35.5240059  51.4273643
   7.1933851  35.7643280  52.8951149  50.2553711   5.1601634  20.9050560
  50.1022606   4.8462882  20.0138359  49.7993584   4.5297914  21.4626522
  59.0407028  11.4776096   5.3197865  58.1098442  11.2551975   5.3033600
  59.2223129  11.6805258   6.2374325  13.0087185  57.8731384  64.6595078
  12.8758383  58.4877663  65.3811798  12.1387348  57.5121422  64.4890900
  54.9207001  25.9724445  82.3459320  54.3389397  26.0264606  81.5877304
  55.2702255  25.0818195  82.3166733  10.3739290  22.1137638  72.3631668
  11.0028696  22.5883312  72.9067154  10.4675560  21.1996288  72.6311646
  54.8496284  58.3303185  63.2111092  54.2908630  57.9256172  62.5476112
  54.4955025  58.0196457  64.0443649  63.8748512  66.7795486  66.8191528
  63.2877846  66.2814255  66.2504272  64.5744476  66.1643295  67.0389557
  24.7807255  41.0354691  37.9468956  24.4045238  40.7900925  37.1016159
  25.1123066  41.9233360  37.8128090  17.1166935  24.5711384  77.5562592
  17.4154663  23.9677067  76.8759384  16.5940228  25.2213745  77.0869675
  21.4988575   2.2608273  59.2120399  21.8977394   2.8962982  58.6176491
  21.9111614   1.4276956  58.9837265  26.9676495  50.3823395  31.8404713
  26.9802761  51.3220100  31.6585617  27.8592815  50.1814232  32.1248245
   4.1706653  57.6722603  22.1484432   4.4518185  58.5794868  22.2672901
   4.9860916  57.1771355  22.0699368   8.4235134   7.9472837  29.1891747
   8.5326433   8.8034143  29.6031342   7.7838440   8.0975838  28.4931393
  53.1561966   0.4481681  78.0544128  53.8924141  -0.1621960  78.0134964
  52.3817368  -0.1129956  78.0936584  38.4793701  36.1651039   7.6995311
  38.0646133  35.6728249   6.9911017  39.1390305  35.5677567   8.0520344
  30.7829685   5.5676556  76.7164154  30.5129261   4.6678486  76.5329590
  31.3127975   5.5014634  77.5108490  62.2534943  33.9834213  19.5766716
  61.3056145  34.0862999  19.6613407  62.3647957  33.1374474  19.1428833
   7.3557420  40.0865898  21.8139820   7.3534865  40.9780655  22.1625462
   8.1200428  39.6740417  22.2163239  13.6873446  65.0181274  83.7464294
  13.2052994  65.8448792  83.7651978  13.1933165  64.4665451  83.1398697
  23.7042675  57.5977287  12.6442518  23.6913567  56.9868889  11.9074059
  22.8025265  57.6048927  12.9652529  47.5044670  33.2131004  76.9718857
  47.8102455  32.3279953  77.1701736  47.5793457  33.2848129  76.0203171
  27.8913155  19.6938438  71.5166321  27.0647678  19.3080177  71.2264786
  27.7250881  19.9652691  72.4193649  43.8377380  33.3284531  14.6240988
  44.6139450  32.8104210  14.4110756  43.9974403  33.6446342  15.5133438
  22.2568226  54.8408356  21.8826466  22.8723259  54.3030128  22.3807755
  22.7663155  55.1605415  21.1380405   3.1686785  12.1148920  30.2804661
   3.4086971  11.1972923  30.1514912   3.9912789  12.5939856  30.1803207
   7.7741842  57.7068253  72.5377655   8.4261074  57.5944595  71.8459473
   7.6615624  56.8302460  72.9054031  68.8640900   7.0402460  31.6877136
  69.4069672   7.6589718  31.1991444  69.3220520   6.2036548  31.6063633
  51.1920929  34.9992371  45.1847382  52.0654755  34.6356239  45.3303986
  50.7895737  34.4080696  44.5485535  56.8577118  69.8914490  13.8239527
  57.1705322  68.9960861  13.9531784  55.9091988  69.8026733  13.7308111
  62.7735252  70.7734299  60.1661301  63.2083092  71.6189194  60.0550346
  63.0379829  70.2654953  59.3991241   4.0137477  63.7320709  55.7773170
   3.1340835  64.0323257  55.5486870   4.1221151  63.9842606  56.6943169
  58.6755447  19.2126961  29.6786957  58.4503822  19.2909584  30.6057377
  58.0440216  18.5829029  29.3311749  47.8160057   6.4559693  28.5123138
  47.9443588   6.5372500  27.5672474  46.9366722   6.8018374  28.6652203
  45.2135086   1.2793345  67.3902740  45.3127823   1.5538162  66.4786606
  44.6971512   0.4747239  67.3432693  16.1772118  18.7388535  27.8772144
  15.5710201  19.3794708  28.2491989  15.6421413  18.2267685  27.2708302
  58.7254257  28.6228218   2.5846472  59.6028862  28.6966801   2.9599352
  58.8599205  28.1809540   1.7462579  32.1076393  44.8315849  25.1806870
  32.3712463  44.9158173  26.0970097  32.8279991  45.2237549  24.6872101
  18.5657139   2.4691401   8.3325357  18.5449371   1.6235824   8.7806787
  19.3572369   2.4360893   7.7952919  25.6704788  62.1769295  76.6291351
  26.1570625  62.9434586  76.3259888  25.8886967  62.1068535  77.5584869
  51.7246513  33.1493797  23.5804825  50.9655838  32.5666542  23.5585041
  51.6711006  33.5803947  24.4334698  42.8512383  64.8775635  35.6422615
  42.9842415  65.7972488  35.4126511  43.4561043  64.7219009  36.3676147
  21.8435898  14.4833155  19.9671516  22.6620979  14.6833534  19.5129929
  21.9316216  14.9109650  20.8189716  63.0690765  35.1990318  78.3593826
  63.1652069  35.2047195  77.4070435  62.1255074  35.1293030  78.5044556
  36.2678490  10.9942875   8.2011232  36.1789742  11.8972750   7.8962526
  36.2126312  10.4660912   7.4047608  79.1707153  20.0784931   9.3024464
  80.1072159  20.2742138   9.3322325  79.0835876  19.4304104   8.6034260
   8.3962173   3.3115993  83.0461655   8.9414616   2.5332389  83.1605988
   9.0210705   4.0239043  82.9104691  54.4495239   8.1726522  81.0226135
  53.7403984   8.7575874  81.2894974  55.1792107   8.4029150  81.5977402
  41.1020470  62.0869408  45.8060188  41.8018227  62.4193954  45.2438622
  40.9831429  61.1785660  45.5286255  77.0592957  26.6450462  31.9063034
  77.3746719  27.3608112  32.4580765  77.8117828  26.4125614  31.3622913
  13.1494408  52.4456215  19.0521851  13.9859104  52.8096161  18.7622547
  12.7309980  52.1371727  18.2484474  57.3617744  65.8751602   1.8085833
  56.9688797  65.0315399   2.0325701  58.1028862  65.6522064   1.2453039
  22.9837456  43.2478523  87.4505386  23.7727699  42.7059402  87.4484024
  23.2398300  44.0419273  87.9196854  46.6436768   7.0487065  62.3546982
  46.7704811   6.4685359  61.6039963  45.7520790   7.3815613  62.2522469
   1.7180574  45.6307449  41.2648277   1.5251842  44.9093361  40.6659966
   0.8822437  46.0854797  41.3690605   8.9646273  37.8736420  75.1049881
   8.2702818  38.3969498  75.5053177   9.6431818  37.8209763  75.7780533
  81.2619934  17.2154121  58.9074364  80.3297729  17.4261189  58.8545189
  81.2928009  16.3813572  59.3760872  16.3560638  59.5695953   0.8843411
  16.3266678  58.9802666   1.6380402  15.4395933  59.6810837   0.6315902
  81.1087952  28.3224506  62.3999329  81.6013565  28.3310776  61.5792389
  80.4261322  28.9819736  62.2765007  23.3086777   8.1818972  40.6038361
  23.0293446   8.8351545  41.2452888  24.0840378   7.7788796  40.9945107
  60.6307869   8.5132341  85.7480850  60.5339890   9.2088442  86.3984528
  60.8039360   7.7256160  86.2637482  84.8474274  43.0239029   6.9204783
  84.3589172  42.3039474   6.5214052  84.8774109  42.8056564   7.8519835
  69.2972031  48.4927216  55.5614014  68.8090897  48.1021652  54.8365326
  70.1576233  48.0750313  55.5233345  57.6429024  39.9841843  84.0932922
  58.1442680  40.7312698  83.7666092  58.2976379  39.4144173  84.4969254
  31.1235714  41.0023041   7.1334743  30.9928207  40.0962906   7.4132624
  31.9961948  41.0079422   6.7401190  48.6142693  37.8912086   0.0821672
  48.9908104  38.1438522   0.9251489  47.7832413  38.3642998   0.0396165
   7.5061598  56.5496902  47.9295921   7.0019178  57.3497505  47.7816696
   6.9145513  55.8426552  47.6720505  28.9244022  67.8218384  84.2895432
  28.7028046  67.0410385  84.7969589  29.5017872  68.3248367  84.8638763
  23.5330009  55.9887886  80.4370422  23.7906780  55.3607788  79.7621841
  23.2177963  55.4470711  81.1605225  30.1950169  44.0770836  47.5249748
  30.2517757  44.6758728  48.2695923  29.3929653  44.3351288  47.0707092
  64.9969025  52.5741615  73.8226852  64.0914764  52.5812912  73.5122375
  64.9934235  53.1535378  74.5846176  11.8129854  28.6169376  20.2236328
  11.4002562  29.4648666  20.0596104  11.5089035  28.3673477  21.0962563
  40.6193237  70.6664505  68.4036255  41.1060791  71.3433609  67.9334183
  41.0998650  69.8581161  68.2249756  66.2714996  63.1151199  50.4877701
  65.6208954  63.4847832  49.8908691  66.6285553  62.3623657  50.0164909
  64.6547394  70.0967865   4.1447492  65.0606537  70.0799637   3.2780416
  65.2962112  70.5385971   4.7011228   7.8588414  55.8593941  59.9346581
   8.1483908  56.5987778  59.4001465   8.3430796  55.1096497  59.5887833
  80.5107193  34.2162247  81.7414551  79.7763901  34.3361664  81.1392899
  80.1005249  34.0853958  82.5963516  28.9328461  56.3595276  64.3413773
  29.5206680  56.9729462  64.7823029  28.0755138  56.7839775  64.3738861
  16.0773563   1.0040040   0.4101057  15.3670111   0.4915040   0.0241215
  16.1909733   1.7435136  -0.1869275   1.1530635   1.4269246  23.0892982
   1.9350481   1.8197439  23.4771461   0.7395403   2.1428134  22.6068745
  16.4799805   0.7260247  77.1453247  16.8012581  -0.0314970  76.6562653
  16.0577736   1.2757723  76.4852066  55.8705559  37.5815811  62.5543404
  54.9716148  37.2980385  62.3877983  55.7796059  38.4557152  62.9336128
   0.0606766  52.8953514  64.7442245  -0.2501356  52.1154022  64.2845383
   0.8003044  52.5862427  65.2673264  59.3120155  35.1512032  13.5498037
  59.5254974  34.5368958  12.8474646  59.8521194  34.8684158  14.2877417
  86.5342712  41.8002281   1.8049698  86.1725311  41.2781792   1.0888397
  85.8209152  41.8623314   2.4401789  73.5915375  11.1160135   5.9708095
  73.7833252  10.3148041   5.4834547  73.9114151  10.9404488   6.8557324
  44.5515327  39.7706299  19.6740627  43.9021072  40.4131546  19.9597836
  45.1023254  39.6282120  20.4438534  44.4492989   6.1818910  65.6098022
  44.0216866   7.0168934  65.4196777  44.0124817   5.5528736  65.0355530
  81.5539780   5.0662775  81.7853470  81.8917236   5.6912823  82.4268570
  80.8378067   4.6213350  82.2385178  15.6364040  64.2920074  11.4193134
  15.5757227  64.7190247  10.5647945  16.1583347  64.8930435  11.9508924
   1.2279643  60.6141968  22.1996555   0.8037426  61.4288101  22.4692287
   1.4287323  60.7440300  21.2727966  73.3926926  48.7756805  26.0662556
  73.1791687  48.1113434  25.4110527  74.2888641  48.5701637  26.3324890
  47.3974037  61.5295753  75.5840378  47.7125053  61.0573502  74.8133545
  47.0893478  60.8433647  76.1760254  57.5528603  69.9289169  53.0848541
  56.8910751  70.6096344  53.2068901  57.5853539  69.7934875  52.1378403
  48.9463234  38.9324493  41.2301292  49.4486427  38.4010620  41.8478165
  49.5718231  39.1528625  40.5399132   7.0303879  58.2464027  30.5935955
   6.4298902  58.2928810  29.8496380   6.5335021  58.6116829  31.3256512
  28.2602444  22.3316841  70.7962112  28.1817245  21.4132996  70.5380707
  28.7077026  22.3053303  71.6419830  65.9905090  45.3398895  38.4289360
  66.7431870  45.6344681  37.9161720  65.9656372  44.3923988  38.2952156
   2.7068439  66.8002167  52.0618401   3.2152154  66.0233994  51.8287315
   3.1732228  67.5253372  51.6459999  63.9830627  14.8979006  26.9889946
  63.0336761  14.8250790  27.0869141  64.2764435  15.3123798  27.8003941
  45.6520500  54.9523582  33.9506340  45.9797821  55.2573357  34.7966919
  46.0419731  55.5504074  33.3130379  22.3174934  42.0989075  20.7322788
  21.4455643  42.4195290  20.9628754  22.9108772  42.5869598  21.3031807
  79.4365921  38.7029419  48.4255905  78.9292221  38.5802193  49.2279320
  78.7948303  38.6160393  47.7207375  65.1247253   2.4610713  63.4625473
  65.9915466   2.2326946  63.7982483  64.5232544   1.8976820  63.9494324
  17.6950874  70.8025208  59.9622269  18.2536697  71.5461731  59.7359619
  17.1867237  70.6346512  59.1687393  26.7104607   9.6034794  23.2992153
  26.0300159   9.1076622  22.8438091  26.4314384   9.6077976  24.2148342
  71.9773026  45.8980179  50.9182434  72.7744217  46.4181099  51.0199013
  72.1715622  45.3006477  50.1959953  44.1031036   2.9910371   5.1032624
  44.3310547   3.8941228   4.8825655  43.4710579   3.0712850   5.8176212
  25.2732372   0.1697754  38.6036186  25.7290878   0.3608629  37.7839127
  25.0050316   1.0271716  38.9340248  74.5946960   9.3395863  51.3235397
  73.7187042   9.0271044  51.5498619  74.4666061  10.2566195  51.0809021
  14.9398327  13.1344814  67.3090057  14.0800829  12.7499695  67.4799271
  15.5119410  12.3827991  67.1544189   7.2881541  28.9053764  73.9588699
   7.0243492  29.8253574  73.9423218   7.4315615  28.7139664  74.8857040
   2.8192444   2.6518655  51.3728600   3.1487427   2.6523199  52.2715569
   2.3464375   1.8235719  51.2915230  68.4344101  17.3364315  43.3268204
  69.0629654  16.8802013  43.8862839  68.7981796  17.2586079  42.4448662
  55.3405800  63.8733101  76.9063110  55.0009995  63.0094872  76.6723709
  55.4478912  63.8391037  77.8568573  11.2166939  42.3078995  86.9990082
  11.6016989  41.9077263  87.7786713  10.7836637  41.5836868  86.5470810
  55.1955757  64.5564499  82.4615402  54.7984467  65.3062210  82.9046707
  55.8432045  64.2258072  83.0840225  64.5791702  36.8838730  54.2355881
  65.4866180  36.6185379  54.0860214  64.6456528  37.6687012  54.7795143
  11.5194921  35.0146103  40.1639977  11.8084011  34.8564377  39.2652512
  12.2768059  35.4136925  40.5922966   4.1092129  40.9710732  29.8527527
   4.5485640  41.4787750  29.1705227   3.1943326  41.2486687  29.8062038
  81.9347458  54.7248611  39.9289474  82.3251343  54.2763863  40.6790771
  82.1683197  55.6449547  40.0518494  53.1107368  36.7686958  23.8319950
  53.5836449  36.3031311  23.1421852  52.4792404  37.3142815  23.3631916
  84.0947952   8.0974588  78.2599945  84.0854340   8.2390223  79.2066193
  83.4939880   7.3653154  78.1213531  56.4813042  47.7889786  36.3681831
  55.6213875  47.7116318  35.9549179  56.8011398  48.6492615  36.0964203
   7.1980724  44.1959572  53.6149178   7.1407418  43.5147476  54.2849159
   7.5648518  43.7504921  52.8512001  62.3406296  58.3120041  66.8412399
  63.2884293  58.2361641  66.9515076  62.0741768  58.9572296  67.4961548
  43.0461006  55.9207344  84.8089066  42.1245270  55.6872673  84.6974030
  43.0786133  56.8603058  84.6289673  19.5411053  47.4403496   3.3854141
  19.2644958  46.5941505   3.7370820  18.7344303  47.8395958   3.0596700
  43.7487259  21.4338284   3.4034264  44.2948074  21.2215710   2.6464746
  42.8736076  21.5645561   3.0383141   4.2651420  68.3326035  66.0782700
   3.6485715  69.0190506  65.8235931   3.7526340  67.7438126  66.6322479
  56.2358322  23.6463985  81.2502518  57.0098763  24.1277237  80.9580002
  55.7553825  23.4538326  80.4450684  66.1371994   8.5160818  49.1116104
  66.6073990   9.3479252  49.0552368  65.4976959   8.6493711  49.8112564
   3.6352849   8.9611273  51.6429558   4.0887599   8.5747032  50.8937798
   3.3287153   8.2099438  52.1508675  67.6137466  55.8518829  37.8646812
  68.2171631  55.4306641  37.2525558  67.6915283  55.3387642  38.6689758
  51.3718376   8.8011160  45.0173111  51.0939713   9.4741831  44.3960190
  51.4003639   9.2514839  45.8614578   9.8204842  43.7521133  88.9032364
  10.4598818  43.4981117  88.2377396   9.0085726  43.3245087  88.6308670
  53.6656418  41.9617348  45.9487457  53.7392502  41.9260445  44.9950485
  53.2480621  41.1342812  46.1878700  11.6340828   4.8161287  33.5408630
  10.7331190   4.7069311  33.2366066  11.5466318   5.1176820  34.4451027
  66.8360519  13.7542229   7.4178863  66.5918503  12.9942102   6.8897023
  66.0432205  14.2897129   7.4479756  46.6610031  12.6021557  71.9112396
  47.3865242  13.2177649  71.8069611  46.8960037  11.8587246  71.3559799
  70.7565842   1.9793962  40.4193001  70.8360977   2.7054389  39.8006134
  71.6179504   1.9216106  40.8327522   5.7977643  57.5710106  15.3725443
   6.4715595  58.1125832  14.9615307   5.1200628  58.1925545  15.6383219
  66.3612137   4.5240993  58.8122711  65.4908600   4.8020644  58.5268860
  66.2624817   4.3514695  59.7485809  63.7736511  54.8186836  20.7775707
  63.8875542  55.7357445  20.5280590  64.6413040  54.5408020  21.0711594
  13.0323248   4.7866993  56.1582108  12.8569899   5.6981845  55.9243622
  13.7473879   4.8355002  56.7926674  85.7689209  71.4970398  62.6646194
  85.2952576  70.8646927  63.2049942  86.1852722  70.9669418  61.9849968
  59.4142914  68.5736847   6.4146681  60.2478638  68.8656693   6.7836351
  59.6609688  68.0267563   5.6688395  69.2011871  57.7297783  62.4217453
  69.4979477  57.5313759  63.3098907  69.9645309  57.5583382  61.8702507
  86.2145386  44.2685280  87.5279312  86.3900833  45.1921883  87.3482819
  85.4364166  44.2766151  88.0853271  -0.0210009  12.3674450  79.4367294
   0.2242842  11.6987743  78.7972412   0.7966216  12.8266659  79.6286697
  86.7498932  57.3624153  85.0784988  87.0575943  57.5137062  85.9721756
  85.8370590  57.6503181  85.0875244  44.2092285  19.8107872  21.4060860
  44.8855286  19.4909458  22.0032024  43.4613686  19.2334976  21.5599537
  72.8507996  23.8959923  80.1907349  72.7311707  23.4214134  79.3681183
  72.5639267  23.2810936  80.8658905  24.5455875  67.4436798  50.4406242
  24.8643723  67.6156082  49.5545959  23.6631756  67.0949631  50.3142242
  14.5121126  70.1836166  70.9340744  14.6496687  69.3915863  70.4144669
  15.2000208  70.7827530  70.6441574   4.5485907  29.7604065  58.8665276
   5.0473809  29.0017948  59.1697617   4.7124367  30.4341278  59.5264435
  16.1342297  18.0356846  73.7976990  17.0837383  18.1439075  73.7433548
  15.7812300  18.8905964  73.5512161   7.6809235  62.3267479  50.4616089
   8.1606216  63.0072861  50.9338264   7.3851123  61.7246170  51.1443710
   0.2757606   7.2973623  38.2126770  -0.3249349   7.1574411  37.4806824
   0.2999588   8.2477169  38.3243599  63.8634071  19.4442368  48.0064812
  63.5515594  19.6228046  47.1192970  64.3162613  18.6038418  47.9365654
   1.8946537  31.1896362  18.7137833   2.0468774  32.0125313  18.2491283
   1.9069840  30.5216789  18.0282822   1.9886744   5.6906047  29.0241032
   2.8758872   6.0383954  29.1142540   1.4227226   6.3910255  29.3486671
  50.7026367   6.4577684  15.2890701  51.6163940   6.2347918  15.4667187
  50.3962936   5.7646532  14.7042818  54.1936340  17.5371323  34.8537369
  53.5552139  17.6024971  34.1435394  53.9171753  16.7695942  35.3544235
  15.1767092  10.7066231  12.7482481  14.2577915  10.6845942  13.0153370
  15.5687170   9.9451895  13.1757784  49.8607292  52.8797455  73.8044968
  50.3456764  52.0674858  73.9504395  48.9721985  52.6850624  74.1025696
  66.1002731  30.3986244  88.7306290  65.2110901  30.4251957  88.3772430
  66.1951904  31.2258606  89.2027512  64.4944153  21.7119827  30.8935452
  63.9789505  21.7538357  31.6990108  64.4837646  20.7862930  30.6501999
  31.9660511   8.4211493  21.4617710  31.7152214   8.4224091  22.3855209
  32.9225807   8.4550304  21.4732704  23.8468456   2.8747983  20.1796970
  24.7443676   3.1792598  20.3138199  23.3549252   3.6670330  19.9638023
  61.1085701  60.3590889  57.1445389  60.7447548  60.6727562  56.3166008
  60.4650536  60.6203766  57.8032112  20.2236099  38.4262047   3.1348197
  20.2485905  39.2646675   2.6737447  20.9469776  38.4749069   3.7597997
  72.3384552  32.2882156  39.8205109  71.4334946  32.5648155  39.9646225
  72.3428802  31.3574562  40.0438957  23.1271706  23.1159630  11.3238134
  23.7666855  23.2281494  10.6204891  23.0124531  22.1682796  11.3943071
  46.4362831  42.1202049  45.0806732  46.8229675  42.9931946  45.1484680
  46.8285828  41.7450485  44.2922668  33.6364365  53.4045105   8.2669315
  34.2154427  54.1478615   8.0983715  32.7896538  53.8017845   8.4703188
  68.8572083   8.0998821  36.7287788  68.5325623   7.2164669  36.5543861
  68.2009125   8.6775084  36.3390884  66.9439392  65.8337097  77.8892670
  66.0789032  65.5695419  78.2025833  67.0821381  66.7008820  78.2702408
  56.9802933  46.4862480  23.0680389  57.7877197  46.3215752  22.5810280
  56.3804817  45.7996063  22.7765255  67.7925415  47.7076797  69.9708481
  67.1351166  47.4820175  69.3127441  68.5837479  47.8933754  69.4651489
  54.8974533   9.9877825  59.2463875  54.8634262   9.1357803  58.8114548
  54.0899277  10.0275507  59.7587814  59.7728729  23.9390030  50.7525139
  60.4940033  24.4832382  51.0687599  59.4622688  24.3866329  49.9655037
  76.5766220  20.6722794  80.6099472  76.3068924  21.2900505  81.2895355
  75.9888840  19.9246712  80.7189255  18.8251839   0.8168614  82.4590836
  19.5570507   1.4242841  82.3511963  18.4935131   0.6813951  81.5714569
  37.5159073  34.3710747  61.1323776  36.8417816  35.0501137  61.1061745
  38.0823936  34.5670395  60.3861008  69.3755798  19.5293655  66.0238113
  68.9820862  19.8081837  66.8506470  69.9537354  20.2515945  65.7781448
  80.8907471  37.0106010  44.6107826  81.1808548  37.0057602  45.5229454
  79.9851379  36.7025833  44.6458359  30.9862385   5.6157393  10.7816763
  31.4334354   6.2835937  11.3015003  31.3193626   5.7410192   9.8931017
  77.1953583  59.9075394  31.8268871  77.1952133  59.8237076  32.7804108
  76.2905502  60.1280327  31.6056957   9.6288166  65.4230347  80.3796616
   9.5907164  66.2280197  80.8961716  10.3092480  64.8991394  80.8024902
  35.7916298  36.8401108  83.3616562  36.6288795  36.3766212  83.3822021
  36.0025749  37.6996384  82.9970322  53.2263603  34.0225830  68.7734222
  53.1967850  34.9787979  68.8051758  53.5082664  33.7624245  69.6503906
  53.4819908  52.7358284  10.7103558  53.6570663  53.4889030  10.1460342
  53.6274529  51.9755936  10.1472254  74.6957321  24.9638252  50.9496078
  74.2606049  24.3223553  51.5112267  74.0371094  25.1943054  50.2943726
  30.7114525  51.3469238  32.1996727  30.6896343  51.8876419  31.4101276
  31.5983295  51.4586105  32.5420227  65.1074753   5.8166213   8.8647346
  65.6319809   5.7554116   9.6630945  64.3868561   5.2021546   9.0038939
  45.5712090  51.6815948  60.1923523  45.8687553  51.1209106  60.9088249
  44.8759880  52.2145576  60.5781631   0.8517421  39.9652748  75.5996933
   0.9085804  40.0933800  76.5465775   1.6591997  39.5046959  75.3714142
  70.0417252  39.4242668  53.2262573  70.4840775  40.2726784  53.2537308
  69.9934464  39.1495705  54.1419220   3.0476294   2.8385148  24.8375702
   3.8377943   2.2982669  24.8356609   3.2393548   3.5454721  24.2213860
  14.8891344  66.6048813  70.1322556  15.1553411  67.0271530  69.3155212
  15.6841898  66.1779175  70.4513474  79.6517868  50.0619354  28.1016102
  79.4504089  50.9958687  28.0428848  78.8384476  49.6603050  28.4072418
  30.5411682   5.7236714  19.5279446  31.2244225   6.0276585  20.1254272
  31.0190277   5.3691893  18.7781277  60.3846397  41.0763893  61.1325378
  60.4300537  40.2923584  60.5853043  59.4746208  41.1102829  61.4274063
  26.4154854  38.1061020  21.5396175  25.8928833  38.5892754  20.8995705
  26.1731453  38.4873657  22.3835011  10.5484171  37.5791893   2.6498497
  10.0730019  37.7814522   3.4556422  11.1041002  38.3442612   2.5011439
  25.3542423  40.9944725  69.3542709  24.8369408  41.1742172  68.5692062
  24.8957767  40.2717781  69.7829285  25.5857506  50.8283539  62.1155128
  26.1916313  50.2153778  61.6991005  25.8787632  50.8737144  63.0256348
  52.3489151  46.5183334  62.1172485  51.7162895  47.2353172  62.1613884
  53.1072044  46.8951302  61.6708641  55.4262390  71.6763458  75.9372025
  55.2351189  71.9965286  75.0556183  55.0772209  70.7851257  75.9492416
  84.6880112  70.8804245  74.5699081  84.4524307  71.2095795  75.4373093
  84.4155273  71.5735321  73.9685822  31.4157238  59.7913895  44.4979134
  32.1735344  59.7606659  45.0818748  30.8604851  59.0675621  44.7877731
  53.8787270  18.9248047  81.2717514  54.3428917  19.1282063  80.4597092
  53.9559784  19.7208633  81.7976303  52.7923965  62.7836800  81.7084427
  53.4761887  63.4309044  81.8809738  52.1555290  63.2472649  81.1646423
  12.8197775  52.2771873  21.9393330  12.8500690  52.2561073  20.9828453
  12.6589518  51.3685989  22.1939564  60.9826851  66.6662216   4.9097614
  60.2768898  66.9957809   4.3534570  60.9245453  65.7139969   4.8315272
  32.2904663  59.2752953  87.1119461  32.6329041  59.5501518  86.2613983
  31.3728180  59.5473328  87.0999451  52.8329239  38.6318932  53.1878166
  53.6851768  38.1961174  53.1885681  52.9543228  39.3963814  53.7508888
  68.8564072   6.6080022  64.9595795  68.9329071   5.7866969  65.4452133
  68.3680267   7.1874328  65.5443649  45.2977753  43.4469147  87.2564697
  45.1523743  43.9830780  86.4769669  45.9558334  42.8061218  86.9870758
  46.5870438  23.4939785  47.0537720  46.3660507  23.5579071  46.1246262
  46.3949013  24.3630257  47.4060097  80.7919846  51.8057976  37.7323418
  80.6314545  52.7492676  37.7142601  80.0107193  51.4377823  38.1451645
  31.8695316  42.2215424  51.8990517  31.7458401  43.1147537  52.2201576
  31.7819023  41.6726036  52.6782951  59.6279984  33.9339409  48.7875252
  59.2473450  34.6816826  49.2481918  59.4111290  33.1794930  49.3352547
  63.6023712  26.7616768  79.2947922  63.1252174  27.5455761  79.5669250
  63.6087494  26.2032204  80.0721664  68.7092285  37.5327225  19.0446491
  67.9664078  37.8273544  19.5715675  69.4063721  37.3740311  19.6810780
   0.5811831   3.2844322  81.4730606   1.0539498   3.5202796  80.6748734
  -0.3414684   3.3012602  81.2187729  83.6529312  53.6296921  49.7610397
  84.6063080  53.6710625  49.8358955  83.4178009  52.7904663  50.1568298
  24.3529434  33.7555695  21.1670628  24.9217052  33.8993607  21.9234142
  24.9424629  33.7915649  20.4138012   4.4850950   7.3272629  49.6211510
   4.9296522   7.8483233  48.9524994   4.7099476   6.4216413  49.4077911
  50.3680801   3.4426792   8.0407810  50.5792198   2.8481455   7.3209329
  49.8989029   2.8972447   8.6721334  56.0941391  66.0046539  38.3810120
  56.7031784  65.5808411  38.9857292  55.4451294  65.3296661  38.1824760
  28.0321159  54.2175026  23.2791634  27.3519421  54.7153511  22.8255749
  28.7554588  54.1753731  22.6536789  75.0143890  38.0127029  71.8570404
  75.1629410  37.2628403  72.4331284  74.0842438  37.9645576  71.6362686
  25.4681911  56.6346436  86.7812576  24.7523975  57.2701416  86.7779007
  25.3551102  56.1508331  87.5994110  18.4242001  19.9612999  27.0324593
  18.7386303  19.1662292  26.6020775  17.7015705  19.6644669  27.5855656
  33.9720802  61.7726974  37.1403313  34.2862816  62.5294304  36.6454964
  33.1230392  62.0482521  37.4859200  52.7379761  36.6123886  -0.2155955
  53.6834335  36.5731316  -0.3598248  52.6459274  36.8156471   0.7152352
  71.0983124  15.0857038  76.7104187  70.6514282  15.9318266  76.6858597
  71.7614059  15.1450052  76.0226593  15.5177307  43.6553116   9.6213913
  14.8776274  43.1316719  10.1033707  15.2948542  43.5181046   8.7006674
   1.9911752  61.0593948  50.6121025   1.3685042  60.5412827  50.1021309
   1.9828066  61.9214249  50.1960869  84.1432495  13.7654648  65.3201675
  83.7520294  14.0434523  64.4919739  84.5379791  12.9155092  65.1252365
  65.1150436  23.9010067  24.2704487  64.3551331  24.4546051  24.4501629
  65.6218338  23.9189835  25.0822830  23.7544289  30.5266247  76.8680801
  23.8332329  30.9881630  76.0332108  22.8889656  30.7708759  77.1960220
   7.7229352  66.3739471   3.5417373   8.5164471  66.8818970   3.3727448
   7.1757631  66.9536743   4.0716019  58.1051407  11.3299761  58.8906937
  57.7803497  11.3691797  59.7902565  58.9120293  11.8447256  58.9047356
  72.8268127  30.8185863   6.7953715  72.2266541  31.3743515   6.2982135
  73.0084381  30.0810986   6.2128301  76.9162292  46.8130531  45.2364807
  76.0579300  46.8363647  45.6595802  76.8654633  47.4830208  44.5547218
  79.4047699  27.4784946  46.6942291  79.1304092  27.8550701  47.5303802
  80.3594818  27.4392014  46.7509956  71.9874420   4.2287893  19.5349808
  71.6187057   3.6600225  18.8591309  72.9341354   4.1108313  19.4569683
  70.5776520  25.4448967  78.5241318  70.2169571  24.7785873  79.1090775
  71.2835388  25.8495102  79.0283508  72.3055878  49.5634117   3.5521324
  71.9012527  48.7032394   3.6654871  71.6078949  50.1851845   3.7591548
  30.9062462  51.3313789  50.9990425  29.9571571  51.3115501  50.8762894
  31.0327301  51.8257217  51.8088951  38.1098976   1.8296025  45.5117760
  38.1481895   2.4869316  44.8170204  37.3495789   2.0798864  46.0366592
  55.9470177  11.9327831  57.2658653  56.7517891  11.9409304  57.7840462
  55.3953552  11.2758570  57.6905327   6.8347878  61.4447250  80.0359116
   7.4944420  60.7903938  80.2659912   7.1302657  62.2453880  80.4693375
  53.5349693  67.6547775  38.0546951  54.4012642  68.0597229  38.0124130
  53.0118980  68.1410904  37.4174156  69.6104507   1.6463476  30.4253521
  70.3617401   2.2394321  30.4180851  69.3909454   1.5265268  29.5013981
   7.7002177  47.3142967  57.5755119   7.9566212  48.1809235  57.8908653
   8.2742910  46.7090797  58.0449638   1.4528378  36.7827530  53.4457436
   1.5627096  37.4817963  52.8011513   1.8795681  36.0228043  53.0499992
  67.0195465  47.6686935  13.3633404  66.0868607  47.6975594  13.5766468
  67.4175491  47.1939926  14.0930576   3.1525428  59.0880737  34.4554367
   3.5381823  58.2258263  34.6104927   3.4106841  59.3084717  33.5604401
  31.8458920  45.9540215   8.3125267  31.3198967  45.1626930   8.4281054
  32.7488480  45.6616936   8.4367990  19.9483547  37.2961693  74.9720459
  20.2121964  38.0079498  74.3889542  20.1614113  36.4984360  74.4878387
  46.7422104  67.9274902   9.4428234  45.8476448  68.1863937   9.2215700
  47.1054001  67.5953140   8.6218605  57.4146881   7.2101479  64.7631760
  58.1988068   6.9738402  65.2587051  57.6290817   6.9905052  63.8565216
  54.4560318  45.4810295  59.4982986  54.6331177  44.7042885  60.0289040
  55.2975578  45.6916466  59.0936890  81.7994080  64.8513718  43.7331848
  81.6096725  63.9702911  44.0555725  81.2454147  65.4247055  44.2629089
  53.4348488   1.5906225  45.8770485  53.6493340   2.1681480  45.1444550
  52.7143097   1.0502040  45.5530052  29.5946255  58.4118576  35.4381752
  29.2026443  59.0971756  34.8969498  29.5218239  58.7427063  36.3334236
   1.8942264  57.7462311  72.1161346   1.5418571  57.2848015  71.3551178
   2.3453693  57.0684586  72.6194534  20.3232365  18.9691067  71.3988419
  20.5092430  19.3920708  70.5605469  20.9904766  19.3119698  71.9933701
   6.6496348   6.9390559   5.0400186   7.1052990   7.4701581   5.6931129
   6.4792700   7.5427012   4.3169551  84.8558578  42.0456009  26.8040791
  85.2601242  42.2631950  27.6439896  85.5223389  42.2657967  26.1532784
  81.8421021  55.8507004   2.2467670  82.7982254  55.8671799   2.2889709
  81.5857239  55.1833878   2.8833177   6.7189727  25.3466320  38.2200127
   7.0668125  24.5806751  37.7633400   5.8086643  25.4054623  37.9299965
  59.9341354   0.2734995  59.8434868  60.4861984  -0.4771252  60.0626183
  60.1944771   0.5105554  58.9533997  30.2120552  30.4706573   5.4397936
  31.1019878  30.2313690   5.6986270  30.2021332  31.4272461   5.4725246
  65.3166580   1.7821373   7.8151975  64.4937363   1.3959253   8.1149950
  65.9739380   1.4498513   8.4265900  38.8866005  48.1263428  80.6975708
  38.6116257  47.6689377  79.9029617  39.3394279  48.9074745  80.3797455
  37.0695610  70.9397278  71.3887177  37.9028702  70.8479614  71.8506775
  37.3059540  70.9167175  70.4614487  74.3803711  65.0727081   8.5399942
  73.5496597  65.0636978   9.0154572  74.1282196  65.0511627   7.6168537
  50.3473396  39.3285065  45.1506615  50.3092880  40.0641022  44.5393639
  49.4381561  39.0420456  45.2375870  42.6264725  65.5525055  62.7110367
  42.7619286  64.7282715  62.2435646  42.0552750  65.3213425  63.4435196
  15.4008465  48.5745163  47.7604828  16.1239319  49.1232834  48.0641861
  15.3023682  47.9094391  48.4418068  38.9924698  67.2849960  70.8715820
  39.6514053  67.4282150  70.1922226  39.3832130  67.6507568  71.6651611
  32.9298630  28.5722809  16.3774300  32.2350464  28.0879002  16.8233414
  33.6161423  27.9222851  16.2265720  25.9839706  24.5655708  61.5694237
  25.8818893  25.0407848  60.7448158  26.3576317  25.2087574  62.1718521
  56.5019035  54.5484543  72.7357635  56.7925148  55.4189568  73.0077972
  56.2596893  54.1109047  73.5519180  21.4774647  62.3745499  47.5849571
  20.5223503  62.3369255  47.5342407  21.7602024  62.5097084  46.6805115
  81.7313385  55.2412567  76.6436157  81.7031174  56.0035324  77.2218628
  81.4205933  54.5169449  77.1867981  26.5478802  29.0226669  19.2371273
  26.7073441  29.1192093  18.2982540  25.7735748  29.5597820  19.4050312
  26.1168633   1.5114592  31.7895126  25.7870350   2.1374786  31.1448841
  25.9236298   0.6537433  31.4110737  31.8236485  71.0754089  69.0500107
  32.6044579  71.3987274  69.4994965  31.7614212  70.1561050  69.3093185
  63.3004570  17.4355793  54.2482071  62.5112991  17.8831215  54.5534401
  63.9746437  17.6796017  54.8823662  20.9237556  18.4649315  21.3581696
  20.8030815  18.5240498  20.4104500  20.0720921  18.1816978  21.6908531
  30.8343048  66.5345993  24.1101627  31.3521996  67.1291885  23.5675068
  30.8547783  66.9275513  24.9827461  12.9414511  11.9421520  85.8182068
  12.5183992  12.1947603  84.9975662  12.5162783  11.1204920  86.0638351
  27.2289104  14.0433960  19.2849712  27.2159271  13.0869894  19.2482452
  27.8274937  14.3018913  18.5841789  60.0633354  12.3921852  32.0231590
  59.3867455  12.9964485  32.3286476  60.2200012  12.6477661  31.1141129
  14.7591238  49.6096573  73.2804260  15.2679214  48.8732147  72.9412994
  13.9116383  49.2291908  73.5111771  19.5210800  12.6727543  83.1719208
  19.9390106  11.8768644  83.5007401  19.0215969  13.0064316  83.9171753
  77.4575348  25.9927864  52.5308990  77.9644012  25.4820786  51.8996353
  76.5696564  25.6411457  52.4656525   4.3501759  57.4192390  28.6467781
   3.8597879  56.9108276  29.2927418   4.7733765  56.7612457  28.0952587
  41.4112167  44.7384682  39.4716988  41.5270729  43.9409256  38.9552345
  41.9225502  44.5856361  40.2663155  67.6229935  51.6462669   8.9762325
  68.0092316  52.0287361   9.7641211  66.8561707  51.1688576   9.2929201
  74.6449509  34.3147545  16.1629868  75.0313721  34.1977196  17.0308685
  73.7052231  34.3922882  16.3276882  14.7498693  66.7415390  13.7293673
  15.4777718  66.1286163  13.6258564  14.1538620  66.3049850  14.3379955
  25.5749283  42.3387909  87.6858673  26.1600361  42.9906578  87.2999268
  26.1583900  41.7372093  88.1483612  42.9621086  49.3068352  50.7484665
  42.3421021  48.7152328  51.1748848  43.6545219  48.7327194  50.4210739
  63.4657898  17.9151115  70.7017975  62.9074135  17.3474045  71.2329865
  63.8912544  17.3215237  70.0830383  23.6971569  14.9475403  53.2251472
  23.3122902  14.5792675  52.4298592  24.1260147  14.2046394  53.6498947
  11.1916704  28.3891087   8.1693726  11.0735044  28.9474316   8.9378414
  10.5453014  27.6915798   8.2784281  64.7152557  61.6759415  52.2787933
  65.4698334  62.0701485  51.8412514  64.5183411  60.8958015  51.7602921
  72.3523712  62.9736710   8.9720736  72.9302368  62.5146942   8.3624430
  72.7784195  62.8781548   9.8238916  63.3579216  12.6136494  25.1621094
  63.3154221  13.5369196  25.4111023  63.6710396  12.1675406  25.9489861
  15.6747704  59.0369873  46.3113976  15.3046484  59.6043396  45.6351166
  16.5874481  59.3159828  46.3849564  68.7920456  53.1138115  45.0224915
  68.9531097  52.1702690  45.0272102  68.5759583  53.3244438  45.9308815
  73.3947144  15.2940712   8.8743916  72.9901810  14.5308342   8.4620161
  73.2622070  16.0040703   8.2462406  67.1119232  36.7565193  59.5777931
  67.2340469  37.7055588  59.5524750  66.4163055  36.6216316  60.2213402
   2.7513349  43.7744217  21.9701118   3.2026908  43.9427567  22.7972584
   2.7906826  44.6082878  21.5017662   4.0927572  47.1778717  61.9439888
   3.2077827  47.5054512  61.7835388   4.6136050  47.5320816  61.2232361
  17.7934093   8.6535149   5.0552607  17.2696457   8.0275345   5.5553107
  18.4049854   9.0187855   5.6946235  76.7589645  16.2305908  31.0665836
  76.4858475  15.4672432  31.5754433  76.0405655  16.8550854  31.1672726
  53.2184029  64.3097839  73.0231247  53.9670944  64.8416901  73.2928772
  53.3185654  63.4912834  73.5091858  19.3227749  66.3150711  49.1098175
  19.1917171  66.5455780  50.0295563  19.6344624  65.4103012  49.1317215
  41.2829590  61.6013107  30.5832939  40.4227867  61.8262405  30.9378948
  41.4323807  62.2450829  29.8908615  58.1886406  15.6058846  66.5961990
  58.2599678  15.3071871  65.6895981  58.9163895  16.2181377  66.7046204
  16.2379742  20.2697849  10.9659042  17.1098919  19.8748322  10.9644318
  16.2813129  20.9434109  11.6445656  15.3405809  54.3269119  18.5111923
  15.3778944  54.4125595  17.5585613  16.2553196  54.3624268  18.7908764
  64.1504135  70.6673584   6.9348340  65.0918732  70.5506821   6.8072600
  63.7831841  70.6349640   6.0514750  63.6238365  35.4372749  39.0028152
  64.4798965  35.3373680  39.4192429  63.3729897  34.5475388  38.7544708
  50.6369553  59.2485771  12.1165943  49.7391434  58.9526672  12.2669287
  51.1694908  58.7003822  12.6928921   1.6341603  62.9990463  30.2864285
   2.0112348  63.2042580  31.1419582   0.7046208  63.2083626  30.3779373
  71.9111633  57.0579681   6.7525377  71.5700607  57.4905396   7.5353284
  72.6402893  56.5260162   7.0713377  12.1719036  15.2146978  67.2672806
  12.1338358  14.2585211  67.2447357  12.8534269  15.4422436  66.6348419
  77.3221817  19.9073906   6.4257483  77.2162552  20.6457901   7.0255647
  77.1107788  19.1375713   6.9538760  67.2863312  16.7310238   8.8261499
  66.4418335  16.6256790   8.3880224  67.2090683  16.2080231   9.6241045
  76.2548141  29.6833401  60.5908775  76.1771545  30.5099525  61.0672340
  76.0357590  29.9067230  59.6862526  75.3340683   1.8311325  69.4271164
  75.8320236   1.6774702  68.6242142  75.9683609   1.6980276  70.1315155
  59.1536407  62.5316963  41.9378166  58.9524879  61.7576141  42.4637108
  60.1077766  62.6013870  41.9694061  56.3298645  31.5126114  69.7085266
  55.8357582  31.6852131  68.9070892  56.7879257  30.6902237  69.5350647
  46.4475403  70.9279709  54.5899239  46.3893394  70.0372543  54.9355698
  45.9310341  71.4555206  55.1991386  67.1249008  49.2828865  71.9646759
  67.7340164  49.9992027  72.1438217  67.5915375  48.7206764  71.3462906
  35.8938675  60.0812683  56.1630669  36.1080284  60.8114967  56.7436981
  36.4546471  59.3653488  56.4617577  81.1004486   3.4622505  12.8762302
  80.8076096   2.6776545  13.3397913  80.7279282   3.3750834  11.9988108
   9.5080242  60.2326622   9.7362614   8.8992682  59.7556534  10.3002748
   9.5723810  59.6965942   8.9458685  47.8523140  25.3531189   9.9588423
  47.2096558  24.6667328   9.7796783  48.6893959  24.8912182  10.0054255
  69.8557587   4.0570140   0.2859520  70.2324982   3.3310993   0.7832903
  69.0492401   3.6996827  -0.0856352  82.7525482  29.9443893  22.0740604
  83.6129150  29.5651836  21.8945827  82.9249573  30.8761921  22.2091599
  67.0364532   9.8128490  52.1655960  66.9058990   8.9280252  52.5065880
  66.4812241  10.3657455  52.7153740  77.0442429  26.6756992  35.0209808
  77.3864365  27.5657501  34.9376526  77.2548447  26.4212627  35.9193916
  37.6925583  48.7585487  19.8353653  37.3680992  48.0492134  20.3901672
  37.6171265  48.4188194  18.9436665  75.0953979  49.8562469   4.8469090
  75.3014832  49.2618370   5.5683203  74.1799316  49.6707306   4.6377802
  55.3420334  12.1192408  16.7206993  55.8042450  12.8853941  16.3806973
  54.5042801  12.4630508  17.0308475  70.5876160   2.9402156  47.7254333
  70.1870728   2.1272669  48.0335121  71.1738358   3.2023954  48.4352531
  75.9039154  38.5410004  61.5464020  76.1358566  38.2434731  62.4261246
  75.0796127  38.0948410  61.3522377  17.1633949  69.7127151  65.7824631
  17.3866081  70.3024673  66.5026016  17.3894215  70.2033463  64.9922562
   1.0568486  39.7964897  45.4379234   1.2271565  39.1779060  46.1482658
   1.9236599  40.1113548  45.1815491  30.8211250  36.7262077  71.4938126
  29.9471664  36.4680824  71.2008972  31.3638859  35.9532700  71.3382111
  43.1025314  43.8471909  58.3373947  42.3184166  43.5066071  57.9068146
  43.5648422  44.3258286  57.6493492  31.5123787  64.6115723  34.7362175
  31.5443211  65.5440903  34.9498062  32.1761436  64.4988251  34.0558243
  61.8897095   4.9367251  19.1827450  62.3589439   4.1131573  19.0493717
  61.0211334   4.7802343  18.8121815  81.0599823   9.5363159  19.5164433
  82.0158386   9.5758219  19.5480881  80.8691635   8.7197609  19.0548611
  86.0345612  21.3941250  38.2355423  86.5239716  20.8042259  37.6621933
  85.2148056  21.5563698  37.7687340  46.4716644  66.3217850  69.5728073
  46.9402199  65.7174377  70.1485291  45.5551376  66.0538254  69.6392365
  48.3350105  54.2035675  88.2122040  48.0922546  54.8914719  87.5924530
  47.6058655  54.1709137  88.8314896  18.9133320  42.7222176  57.6128464
  18.0701656  42.5078888  57.2136421  18.7263794  42.7824326  58.5496788
  48.6957893  19.9743080  55.6530228  49.3682976  20.6511822  55.5768433
  48.0013618  20.2586689  55.0587654  66.8041611  68.3274536  21.9892216
  66.0110474  68.7994080  22.2430973  67.4953384  68.7139511  22.5269337
  35.3237915  57.3438606  84.1052322  34.8681259  57.9539108  83.5251923
  34.6273193  56.9404144  84.6232910  72.5920105   9.9018660  47.4368782
  73.3787842   9.5051308  47.0629654  72.7411423  10.8445349  47.3636246
  33.5917854  43.2114868  79.4780960  33.5767326  43.6360817  80.3358383
  33.9763947  42.3507309  79.6436462  78.1219482  31.2851257  77.5012970
  77.4753036  30.6130104  77.2860260  78.5023956  30.9946995  78.3302307
  59.5591393  46.2941246  47.6866684  58.7197380  46.6629028  47.9616890
  59.8490448  45.7736168  48.4358406   7.1636586  33.3810921  78.4797516
   8.1130543  33.4004745  78.3593216   6.8164697  33.8520813  77.7222137
  49.2778473   7.7708316  69.8165741  48.8234100   7.0632210  69.3593979
  49.1914406   7.5510120  70.7441711  68.0879059  25.0723896  41.8892555
  67.4926147  25.8219604  41.8914413  68.5951080  25.1716900  41.0835762
  33.0054359  35.6675949   2.9195757  32.8363342  36.5659676   2.6357300
  32.2657127  35.1652374   2.5779927  20.1004658  48.4296989  78.9157944
  21.0319901  48.6330757  79.0002518  19.9776611  48.2521935  77.9832458
  54.5159073   5.8302102  40.4442902  54.8995819   5.7440619  41.3169899
  55.0590019   6.4863958  40.0075951  72.4978104  45.3673134  80.7446899
  71.9589233  44.6059952  80.5296783  71.8748474  46.0179901  81.0683670
  28.8008823  38.1898270  16.0458450  28.0187607  38.5081482  16.4966106
  29.5129757  38.7266045  16.3937321  67.1617355  33.1156693  64.5169754
  67.5508957  33.3955917  63.6884689  66.2672882  33.4553375  64.4883270
  76.6719360   9.6811981  32.1068001  75.9647903   9.4606485  32.7130470
  76.5887833  10.6256599  31.9752331  56.7508965  10.1344156  15.3960581
  56.3847237  10.0018911  14.5216522  56.0404625  10.5381517  15.8945665
  25.0226021  37.0500069  76.9510727  24.3744183  37.6289673  77.3521957
  24.5772991  36.2058182  76.8784027  83.4461136  31.4242191  75.6374435
  83.9235153  31.9800167  76.2534103  84.0472260  31.3114567  74.9011078
  23.5303116  17.6827030  81.6613007  24.0058308  17.4528122  82.4595871
  22.6078339  17.5729275  81.8919983  57.8302689  42.9603577  35.4888153
  58.6414604  42.7695770  35.0178528  57.8025665  43.9157410  35.5408821
  46.1745720  18.8596725   0.1393912  45.5383873  18.7420425  -0.5660610
  46.3313255  17.9753380   0.4704709  45.2937126   9.9799213  83.6690750
  45.5011559   9.3243437  84.3349762  46.1371346  10.3783236  83.4542694
  38.7013779   4.7970562  21.5010052  38.9614906   3.8973198  21.3034000
  37.8594856   4.9056249  21.0586700  37.4976959  19.2983475   6.0875688
  38.4433746  19.3926620   6.2017207  37.2399864  20.0671883   5.5789418
  68.3514633  15.8610878  61.3578987  68.1345215  15.8337460  62.2897911
  69.2758179  15.6154013  61.3198662  43.0869751  60.7897339   0.7156633
  42.8524475  60.7269821  -0.2102367  43.9897919  61.1077690   0.7130363
  49.5705757  21.6107693  23.9357185  49.0324059  21.8611488  24.6866627
  50.2675095  22.2664490  23.9112682  53.2542992  11.6633615  31.9915199
  53.0104713  10.9993601  32.6364098  53.8674469  11.2165976  31.4078388
  47.8576546   2.9003420  32.8544044  47.3297234   2.6089866  33.5977974
  48.3138390   3.6784143  33.1749191  34.0149117  64.9297409  44.5585289
  33.4521484  64.8522034  45.3289261  34.2720222  65.8516083  44.5415382
  54.1084061  44.3032951  63.6298943  53.9527550  45.2396355  63.7534790
  54.1507263  44.1908226  62.6802673  45.6515388  65.8657837  13.0246105
  46.1636353  65.4854355  12.3109388  46.2297592  65.8184814  13.7859612
  17.6932716  64.3648529   2.0117667  17.4125881  63.7400131   2.6803646
  17.4344177  65.2187729   2.3582366  27.7056808   1.6136901  26.5090771
  27.4761868   1.8513112  27.4074650  28.5820751   1.9769207  26.3816891
  71.3423004  54.7177429  24.1644650  71.7714157  54.6064339  25.0128193
  71.0529327  53.8372993  23.9250698  69.1950073  63.8623505  37.4697609
  69.7761307  63.9836502  38.2206383  68.6972122  63.0715904  37.6774406
  -0.0664406  20.8634605  17.2084694   0.8592409  20.6478481  17.0950794
  -0.1157686  21.8042107  17.0388012   1.4622128  10.8190250  51.0395508
   2.2535298  10.3792458  51.3504295   1.7800723  11.6259632  50.6345215
   2.9745393  47.7841148  15.1347227   2.2892950  48.2971001  15.5631113
   2.5383253  46.9734116  14.8725882  51.7233238  48.9489861  -0.0082434
  50.8737068  48.6400032   0.3062672  51.7200089  49.8881760   0.1765387
  19.5501614  50.3980026  83.4140549  18.8017139  50.8766060  83.7704239
  19.1854553  49.8863144  82.6919785  21.3613243  45.2748184  18.9571171
  20.5894527  45.8241844  19.0936565  21.7650642  45.2096672  19.8225536
  37.8532791  55.1213837  63.7005234  36.9441071  55.3696251  63.8678970
  37.8325386  54.1667213  63.6340332  50.1502762  55.2604752  11.9764071
  50.4840965  55.3100586  12.8721399  50.8806992  55.5542793  11.4319849
  81.5823288  59.2157631  45.3131332  81.6142883  58.8163834  46.1824455
  81.9976807  60.0706177  45.4268723   0.7849115   1.8996146  31.1502647
   0.9307587   0.9565898  31.0749989   0.3003738   2.1310318  30.3578625
  19.8845329  52.9488602  79.0262146  19.0521812  53.2632790  78.6732788
  20.1870041  52.3033638  78.3874054  22.0008850  21.6204700  59.3560410
  22.4832745  22.4444904  59.4232941  21.1786690  21.8585415  58.9276543
  55.5461311   9.6545010  18.9498386  54.7223473  10.0934944  19.1617317
  55.2861557   8.8984795  18.4234600  42.2670517  36.7757187  50.7520638
  42.6818695  35.9958153  51.1207199  41.7075043  37.1046257  51.4556007
  63.4298363  55.9697914  65.1824188  62.5124588  55.7723427  65.3712616
  63.4863853  56.9235649  65.2403336  67.3455200  48.2858353  75.9789200
  66.7694778  48.8359528  75.4480896  66.8875885  47.4474220  76.0388718
  47.0539818  38.5269966  75.0805893  47.4137611  37.8933563  74.4598694
  47.2048035  38.1328316  75.9397278  57.1067009   5.7864494  58.8324585
  57.4737282   4.9218683  59.0169067  57.8578720   6.3116255  58.5564842
  55.0266724   5.6254821  80.6979218  54.1633911   5.3066516  80.4346313
  54.8605423   6.4963217  81.0588531   1.5267895   5.3051600  57.7875366
   2.0962422   6.0744495  57.7997360   0.8877400   5.4691916  58.4810371
  26.1664619  60.3378410  84.8343201  26.3454552  61.2750397  84.9108124
  25.2404556  60.2894516  84.5968323  85.6918106   3.9203002  35.6778107
  86.1115799   3.7592914  36.5228500  84.8434982   4.3034816  35.9009171
  27.8610897  33.5470200  56.9453163  28.7436523  33.1842613  57.0209541
  27.4003334  32.9377556  56.3684845  41.7915115  15.9522324  83.5207748
  42.5990791  15.7097282  83.0677185  41.2049332  16.2462635  82.8238525
  49.4708633  64.2001038  13.2784634  48.8374176  63.8490524  12.6525688
  50.1514320  63.5291595  13.3322964   6.4238882  60.6951065  67.9724045
   6.2284269  59.8002319  67.6945038   5.5854816  61.1530495  67.9124451
  17.8929253   4.2900791  77.0886688  17.8156471   4.5212588  76.1630249
  18.7601433   4.6056733  77.3427658  13.7524118  61.4043427  83.0725174
  14.2736320  60.8349800  82.5064850  12.8447113  61.1836052  82.8637390
  23.2818260  12.5105762   3.9480441  22.4463882  12.0987968   4.1687527
  23.5529099  12.0821657   3.1361268   7.0490856   4.6503673  42.2086487
   6.6580272   3.8243322  42.4932022   6.5709019   5.3218713  42.6951180
  50.4136734  25.8132687  72.7830124  51.0829010  25.1348343  72.6930542
  50.6779671  26.4939671  72.1641235  55.7014847  54.0039444  38.5373611
  55.6552696  53.6768723  39.4357605  55.2794724  54.8623543  38.5729790
  26.1362114  53.2164612  14.3272972  25.4758358  53.0604935  15.0024366
  26.9723186  53.1068726  14.7802286  85.4914322  48.0216904  52.6176949
  85.4639893  48.2808952  53.5387230  86.1984177  47.3780861  52.5709763
  35.3270569  46.7001686  29.5332489  34.5656395  47.2507782  29.7157459
  35.2809372  46.5319672  28.5920734  83.6454697  70.1178131  64.4657745
  83.3234482  69.5406189  63.7734032  84.0915375  69.5322266  65.0776138
  36.0848923  69.5987778  10.8198633  36.9601784  69.9759293  10.7311964
  35.7432289  69.5737000   9.9260693  57.1859283  11.7547140  82.9128876
  56.2838440  12.0692835  82.9722443  57.7083321  12.5472546  82.7895737
   8.6017666  57.4614754  51.9232292   9.4889631  57.2159920  52.1856270
   8.7123480  57.8852882  51.0721207   8.3484793  11.4272804  23.9376965
   9.0655432  11.6368828  24.5361252   8.4392042  12.0592575  23.2245293
  64.9361877  19.4755669  76.3651123  65.7307358  20.0083408  76.3322983
  64.5509644  19.6723423  77.2189941  26.7111797  19.2093945  48.0196724
  27.4516640  19.0764999  47.4278488  26.3785934  18.3279209  48.1888580
  25.5493679  26.6412792  10.8663473  25.7080841  27.5773697  10.7447920
  24.6422424  26.5892677  11.1674299  59.5415497  65.8740158  48.7074203
  59.0683632  65.1360855  49.0918503  60.2421837  66.0609283  49.3322449
  32.8117065  34.4460068  78.4418182  33.4509544  34.7742386  79.0741577
  33.2123756  34.6113548  77.5883789  61.7655678  54.2019577  84.6894836
  61.6373291  53.6847496  83.8943176  61.5184364  53.6118622  85.4014816
  16.0304050  40.2134895  63.3796692  16.9428520  40.3705215  63.6225967
  15.6446247  39.8002281  64.1520844  64.5163803  30.3572731  39.2638054
  63.9158783  29.8039989  38.7642860  63.9480324  30.9827518  39.7132301
   3.0042257   2.9532504  82.8943100   2.1790268   3.2434394  82.5056381
   3.6755877   3.2484853  82.2792206  51.3616066  36.8811302  19.7130470
  50.8289108  36.5151672  19.0069752  51.0765076  36.4109383  20.4965439
  25.2493362  22.3095856  72.9785385  25.2518940  22.3658028  72.0229950
  25.9530544  21.6941662  73.1841431  65.1202469  60.5518837  64.7385712
  64.4492188  60.8026237  64.1036758  65.7867737  61.2349281  64.6649551
  68.2291412  40.9783897  63.3065605  67.7813492  40.3198853  63.8376732
  68.2175827  41.7692337  63.8456917   5.1984186   8.4214516  13.5742979
   4.9485598   9.3451090  13.5999594   4.5593705   8.0166674  12.9877834
  76.3977737  52.9751053  21.8246517  76.0759888  52.4012794  22.5199280
  77.3461609  52.8455276  21.8269043  39.7259865   4.0914311  66.2119522
  38.8348579   4.4272966  66.3084869  39.6213913   3.2686620  65.7341003
   1.7404655  32.7065430  12.2322359   1.1460540  32.6724243  11.4827414
   2.4685340  33.2527084  11.9358435  67.0334625  48.1398354  36.8715630
  66.8959961  47.8775482  35.9613190  67.7004395  48.8248405  36.8253212
  48.7448730  55.5267906  78.1461182  47.9655418  55.8546066  77.6973267
  49.4411774  55.5874443  77.4921188   3.3884506  42.2545586  10.5784388
   4.3218994  42.2587776  10.3665733   2.9506702  42.1821098   9.7303047
  49.6661263  50.0283546  21.3567562  49.6600876  50.7662239  20.7470474
  50.5656242  49.9939804  21.6822586  85.0431213  35.7072258  43.4358521
  84.4081497  36.0863533  42.8281441  84.5326385  35.5038452  44.2196083
  82.4165726  48.8365746  22.3699894  82.0450821  48.9104919  21.4909191
  82.6465378  47.9113846  22.4558086  83.8547821  59.8038521  15.7824202
  84.0248947  60.6226425  15.3167219  84.5188293  59.1983833  15.4527388
  85.9651489  70.2660065  15.8016033  85.8455353  70.8463593  16.5533428
  85.0826263  69.9600372  15.5924110  20.5660400  66.2956314  81.5118942
  20.7586403  66.0668793  82.4211884  20.0298367  67.0862503  81.5722351
   4.0721002  31.3456135  67.8601074   3.9883144  31.3520088  66.9066010
   4.6891785  30.6367283  68.0415726  67.1537476   6.1577187  83.9914474
  67.4939117   6.4925885  83.1617661  67.2976685   6.8701420  84.6143188
   3.1433191  58.1538696  64.6469040   3.1749785  58.7050514  65.4288406
   3.8070557  57.4815483  64.8007507  53.8985710  30.3773327  63.8626900
  54.6078033  31.0110722  63.9703865  54.0463638  29.9973469  62.9966660
  28.8739414  11.0098829  22.2231865  28.0800114  10.8094463  22.7188988
  29.5099621  11.2762918  22.8870659  24.4069672  38.9611816   9.9631405
  24.0116196  38.5821991  10.7481918  23.8386936  39.6987000   9.7409630
  48.8291473  44.0524979  81.7818375  48.0976868  44.6320267  81.5688934
  48.7137184  43.2986526  81.2033768  33.3151169  21.8385963  80.3301697
  32.8431282  22.5288277  79.8642960  33.7406845  22.2896175  81.0593491
  59.9939575   5.0988269  13.5062828  59.1707191   5.5679226  13.3704205
  60.1526299   5.1613541  14.4481668  30.5587921  46.0551720  49.2997818
  31.2434616  46.5155106  48.8144493  30.7314129  46.2674675  50.2170410
  34.8445206  49.7499199  54.0637665  34.2068405  49.5837440  54.7580147
  35.6172295  50.0799522  54.5222855   8.2348003  65.3693314  77.6787872
   8.6824265  66.1160507  77.2809601   8.5717049  65.3373795  78.5741730
   4.6395936  39.4150696  67.7812500   4.0819254  39.7555046  67.0817261
   4.5222163  38.4659615  67.7406616  79.9888382  61.2521591   5.7341332
  80.2782822  62.0083466   6.2446561  79.0447311  61.3761978   5.6366086
   3.9779050  60.7908440  76.2101517   4.9017329  60.5838852  76.3513641
   3.5833359  60.7309799  77.0801849  65.9905167  19.6680927  80.9874802
  65.4829102  19.0612717  81.5263062  66.8560638  19.2645054  80.9228745
  44.4644623  51.6672516  72.0677261  43.5721436  51.3251114  72.0135422
  44.4915009  52.3697014  71.4180603   0.1937237   9.2637615  41.9176712
   0.0941158   9.9656677  41.2745247  -0.1352664   8.4827347  41.4727058
  26.7516556  41.7451248  16.2649746  26.4733486  42.6558800  16.1685486
  27.2568130  41.5638504  15.4723902  83.6991882  47.9316177  86.1699219
  82.8114090  48.0358658  86.5122833  83.7753754  48.6041412  85.4930573
  79.6187515   0.4685085  66.6544724  79.2899628   0.9619759  67.4058838
  80.5576019   0.3796916  66.8185043  34.3179970  13.0239944  71.3786621
  34.5518570  12.1442575  71.6746368  34.1030273  13.4977694  72.1821289
  21.3062820  69.8550034  69.7905731  21.5127716  68.9300156  69.6564865
  21.7330246  70.0782013  70.6178055  62.2838593  17.1861115  34.5474701
  62.6398239  17.6439972  33.7859840  62.9713974  17.2528839  35.2100868
  57.3000450  14.7195787  53.5736046  56.9362602  15.5552483  53.8660889
  56.7601509  14.0585413  54.0069313  83.0734940  31.7886086   2.6122561
  83.9550323  31.4938850   2.8408463  82.5051651  31.0597878   2.8613644
  71.2431717  15.9153948  73.2155685  70.6823883  16.3370705  72.5644684
  70.6493988  15.3570757  73.7175064  68.4166794  45.2654495  77.5790482
  68.8652573  46.0004616  77.9971008  68.9859543  45.0211487  76.8493423
   0.9255925  22.1774273  72.7156525   1.0375125  21.9954662  73.6487122
   1.4614314  21.5167198  72.2768250  16.9511871   5.0743041  20.6224575
  16.3587112   4.3421531  20.7932167  17.3331909   4.8787580  19.7668495
  69.6369629   7.0254612   7.4296050  68.9490356   6.5470057   6.9669280
  69.1650620   7.6453929   7.9856839  53.7061348  14.9243603  24.4072876
  53.9570961  14.1512575  24.9128189  53.0368843  14.6071386  23.8008976
   9.9036188  39.1620102  60.4113007  10.4593811  39.3163414  61.1752014
  10.0761900  38.2520866  60.1694603  66.2016830  25.5860081   2.9399865
  65.6072693  26.3349476   2.9847169  66.3543091  25.3464355   3.8540664
  38.4369926  33.7928772  20.2687607  39.2513580  34.2777863  20.1349411
  38.5112877  33.0351982  19.6885586  12.4657946   8.1644020  52.8807106
  12.8864775   8.0580215  53.7339020  11.9805174   7.3497996  52.7497063
  18.9192562  43.5668106  35.5854607  19.3774395  43.0000153  36.2059784
  18.3541164  42.9731750  35.0910454  19.3169308  56.7607651  64.4691162
  19.0994473  55.8295364  64.4273376  18.7719269  57.1645393  63.7937126
  64.3278656  24.6381073  43.8631744  64.4894180  25.4544964  44.3360825
  63.3907127  24.6551666  43.6690712  12.8058033   2.7145033   4.4740396
  13.0108624   3.6081910   4.1992583  12.5195656   2.8031640   5.3831267
   3.1200335  33.5786896  62.7145195   3.9298058  34.0389786  62.9350548
   2.6081100  34.2183647  62.2195663  59.4811859  45.1445045  45.1269913
  59.3959579  45.3792992  46.0510254  59.7677650  45.9519157  44.7001534
  59.3722115  53.0428543  77.0754013  58.9615974  53.8443413  76.7509842
  59.5773048  53.2324638  77.9909439  51.2376480  29.5679169  68.5086136
  52.0266685  29.2548828  68.0662537  50.7852631  30.0929947  67.8484039
   3.4183400  60.3499565  57.0187225   4.1292167  59.7508430  57.2466469
   3.4095988  60.9922333  57.7283936  23.3566322  55.4533348   8.4242134
  22.8159008  55.3023224   7.6489477  24.1575813  54.9562187   8.2581196
  31.1498089  38.7368431  24.8061943  31.6507607  39.4394913  25.2203979
  30.2844200  38.7883186  25.2120056  27.1471272   3.6676309  68.8338165
  27.6716862   3.7170668  68.0346756  26.2413692   3.7257984  68.5297546
  55.6761932  51.3957558  37.8843346  54.7617264  51.1343422  37.7764473
  55.6333160  52.3170586  38.1404495  29.1792278  58.5679855  40.8795700
  28.5048637  59.2398033  40.9802132  28.8626595  57.8307610  41.4015961
  61.3956757  47.5214996  19.9962101  61.5982857  48.4388847  19.8129349
  61.0609779  47.1798630  19.1670570  67.3328323  66.7974701  69.7074203
  66.5351868  67.0051575  70.1941071  67.1112442  66.9816208  68.7946091
  26.3351440  66.8362350  11.8445320  25.4842663  66.5340195  11.5268784
  26.2220917  66.9177628  12.7915297   0.3883452  37.9143677  25.0448685
   0.6048655  37.8862381  24.1129036  -0.4996946  38.2704277  25.0738029
  85.5051956  30.5869484   2.8441317  85.9567108  30.9811287   3.5904498
  86.0420074  30.8228970   2.0875618  82.1458435  54.6773911  66.8524551
  82.3497925  55.5443115  66.5016251  82.9694290  54.3736534  67.2341537
  13.3037891  37.7207260   8.0491571  12.5950489  37.5041122   7.4433546
  13.2955389  37.0107574   8.6911125  17.2500877  12.0465345  82.0112457
  17.1230545  12.5927887  81.2355499  18.1892109  12.0978575  82.1891479
  51.8921776  28.0283298  77.1083755  51.1386147  27.9606762  77.6947174
  51.5737801  27.6945591  76.2696533  33.8675232   1.0140722  19.6198902
  34.5936699   0.6290029  20.1104641  33.5908165   0.3222069  19.0190678
  23.9636135  29.3123741  85.0513382  23.3181515  30.0191879  85.0463028
  23.5906219  28.6433105  84.4773483  22.3996658  67.8924713  67.3439255
  21.9106750  67.8196945  66.5242767  22.8298111  68.7459488  67.2912292
  41.1376762  44.5524063  47.7144127  41.9351425  44.0761452  47.9456177
  41.2377319  44.7491608  46.7830124   8.8875895   4.4048986  40.2635880
   9.6702471   3.9578238  40.5857735   8.2791395   4.3848524  41.0022507
  63.3642387  56.9238853  37.7699051  63.7863808  56.2755203  37.2063065
  64.0590897  57.2178230  38.3589897  82.5115662  13.5538406  41.8872032
  83.2691345  13.8620777  41.3899078  82.3780823  12.6546183  41.5875168
  28.8806286  62.3821640   9.5553350  29.4480801  62.3802032   8.7844744
  27.9949245  62.4589462   9.2005587   5.0820918  39.6282234  89.2953949
   5.3436141  39.8164024  88.3940506   4.1339221  39.7592278  89.3019943
  36.7072411   9.6824589  78.4631882  35.8878365   9.8371515  77.9932098
  37.3558006  10.2060242  77.9925690  12.2661724  10.9196939  65.4455872
  12.3440046  11.2598410  64.5542526  12.3302717   9.9698572  65.3459167
  11.3484259  55.2328377  54.0590324  11.8621416  55.7171135  54.7054138
  10.6082935  54.8827324  54.5548782  68.1728821  41.0001984   4.5802660
  68.3206482  41.8871574   4.2520933  68.4326248  41.0390167   5.5007319
  43.1671104  27.9440975  71.4751816  42.9590454  28.7521076  71.9442902
  42.5318336  27.3070374  71.8020020  57.7668610  61.6986656  23.1152401
  58.4099960  61.3647423  23.7406235  57.3786201  62.4564705  23.5525398
  42.0411224  10.6977825  66.3355942  42.4502029  10.8174448  67.1926575
  41.1711235  11.0858269  66.4291763  64.1809540  61.4714203  40.0809441
  65.0878220  61.1875343  39.9659348  64.2501755  62.3734970  40.3935127
  43.6435928  24.0108624  42.0193596  44.1022072  24.7388649  41.5999336
  43.3171158  24.3755360  42.8419495  57.2909737  36.7617188  55.2249222
  58.2395210  36.6948509  55.3345642  56.9825211  35.8559265  55.2500343
  85.0865021   8.6094484  44.2801819  85.4898758   8.5566988  43.4137268
  84.6978607   9.4836702  44.3106270  72.4008560  38.5492783  58.5974770
  73.3154831  38.5912971  58.3183327  72.2972717  37.6638641  58.9461174
  22.4575481  44.2076874  23.0951614  21.8728027  44.4188271  22.3673401
  22.0274105  43.4802856  23.5447159  20.8761730  42.2492256  26.4099598
  21.6387959  42.2058487  26.9868107  21.1597252  41.8156853  25.6050549
  48.2397308  13.4507790  29.0260315  48.8944054  12.9852438  29.5465221
  47.4147377  13.0097399  29.2287674  41.2108154  70.1241608  61.0988388
  41.2257156  69.1672974  61.1192551  41.7857323  70.3571548  60.3698540
  77.4716415  71.3060837  86.8447189  77.0606918  70.4945831  86.5467148
  76.9988098  71.9979324  86.3821106  23.4953079  69.1589508  48.2031097
  22.6869240  68.6485901  48.1553688  23.8008213  69.2089691  47.2973518
  47.8409882   2.9327736  74.8951187  46.9995499   3.3510547  75.0774765
  48.4926186   3.5945928  75.1266403  31.4847221  22.9159184  11.1828880
  32.3541489  23.0472679  11.5611391  31.5764236  23.1907120  10.2705765
  77.6781082  20.6888638  54.5898209  77.4612656  20.2203941  53.7837524
  77.7700424  20.0011215  55.2492065  76.1477737  65.4197540  67.5213394
  75.8372498  64.5192795  67.6159363  76.8869781  65.3559113  66.9165802
  37.9734764  58.3674927  65.8572159  38.8064957  57.9228783  65.7002792
  38.1122284  59.2574501  65.5332489  71.4528656  44.9759445   0.8865263
  70.5444183  44.7455673   0.6919096  71.8279648  44.1777191   1.2585108
  32.2261810  48.4700050  30.7252464  32.9961319  48.9117355  30.3670883
  32.1531372  48.8034058  31.6195297  76.0303574  14.5279589  20.4833794
  75.1790085  14.2805986  20.8442802  76.6578217  13.9756756  20.9497547
  62.1187019   7.1760955  45.7734756  61.3930168   7.5743589  45.2928505
  62.5870514   7.9173031  46.1575241  44.4627342  64.6638412  21.2285519
  43.9749489  64.7133713  22.0506496  43.8427048  64.9635315  20.5637341
  47.8478394  64.9847183   8.1898632  46.9112473  64.8444061   8.3289423
  48.0742302  64.3947830   7.4708648   9.8413877  68.2976761   3.4442043
  10.4818888  68.9482498   3.7318561   9.9149122  68.2948685   2.4898365
   2.7275422  28.6436520   5.6395836   3.0576794  28.1436539   4.8930969
   1.8164133  28.8339539   5.4162874  37.3679619  67.9753723  49.4603882
  36.6804886  67.4776001  49.9029198  36.9295158  68.3724518  48.7078400
  55.8342972  68.1819839  22.1264877  55.2261505  67.4949112  22.3991070
  55.2721062  68.8795395  21.7894516  86.2012482   6.0001416  77.4083176
  85.5745773   6.6312752  77.7621384  87.0284882   6.4801254  77.3693466
  81.3355408  24.1456852   3.1602809  81.7140732  24.2063065   2.2831986
  80.3983078  24.2872772   3.0269690  15.2048054   1.8115737  54.9609985
  15.7574902   2.5924592  54.9295387  15.4126196   1.4047893  55.8021698
  38.3264847  60.9268799  17.0676270  39.0443993  61.3503113  16.5969486
  38.7550926  60.2742424  17.6213341  76.3146210   5.7065821  46.1863670
  75.4510345   5.3135352  46.3127518  76.8686523   5.2835126  46.8423347
  64.9161835  12.2831354  81.7520294  65.8015747  12.2556744  82.1147232
  64.7109222  13.2161169  81.6916199  71.3283005   4.0395293  10.3072186
  71.6650848   4.8094478  10.7655096  71.5981674   4.1652174   9.3974915
  11.0597572   2.5105042  28.7123890  11.8032703   2.4706755  29.3139172
  11.3901062   2.9935534  27.9549179  72.9825134  65.1581650   6.0575027
  72.5650787  65.9876480   5.8252530  72.2554779  64.5818939   6.2932124
   6.3336878  69.1814880   3.6157355   6.5623221  70.0787354   3.8584540
   6.5072608  69.1360931   2.6754999  78.4612503  40.3325729  56.2477875
  78.3948593  40.5706673  57.1725197  77.5826950  40.4818268  55.8983574
  22.2277031  66.1193771  50.4394989  21.9828453  66.2174988  51.3596344
  21.6807194  65.4011612  50.1213722  74.8984985  20.7457447  46.1024055
  74.9940720  21.6905785  46.2223473  74.2408066  20.6571903  45.4126015
   3.6469245  67.0397034  77.6124191   4.4290867  66.5189590  77.7948532
   3.2922039  66.6647568  76.8063049  46.7940750  63.7226028  58.6224136
  47.0971718  63.8207779  57.7197914  47.5877266  63.5310745  59.1220818
  19.9634209  43.4936790  87.8445358  20.5148964  43.5616531  87.0651245
  19.8563671  42.5522995  87.9808350  46.3219795  48.9143028  14.3788137
  47.1051750  49.4423752  14.5336609  45.6232681  49.5551109  14.2469044
  13.5549669  68.5776138  24.4765282  14.0542202  68.2578278  25.2280025
  14.1011066  69.2692795  24.1029472  69.7897415  70.3824081   1.5197935
  70.0439758  70.0978394   2.3976402  69.1500549  69.7307968   1.2326629
  46.3333054   6.9087162  32.0614548  46.5400085   7.0709605  32.9818802
  45.8053932   6.1103191  32.0716629  63.9539490  56.9613762   7.6718884
  64.0093231  57.7008553   7.0666304  64.7135239  56.4195328   7.4581561
  62.3573952   0.0084540  26.6126308  63.2049789   0.3400951  26.3162403
  61.9021912   0.7806370  26.9484215  28.1720200  39.2441330  77.6694794
  27.4660435  39.5024796  77.0769577  27.8498878  38.4486694  78.0933914
  44.1249809  56.0026474   6.8862882  43.1967697  55.7763939   6.8274388
  44.1540947  56.7369728   7.4995980  13.8382692  58.5941849  73.9488297
  14.1561489  57.8817787  74.5035019  14.0675383  59.3908615  74.4273453
  76.5864258  28.7735729  56.2229538  77.5345917  28.7585239  56.3532677
  76.4555664  28.3628159  55.3683243  29.8962803  34.7341766  87.8933868
  29.6088390  34.9734383  88.7745056  29.0923710  34.7231674  87.3739319
  56.3247681   2.6959617  46.4199982  55.5708389   3.1957450  46.1068878
  57.0647354   3.0400848  45.9197388   9.8320293  24.9468555  58.3304100
   9.2635260  25.0444050  57.5665283   9.2648602  24.5732555  59.0049286
  56.6373825  50.8919220  40.5903625  56.6364708  50.9387970  39.6343117
  56.1863060  51.6886406  40.8696556  33.8378830  70.3961182  54.8787193
  34.6989021  69.9791489  54.9106865  34.0267181  71.3265076  54.7564735
  77.5103683  46.7116013  20.4237366  76.7494965  47.2882614  20.3546982
  77.3117905  46.1408958  21.1660938  70.8084259  42.7805061  62.2422943
  71.0931549  43.2770576  63.0094948  69.9240341  42.4872131  62.4615211
  80.0067520  42.5564499  57.9456329  79.8138885  41.9207840  58.6348114
  80.9133682  42.3741455  57.6985397  11.3297606  55.6579399  61.4893761
  12.2039061  55.8623657  61.8215065  11.0476933  56.4592552  61.0482788
  64.8972549  13.7373629  35.4364357  64.5616150  13.8500032  34.5471153
  65.3344040  12.8859501  35.4214058   7.7624831  62.5348511  47.8928261
   7.0683560  63.1867218  47.9902000   7.9157076  62.2135773  48.7813835
  70.6753540  51.3550644   4.4559546  70.6476364  51.6841240   5.3543887
  70.7173843  52.1426697   3.9136064  73.4755096  26.3752441  25.4586086
  72.7002487  26.0471725  25.0030174  73.3594666  26.0897827  26.3648510
  82.9458389  31.5177841   6.2923942  82.5300980  32.0237083   6.9905577
  82.3208542  30.8193340   6.0979819  56.6366844  67.1199722  14.4079084
  55.7125587  67.1753922  14.6511116  56.6737785  66.4088516  13.7682476
  46.3940048  30.8846874  67.6560669  46.9785461  30.1308899  67.5765076
  45.6877327  30.5809517  68.2262878  31.8787651  68.5446854  22.4223938
  31.0888729  69.0714569  22.5441151  32.1852684  68.7719193  21.5445251
   5.7650065  55.6258698  61.6871071   5.1270623  56.2118607  61.2798347
   6.5605035  55.7391243  61.1669235   3.8351002  67.5365219  46.3768463
   3.2593820  67.7018356  45.6302185   4.6704345  67.2836227  45.9837914
  47.5326653   9.7654800  46.1477203  47.7540321   8.9137545  46.5242691
  47.8937302  10.4015045  46.7652435  82.0006409  61.9519043  37.5583229
  82.8793945  61.6434212  37.3372650  82.0060806  62.8795815  37.3224907
  76.0997009  66.5641861  75.5904007  76.5559158  66.1903839  76.3443069
  76.7002182  66.4311981  74.8569641  73.8428574  42.1521225  43.7930832
  74.2531586  42.2329597  42.9320679  73.9241867  41.2235947  44.0109329
  16.7590160  11.3737888   5.6542296  17.0815754  10.4930725   5.4631143
  16.2035732  11.5930099   4.9061265  31.8762302  55.7704430  32.2296944
  31.7541370  56.0002480  33.1508446  31.2844944  55.0317802  32.0866585
  17.9354839  53.5741386   8.9156952  18.4523106  54.2805748   9.3030815
  17.4433918  53.2069397   9.6500263  73.1300049  36.8662109   2.0171218
  72.7865143  37.7557945   2.1001153  72.8334579  36.4199867   2.8103292
  56.7895203  24.1698170  35.9896698  56.0316963  24.4886837  35.4995155
  56.5617752  23.2701912  36.2242699  77.6276550   4.5489936  42.2102165
  78.1700668   5.3355017  42.2687302  78.1746445   3.8531556  42.5746956
  67.4218903  21.0973492  22.1350403  68.3724289  21.1181850  22.0242691
  67.2916107  20.7711830  23.0254784  62.3238792   8.8554459   0.1052283
  62.7178497   9.6774864   0.3972359  61.6278954   8.6846952   0.7398006
  20.3596153  26.0090046   2.5156407  19.6335144  26.6144943   2.3660038
  21.1349487  26.4876919   2.2224729  71.7730560  22.5396786  40.9816132
  72.3850098  23.0973225  40.5012169  72.1761627  22.4278774  41.8425636
  26.8179321  57.1193657  12.2575731  25.8945980  57.3432007  12.3741312
  27.0029602  56.4936790  12.9579363  11.8954182  55.1571007  19.2378864
  12.8227577  55.3871078  19.1798382  11.8709869  54.2156487  19.0667095
  42.1992378  40.4950333  79.9068069  42.8855095  39.8445511  80.0555801
  42.3529015  40.8055153  79.0144958  75.7471619   3.5614903  64.8463211
  74.8812714   3.2084959  65.0509186  75.5825500   4.4714446  64.5990982
  71.5901871  37.1601944  88.4216309  70.8508987  37.7548447  88.5484085
  71.5471954  36.5621376  89.1677551  51.2939987  24.5804672  38.1225128
  50.6324234  25.1862583  38.4565277  50.8016815  23.7939396  37.8875046
  16.7278881  63.5499802  80.8133163  17.2787380  64.0640793  80.2229767
  16.7253647  64.0464706  81.6316833  40.4001999   4.6220179  87.9000626
  39.6198044   5.0670857  88.2304001  40.5007668   3.8599083  88.4704208
  84.3015289  15.4391689  40.7847595  84.2081070  15.8673220  41.6357498
  84.2314606  16.1515312  40.1492577   9.7771139  70.4676437  20.3863659
   9.5863276  69.9715195  19.5903130  10.5388365  71.0010223  20.1593895
  69.8607483  54.8705025  51.9314804  70.3174667  55.6579666  52.2273483
  68.9458313  55.0205841  52.1694717  23.8608379  17.4461040  78.5933533
  24.2201214  16.5697060  78.7314529  23.5330334  17.7088413  79.4534378
   6.8893809  47.3874893   8.6811657   7.1234546  48.2594376   8.9992008
   7.5784583  46.8159943   9.0199862  76.6314926  45.9837532  78.2211914
  76.4592896  45.0907478  78.5197220  76.3203812  45.9978981  77.3160706
  27.1675262  15.1346092  80.5964203  26.4011154  15.4298000  80.1047821
  27.7979126  15.8496370  80.5093536  59.8742218  33.7823715  28.5723572
  59.1683578  33.1381302  28.5180836  59.4715691  34.6032600  28.2890797
  27.0226727  62.6736870  14.0960903  27.2493782  61.7466125  14.0228271
  26.1029510  62.6751175  14.3613167  83.7205963   2.9220245  54.1391945
  83.7670288   1.9786333  53.9839897  83.1932678   3.2583003  53.4145775
  66.5313492  47.3208122  62.8397598  65.6955338  47.0205727  63.1968422
  66.3886337  48.2464027  62.6419106  86.4945679  44.4972458  19.7143936
  86.5489273  45.0166817  20.5165558  85.6306839  44.7002907  19.3556519
   8.8570852  44.6646309  79.9305191   9.1425734  43.7926865  79.6576843
   9.4781446  44.9171257  80.6137238   9.6026897  39.0364456  83.6548157
   8.8091021  39.3651810  83.2324677   9.4496269  39.1711121  84.5900574
  85.5091095  28.9594612  63.3197174  85.5761414  29.6310158  63.9985046
  85.8490906  29.3815918  62.5307617  30.1841202  42.9317093  70.7773056
  29.3886681  42.9026833  70.2456589  30.0821762  42.2122269  71.4003525
  58.6157646  61.8789253  69.3425751  58.7988014  61.9068451  70.2816925
  58.7679443  60.9666557  69.0959091  21.5002708  21.8928051  50.2591362
  21.9966946  21.7157059  49.4601173  20.9923191  22.6783600  50.0563583
   5.4786105   3.9660318  32.0771904   6.0850902   3.2624905  31.8460102
   5.0745564   4.2165790  31.2464085  67.4382629  71.4160461  59.4927673
  67.3181229  70.6889496  58.8819275  68.0151062  71.0657654  60.1715775
  79.9241333  56.3425446  86.1928024  79.5935516  56.0387154  87.0381699
  79.5082779  55.7660141  85.5517807   9.6889086   3.7119515  88.3930130
  10.5924969   3.4227567  88.2660217   9.5250607   4.3121791  87.6656189
  80.4081268   2.1925752  61.2815247  80.7736588   1.8535134  62.0986252
  79.8516769   1.4849184  60.9562302  48.5303802  19.9144382  87.9150391
  47.8760071  19.4916611  88.4711685  48.1069756  19.9868259  87.0596313
  48.5121651  37.2408180  35.3863106  48.7466545  38.0675163  35.8079872
  48.6105652  36.5839958  36.0756111   7.9925528  64.3769684   1.4519361
   8.8456268  64.7089767   1.1721784   7.7282138  64.9631195   2.1610086
  46.0469170  66.7070465  66.7551498  45.2596703  66.2360458  66.4819641
  46.1394958  66.4997101  67.6850281  39.6978798  42.8024483  12.9668865
  39.4638596  41.8814316  13.0817423  40.0903282  42.8428955  12.0947742
  66.1001816  28.4288006  86.0099335  66.0269852  28.6548157  86.9371872
  66.3298111  27.4995556  86.0073166  26.3905144  70.9851303  58.0181389
  27.2155190  71.0417557  58.5002098  25.8043690  71.5885620  58.4747925
  45.9200935  64.9126663  62.8004951  46.7294693  64.4250336  62.9533195
  46.0582542  65.3486023  61.9596024  76.1089096  43.7230186  49.0271721
  76.5854416  42.9029236  48.8983803  75.3812943  43.6771812  48.4069214
  16.0567532  61.7119255   8.4067850  16.3737679  60.8201942   8.2634354
  15.2503424  61.6013680   8.9104815  81.7273941  55.2985916  11.4541779
  81.9874725  55.3357735  10.5337391  80.8270493  54.9741402  11.4357491
  69.2612686  40.5089722  37.6318359  69.9822617  40.6578484  37.0200844
  69.6792984  40.4810448  38.4924774  45.7855682   7.1851463  17.3095055
  45.2610664   7.5593939  18.0173702  46.2631760   7.9305177  16.9454403
  44.0061684   2.8738549  25.4292316  43.2504196   2.3111882  25.5980015
  44.5154381   2.8401675  26.2390099  24.8123932  68.9244690  57.2646027
  25.2500019  69.7672882  57.3845520  25.5232391  68.2834320  57.2641525
  57.4071770   8.4501038  68.9662170  57.5706635   7.5069695  68.9649734
  56.4532814   8.5278149  68.9828949  58.0556946  23.9076500  15.6703711
  57.5523834  23.5050106  16.3780365  57.7535248  23.4629154  14.8784523
  14.1732597  48.2374954   9.6426277  14.6077633  47.5317001  10.1214714
  13.3270006  48.3371849  10.0786781  65.9684448  45.9722672  76.5161743
  65.3162003  45.2726059  76.4802780  66.6748581  45.6138344  77.0535202
  76.3239594   0.2083553  30.1320229  75.5203018   0.4274955  29.6604958
  76.3301773   0.8014781  30.8832874  84.9609680  23.2969265  31.3949375
  85.8290176  22.9426537  31.5878391  84.5536575  22.6391602  30.8313122
  44.0415421  46.7319298  10.4759407  43.8800049  47.6341286  10.1999407
  44.6828918  46.8087502  11.1823406  65.0992432  44.7436829  26.9616413
  64.6358871  44.4845352  26.1651611  64.5199814  44.4737892  27.6742783
  68.7756882  53.9399719  19.2606030  69.4722595  53.4377213  19.6834049
  68.1387711  53.2808380  18.9847088  81.9408264  29.3469849  51.0170364
  81.6845627  29.4702225  51.9310226  81.4755402  28.5568905  50.7422752
  77.9519653  20.1198139  16.2707176  77.7410355  20.7850990  16.9258022
  78.7573242  20.4347172  15.8602610  31.3322487  43.4680023   0.4808882
  31.4278316  42.7330284   1.0866188  30.7213421  44.0610123   0.9183409
  78.2704239  56.2293129  71.4665985  78.8720169  55.4879570  71.3980408
  77.4016418  55.8441429  71.3521500  75.9979553  34.9133911  20.8162251
  75.6721039  34.0135155  20.7997112  76.9479599  34.8255768  20.7386913
  56.2936974  47.1236610  54.7226868  56.0316429  47.8994179  54.2269440
  57.0630608  47.4045906  55.2180595  42.5794563  66.2280197  50.1926727
  43.2277527  66.8015594  50.6013184  42.7555313  66.2977829  49.2543945
  11.7401161  43.3509216  64.9905777  12.0810099  42.6860657  64.3922577
  11.1133518  43.8476982  64.4646378  76.3904343  57.2024918  13.4281206
  75.6244659  57.0654106  13.9855509  76.3305435  58.1194267  13.1600275
  61.5039597  71.4942245   4.8180251  61.6629944  72.2307358   4.2276893
  61.4400482  70.7336960   4.2403207   6.1417284  68.1808090  53.4730568
   6.9986148  67.7885895  53.3053131   5.9504261  68.6854782  52.6825218
   5.0977244  67.3305740  85.8212280   5.6319466  67.9726028  85.3536377
   4.2893600  67.2749786  85.3116379  18.1906853  38.0254593  48.8590622
  17.7625313  38.5481682  49.5370674  18.6636105  38.6649818  48.3265343
  50.7474823  24.4226627  75.2799988  50.8472481  24.8854504  74.4480743
  49.8196907  24.1898022  75.3147736  60.5915718   5.9232435  77.4732513
  59.7192917   5.5384254  77.3879776  60.7372208   5.9795752  78.4176331
  71.0284271   4.8011127   4.2115560  71.4473190   5.5799184   3.8451908
  71.5401001   4.6001501   4.9951611  30.2868500  67.1065598  43.4456749
  29.7737503  66.3361740  43.2018242  31.1959019  66.8451080  43.2990494
  11.0857925  26.6776276  13.5036860  10.2885141  26.3039379  13.8790989
  11.6550560  25.9233685  13.3511648  52.5863037  28.9136238  17.1396313
  52.5649796  29.2679863  18.0285645  51.6844406  28.9923592  16.8287048
  68.6206207  39.7043076  28.8678036  67.7508469  39.7677727  29.2623882
  68.6450806  40.4144669  28.2264709  64.6030273  14.7974939  63.9171257
  64.0488129  14.7043333  64.6919785  64.9808655  13.9277134  63.7869263
   3.3970938  10.7125530  34.5477943   4.2779851  10.3555584  34.6610107
   3.4993868  11.6531553  34.6928291   9.6876497  41.2623711   2.6770997
   9.9554119  40.8116493   3.4779663   8.7309065  41.2445869   2.7007034
  33.5667267  51.8698578  32.3287315  33.6839867  52.3454552  33.1510963
  34.0226936  51.0393753  32.4652214  47.7709770  66.2048492  61.0554390
  47.7654915  66.9609222  61.6424217  48.3266678  65.5627289  61.4971619
  59.1400452  36.3357544  27.9061050  58.5205536  36.9578285  27.5246792
  60.0010872  36.6736908  27.6598606  30.7442303  39.9236526  16.9395142
  31.0628738  40.4342003  17.6838512  30.6461468  40.5636444  16.2345181
  63.8064690  40.6742859  22.3834457  63.7562943  41.6235352  22.4958668
  63.7992210  40.3267593  23.2753029  48.9681664  10.9699068  77.0058060
  48.6783409  10.3461351  76.3401184  49.7502403  11.3745680  76.6305237
  85.9505615  36.8774796  58.5477066  85.5408783  37.4818535  59.1666756
  85.2524490  36.2666016  58.3117142  70.2191391  54.3207169  10.7898006
  69.7110138  55.0946732  11.0327644  70.0392532  53.6880836  11.4852457
  70.0759354  62.0160637  15.7210407  70.6228333  62.5415268  16.3050098
  69.7133942  62.6475639  15.0997467  19.4082546  13.7050123  71.9727173
  19.0291290  13.0398378  71.3982239  18.6521626  14.1481676  72.3576431
  71.1232452  68.7823410  22.3347244  71.9425201  69.1806870  22.6285725
  71.1992035  67.8627625  22.5893726  55.0810623  48.0421104  60.8321838
  55.7720222  48.2471657  60.2022972  54.5140419  47.4228630  60.3725662
  67.9657745  34.4587898  42.1383629  67.2879562  34.2930565  42.7935905
  68.7716370  34.5536957  42.6461182   0.8861153  23.2138920  81.4554977
   1.0643775  22.3129921  81.7253799   1.6455733  23.4605198  80.9276428
  35.8546181   2.3450360  74.3287277  36.4818382   2.7950718  73.7627869
  35.8193512   1.4524062  73.9849243  72.7146912  57.9201813  82.0286407
  72.5788269  57.0545425  82.4139175  72.1676025  57.9213066  81.2431946
  63.6985245  41.4558144  30.6523895  63.1278534  41.0156784  31.2823467
  63.9719353  42.2582893  31.0968075  20.5389099  20.8669453  69.3907776
  19.6891880  21.1128407  69.0250702  20.7671452  21.5907707  69.9740601
  75.5175323  48.1932220  85.3342133  75.6586838  48.2905312  84.3924866
  74.7845154  47.5816994  85.4046021  45.8279953  49.6131516   4.1380858
  45.3664474  48.8348694   3.8258612  45.1756363  50.3122368   4.0941067
  56.9570084   8.7222376  48.6443062  56.2615814   8.1927586  49.0345154
  57.1890793   8.2577896  47.8401527  37.9293709  62.2377434  45.6107712
  38.2447968  62.3732338  44.7172508  38.3142433  62.9565353  46.1122131
   5.3517022   6.6742282  43.4585876   5.3727846   7.2391872  44.2309914
   4.4844203   6.2698255  43.4812355  75.1517410  12.5748644  53.9810829
  74.3493271  12.5530739  53.4596558  75.2995834  11.6628685  54.2313576
   8.6700916  46.5203514  87.2736511   9.3874941  45.9489250  86.9997253
   8.8165274  46.6566772  88.2097092  44.5146790  54.4612961  76.7512054
  43.6350212  54.6005249  77.1019821  44.3920784  53.8329697  76.0395813
  47.5704269  13.9236193  20.7055874  47.8109398  13.5097065  21.5344791
  47.6710777  13.2301550  20.0535069  67.3193436  32.3236046  86.7714081
  66.8836899  33.1130981  87.0925674  67.3444519  31.7389355  87.5288773
  54.2226486  23.8221893  70.3505783  54.0944214  24.5088634  69.6961517
  55.0842590  23.4571571  70.1490555  72.8568802  39.6485481   7.2915277
  73.7337265  39.7337494   6.9172254  72.4927826  38.8682327   6.8734627
  22.2379475  27.6391792  83.7115860  21.5657997  27.9951324  84.2927475
  21.7751389  27.4561367  82.8939438  81.8548584  54.0811119  16.2010098
  81.7048492  53.5984039  15.3881598  82.6538315  54.5823860  16.0379276
  61.5547638  63.9020042  72.6522522  61.9142036  63.1706200  73.1543579
  60.6720238  63.6183777  72.4144363  53.0698967  46.4652328  38.7623329
  52.8111076  46.7685089  37.8921127  53.8330879  46.9984703  38.9846611
   8.8846340  10.5351925  11.2424116   9.7391682  10.1625299  11.0253267
   9.0810719  11.4176874  11.5568104  72.8648529  49.7649193  14.9854794
  73.6261597  49.3357849  15.3759804  73.2303238  50.3224449  14.2985783
  30.1489868  54.4951172  71.9516068  29.3649807  54.3775597  72.4880219
  29.9535961  54.0318184  71.1371078  43.8896370   1.8676553  70.7470322
  43.9605713   1.0267407  71.1987686  44.1392365   1.6757526  69.8430939
  29.5755177  59.8102112  54.3714104  30.3268070  59.4575386  54.8482933
  28.9371738  59.0969505  54.3688354  73.5797043  28.6632328  50.4804535
  74.1719055  28.3996410  51.1847572  72.9823837  27.9220753  50.3798027
  49.3011513  51.6245613  47.4412956  49.1800156  51.1855240  46.5993881
  48.6704865  52.3445206  47.4289055  16.3542213  64.6853790  37.3277702
  15.5003605  64.3422546  37.5912437  16.9366398  63.9263077  37.3565636
  59.6871719  39.3620300  23.2682896  60.0857277  39.4051094  22.3990784
  60.2591858  38.7772560  23.7653503  22.8222790  30.8889103   9.2747087
  22.1859779  30.7241993   8.5788469  23.5452061  30.2910118   9.0846443
  46.6672707  22.8163204  72.6908493  47.6198883  22.7983112  72.5990601
  46.4234085  23.7177792  72.4807663  10.0708704  14.3066730  79.5234070
   9.7424994  13.4615068  79.2166519   9.3142509  14.8906927  79.4716415
   4.9674773   5.1929059  26.3301277   4.6565452   5.5651174  25.5048943
   5.8979435   5.0245337  26.1814175  24.0273533  20.8345413  88.3360291
  23.5755329  20.9858589  87.5058517  23.3386097  20.5445824  88.9341812
   9.0309935   4.3700533   6.4011717   9.2556362   3.4395955   6.3971806
   9.2178621   4.6577320   7.2947898  16.6753960  51.3473549  35.0654716
  16.7280426  50.9603653  34.1915741  17.1986198  52.1466408  35.0053864
  47.4422417  44.2457390   7.3618169  47.4609070  44.6949272   6.5167642
  47.7155724  43.3501740   7.1631136  57.9931374  36.7819557  64.3094559
  57.2241478  37.0818520  63.8247375  58.6656151  37.4363937  64.1204758
  79.6914291  40.5205383  22.7891884  80.6069412  40.7466431  22.9533119
  79.5419617  40.7731133  21.8780918   6.4376435  44.9194145  24.3469772
   7.2501960  44.7147141  24.8096714   6.6806993  45.6097679  23.7300720
  81.3174667  57.1325493  61.8944130  81.7049179  56.2574310  61.9112968
  80.4469528  57.0018578  61.5184288  17.1369724  40.0877876  15.3154707
  17.8442307  39.6123848  15.7513704  17.2901993  41.0052147  15.5414820
   8.4709311  63.4367943  81.7474213   8.6124773  63.0243950  82.5995483
   8.0204525  64.2567062  81.9500122  66.8114166  58.7685471  53.9854393
  67.0823975  57.8891602  54.2490311  67.6144333  59.2881088  54.0235023
  51.6343689  57.9275742  75.3193436  51.8165512  57.2039986  74.7197800
  50.7799072  57.7171822  75.6959915  11.2780313  43.3065720  22.4162273
  10.8491793  43.1635475  23.2599468  11.9464998  43.9675903  22.5963287
  35.7190742  27.7942104  13.2821789  36.3321304  28.4121647  12.8840256
  36.1738815  27.4738998  14.0611410  50.4168625  21.8660870  64.7806091
  51.1293716  21.2363281  64.6712265  50.5169334  22.1877289  65.6765823
  22.3298931  66.8027802  44.6273537  22.5744743  66.9038315  45.5472450
  21.8314590  67.5941849  44.4237137  86.1411514  31.7905006  48.4507828
  85.2012253  31.9681282  48.4856186  86.5515823  32.6363678  48.6304893
  45.1597137  17.2564564   2.6081216  44.7446327  17.8807831   2.0130122
  45.4157219  16.5245113   2.0469201  34.5000496  63.4383888  87.4398270
  35.3049889  62.9699211  87.2188339  33.9161453  63.2737656  86.6994324
  85.9992828  20.7594547  23.1447411  85.0871048  21.0467339  23.1043472
  86.0877457  20.3642521  24.0120468  50.3904610  12.2299194  24.7145481
  50.7214088  11.3487377  24.8883991  50.3977432  12.6613979  25.5689507
  81.2181931  17.8148880  12.8919210  82.0983047  17.8975220  12.5247622
  80.9050980  18.7161732  12.9686708  36.1479759   8.5929775  15.3057604
  35.3689384   8.4346848  14.7725811  36.7569962   9.0354433  14.7145357
  66.9505692  62.8201485  65.5476990  67.7621002  62.3736229  65.7890854
  66.9919739  62.8933716  64.5942001  55.9163055  43.5650024  24.3439121
  55.1986923  43.4359970  23.7237320  55.5299416  44.0775337  25.0540295
   8.4896498  40.9643364  10.8739777   8.8784599  40.2055893  11.3091393
   8.7350779  41.7079659  11.4244404  68.3725281   4.8462939  29.4380722
  67.6138000   4.7228179  30.0084305  69.1171799   4.8959451  30.0374527
  40.1000671   5.5785065  82.4877396  39.3721275   5.1903639  82.0022659
  39.8778000   5.4353647  83.4077072   8.5658388  27.2940102   5.9784722
   8.5326462  26.6015759   5.3184218   7.8571858  27.0804653   6.5854669
  65.1861191  67.6621857  16.7579041  64.5975418  67.3738861  16.0602722
  65.2087936  66.9274750  17.3710270  38.3211174  40.8095016  18.7274933
  38.3971558  40.4037285  17.8638954  38.9012794  40.2929230  19.2867680
   5.8854170  53.0028610  62.5478859   6.1791816  52.6623077  61.7029266
   5.8653207  53.9524994  62.4294815   5.5640049  48.0234680  51.6418877
   5.7955832  47.7493668  52.5292854   4.9719024  48.7650642  51.7671204
  69.8451538  12.2513885  71.9273376  70.7745895  12.0248957  71.9603271
  69.8334579  13.2064400  71.8643188  48.8693810  54.1143875  15.2609663
  48.7301826  54.2166138  16.2024574  49.6790009  53.6084175  15.1920986
  57.0345955  34.1868172  80.0124741  57.6790199  33.9933968  80.6933060
  56.2186737  33.8089523  80.3406754  74.4824677  35.2658882  81.1249390
  73.7999268  34.6689606  80.8182526  74.9905396  34.7481461  81.7494659
  82.5503464  65.8368759   3.9102566  82.6973114  64.8948517   3.9952550
  82.0206146  66.0664902   4.6737309  18.7919064  37.8725624  82.9445114
  19.1304359  37.9306908  82.0510635  17.8586006  38.0676498  82.8601761
  43.5001564  43.5638657  48.5474663  43.5686378  42.7808495  48.0011787
  44.4034805  43.8626900  48.6520615  12.6598577  42.1196365  38.4761162
  12.2836313  42.0477867  37.5988922  12.6101856  43.0530434  38.6823158
  46.5524673  54.8452415  60.5580482  46.3552628  54.9806137  59.6312141
  47.1051559  54.0638809  60.5736809  11.8070564  65.6767120   2.6626563
  11.1372967  65.4744034   2.0094125  11.3328571  65.6956940   3.4939239
  67.1429977  29.5063725   8.3098116  67.8270874  28.9037552   8.0180922
  66.5868835  29.6280346   7.5402842  72.4048462  10.3338985  26.5424957
  71.6366119   9.8366528  26.8232021  72.8791275   9.7360325  25.9646988
  43.3113861  43.6868019  36.8711090  44.1747398  44.0822182  36.7507095
  43.4951019  42.7764053  37.1027527  72.9946976   2.9145901  27.5102711
  72.9020996   2.0894508  27.0340328  73.8634262   3.2349961  27.2676144
  84.4640808  63.7635727  39.3405685  84.4058914  63.8553391  40.2915802
  84.1022797  62.8957443  39.1610985  85.3684158   5.5391169   8.9214382
  85.0235672   6.1858573   8.3057775  85.4540482   4.7381210   8.4044228
  59.5393143  45.1605530  15.6147385  59.9052963  44.3836517  16.0374851
  59.0038414  44.8148155  14.9006205  68.6634750  25.0478344  24.5591125
  68.6850052  24.6896133  25.4464951  68.5001831  24.2893429  23.9985275
  86.1027298  66.5137405  10.0958281  86.3932037  65.6144485  10.2479162
  85.1960297  66.4260864   9.8018131   9.3704853  28.1346149  72.4511642
  10.2012501  28.1827621  72.9241791   8.7105894  28.0281105  73.1363144
   1.5017306  14.9102125  37.1955490   0.7129833  14.3853531  37.0590515
   2.2208240  14.3334131  36.9377937  61.5366020  12.2048845  71.1678848
  61.9698105  11.8343477  71.9368286  61.6769295  11.5562410  70.4781036
  69.7739334  64.1005478  58.3561745  69.0983887  63.4276466  58.4403076
  69.4468002  64.6840744  57.6715508  50.9620667  61.3084183  39.9331474
  50.7192001  61.6065445  40.8097153  51.3068504  60.4256134  40.0673828
   8.5293665  26.4049568  70.6903839   8.7714167  27.1536160  71.2354965
   8.5723667  25.6538906  71.2822266  60.9833527  49.1053734   2.1150074
  61.4761505  49.2961693   2.9131157  60.6075287  48.2382774   2.2670982
   7.7007966  11.7211075   8.7856789   8.5418739  11.3993979   9.1102152
   7.1784444  10.9306545   8.6494284   0.6936463  48.5278664  59.0943413
   1.2399232  48.6462822  58.3173027   1.1917839  48.9370079  59.8019371
  54.9648476   7.8813910   4.3805776  55.5487251   8.5886126   4.6547279
  55.2917976   7.1086941   4.8413115  49.9916191   0.9513152  69.6848221
  49.0667572   1.1676630  69.5662613  50.0968819   0.1042545  69.2516479
  82.5585556  24.7305031  48.6561394  81.9069595  25.3406906  49.0015793
  83.4002991  25.1370678  48.8620605  71.7767410  14.4880209  34.7567062
  72.3966522  13.9886122  35.2882385  71.0065994  14.5868912  35.3164749
  28.0306377   6.6990685  30.9491596  27.7184677   7.5890055  30.7854691
  28.9746132   6.7446456  30.7972908   0.9494824  38.7121964  14.1103230
   0.3203862  38.1241684  13.6923609   1.5035198  39.0193863  13.3927517
  52.9719391   3.5251818  76.2322540  52.5422020   4.0512290  76.9066696
  53.1327019   2.6807728  76.6533966  37.5129318  64.2515869  69.3762665
  37.3879395  64.3541794  70.3197098  37.6836395  65.1385498  69.0594254
  82.7248764  45.3567085  71.7373886  82.9101028  44.4224663  71.6419296
  82.0269775  45.3969269  72.3912735  41.3442726  31.8391876   6.9892645
  42.0554276  32.3990631   6.6777649  41.7865524  31.0898495   7.3881545
  22.4578247  53.8221130  55.1401482  22.3425999  54.0998039  56.0489044
  21.7337799  53.2165565  54.9811058  25.7200947  16.2456589   3.3881521
  26.5668144  16.3332863   3.8258948  25.1405239  15.8829813   4.0580740
  45.6026115   6.2870526  35.2969513  44.7945023   6.6151042  35.6913795
  46.2602921   6.9479618  35.5134850  64.5274277   9.7039318  70.3927765
  63.9051895   9.3792200  71.0436325  64.7166214  10.6007252  70.6688156
  18.1574993  69.5603638  25.2157822  17.8346500  69.6149063  26.1152420
  18.9001198  70.1637878  25.1908550  64.4405975  64.0688629  40.5182457
  64.1439667  64.3164749  41.3939896  65.0823975  64.7393646  40.2842636
  78.1564331  27.5954628   5.0450468  78.6871033  28.0882130   4.4190922
  78.5293808  26.7139816   5.0335827  58.6343918  35.7160606  83.8777847
  59.1002655  35.5944748  84.7050781  57.7813606  36.0676079  84.1326981
  83.5604095  43.5371437  30.1824188  84.4745102  43.6808548  29.9374619
  83.3860855  42.6290359  29.9350586  84.4818649  66.3377304  25.1414986
  84.4332581  65.3819427  25.1600647  85.3969650  66.5349350  25.3413239
  44.9621162  67.9496384  32.1717911  44.9475937  68.6380234  31.5068550
  45.3595085  68.3645172  32.9374161  50.9662514  41.1973038  85.7222519
  50.6142578  41.5667191  86.5321045  50.5620270  41.7161407  85.0268021
  53.5942612  12.0251675  40.7615242  53.9906044  11.2459345  40.3717308
  54.2712364  12.3734970  41.3416977  65.6393280  15.1078777  20.0577183
  65.4371490  15.9948311  19.7599487  65.0617142  14.5447483  19.5424690
  16.5351658  29.0013313  78.2159653  16.4371662  28.3727589  78.9311752
  15.7017355  29.4716129  78.1945343  67.6075974  12.3501654  33.5967827
  67.8650284  12.0257349  32.7338181  67.1918564  13.1942739  33.4210854
  18.9497585  10.9885540  61.9311485  19.2801590  11.2097187  61.0604286
  18.0930977  10.5934792  61.7690315  16.8964901  50.5119591  32.5779190
  17.7958050  50.7976074  32.4170723  16.4453087  50.6620407  31.7471714
   4.0159779  36.3738327   0.8286543   3.9452264  37.2991638   1.0631574
   3.3311665  36.2397575   0.1734532  27.7173424  62.3738289   6.3651719
  26.7659512  62.3544350   6.2616796  27.9204807  63.2925835   6.5408273
  31.3703289  51.0167732  46.4214973  31.3129101  51.5087242  45.6024017
  31.7791634  51.6245079  47.0377350  79.2587662  66.3884659  55.5890884
  78.9121552  65.9668655  56.3754349  78.6518173  66.1345215  54.8938484
  14.6083050  48.9962196  79.9591599  15.3726063  48.6726799  79.4822998
  14.8375435  49.8943520  80.1979828  74.1756134  68.8654327  31.0828094
  73.9777985  68.0497513  30.6226311  73.3186874  69.2242737  31.3133202
  44.7581444  36.2575569  58.9685020  43.9535179  35.7509232  59.0786285
  44.6342850  36.7275352  58.1438751  41.6876335   6.6413426  74.9088898
  42.3031387   5.9724288  74.6089935  42.0837288   6.9906263  75.7072296
  12.1432848   4.1504173  66.6061401  11.8005991   3.2579477  66.6540527
  11.8039141   4.4932237  65.7793732  22.6854382  66.8300934  39.4443855
  21.8235302  66.5250168  39.7277145  22.7235298  67.7419586  39.7329521
   0.8951662  18.7362309  71.7756729   1.3253951  18.7566433  72.6304932
   1.5548171  19.0697460  71.1675110   1.6010752  28.8872471  42.8183060
   2.3503082  29.1388454  43.3582878   0.8877512  28.7585087  43.4434700
  20.1172695  67.8969727  65.6514587  20.4255981  66.9912949  65.6212845
  19.3756371  67.9177780  65.0466614  56.3461418  59.7106056  35.1384010
  57.0690422  59.6537094  35.7632256  56.7337303  60.1095314  34.3593826
  44.4456787  20.0581703  18.5933266  44.8853493  20.8940868  18.4378719
  44.5175209  19.9218044  19.5380344  28.4056225  57.0105057  51.0915909
  27.7020607  57.2304344  50.4809647  29.0523968  57.7059822  50.9723167
  41.9833031  18.8933353   8.6753311  41.7974052  18.3205166   9.4193411
  42.3405190  19.6892490   9.0692225  63.1795082  70.8758392  45.8401642
  62.2950020  71.2304382  45.9303665  63.7445335  71.5369873  46.2399940
   1.4295133  29.8976517  11.6842909   1.2425258  30.1937008  10.7934361
   1.8789006  30.6373386  12.0931273   0.9744940  70.3651581  47.9051704
   0.8530636  70.4108658  46.9568024   0.1716032  69.9576874  48.2300758
   2.8239615   0.2364203  66.5749741   3.3531766   0.9999761  66.3444443
   3.0375726  -0.4138995  65.9058838  67.1288528  35.8671570   9.3364973
  66.1883392  35.8105278   9.1677847  67.4027023  34.9602051   9.4731779
  53.0767670   6.7526574  38.0449600  52.8044128   7.4985542  38.5794640
  53.4271927   6.1222773  38.6742897  70.0915909  33.8642616  23.6534367
  69.2675171  34.0859642  23.2198582  69.9799805  34.1734505  24.5524235
  55.9541245  37.3333817  51.0312843  55.5519142  36.8288803  51.7383461
  55.9763412  38.2318230  51.3607368  52.8364067  34.7450142   8.2332039
  53.7442551  34.4437866   8.2693443  52.3325653  33.9612808   8.0138016
  57.6232147  70.4586105  82.4747086  58.1851273  71.1038055  82.9039154
  56.9951210  70.9816742  81.9765778  66.3826752   4.0909615  50.3686867
  66.9964828   3.3624699  50.4623756  65.5195236   3.6929283  50.4816551
   1.7921886  59.7327080  84.8153076   1.3926243  60.2877579  84.1456070
   1.5931734  58.8391266  84.5357742   3.5485678  18.9432240   8.7947083
   4.2873054  19.3533154   9.2445126   3.9467592  18.2641258   8.2501879
  47.6889381  63.7489204  55.6689034  46.8430290  63.3614998  55.8937874
  47.7288971  63.6990509  54.7138367  85.2686539  43.6604767  46.6995773
  84.5130997  43.2929039  46.2410393  85.9781265  43.0416451  46.5265846
  40.7540894  38.2117691  71.9852829  41.0815582  39.0210800  71.5928345
  39.8474770  38.4093208  72.2203598   1.6011163  50.5191917   7.4666605
   1.0176414  49.7667046   7.5643849   1.3539673  50.9064407   6.6269064
  70.3157806  18.1832581  56.9542122  70.6401367  18.0825577  56.0592918
  69.4899673  17.6993828  56.9655266  27.0358677  33.5870552  29.4629269
  27.1612282  32.7924042  28.9442329  27.9182835  33.9396744  29.5779686
  67.8283539   0.3772390  21.5654736  68.3459930   0.7637752  22.2717781
  66.9219513   0.5874681  21.7901249  39.7625351  64.2485504  46.4597397
  40.0004730  64.7559891  45.6837730  40.2928886  63.4540825  46.3982773
  35.8128738  28.4584084  77.4827118  35.5039139  28.9446964  76.7183151
  36.6950340  28.1731987  77.2446365  58.4306068  55.3171501  85.0432816
  58.5711555  54.8101578  84.2436295  58.5897446  54.6945496  85.7526932
  66.2169876   9.5506773  43.2686043  66.8883362   9.6434393  42.5926514
  66.7085648   9.4903040  44.0877151  76.3182297  44.5175972  37.3528442
  76.3372726  45.1647034  38.0579147  77.2053299  44.5287819  36.9934578
  70.2671051  69.2882233  38.2434311  70.2105103  70.2122040  37.9999199
  70.9440460  68.9302139  37.6691475  58.7048111  64.7139282  87.3580856
  57.8988800  64.2609634  87.6061401  59.3995705  64.2260971  87.8003006
  78.9362106  58.8983269  26.8952770  78.1996841  59.2950821  27.3604088
  78.8773575  59.2517967  26.0076809  54.1186142  14.0783396  42.9784622
  53.3408737  13.9736071  43.5265350  53.7739487  14.1913624  42.0926514
  10.4106970  11.7447395  88.7610474  10.1315737  12.3173647  88.0466080
  10.3805008  12.3009033  89.5395050  62.8460732  11.5048113  40.0507736
  62.4542809  11.8577137  39.2519073  63.3623543  10.7555733  39.7535744
  41.2949600  20.2967815  76.5633163  40.8170586  19.5508614  76.2007675
  40.8312531  21.0641460  76.2281265   5.2458615  54.0718460  58.4906387
   4.3667088  54.2257538  58.8365211   5.3092685  54.6510849  57.7312355
  11.2692194  41.6535988   9.0528126  10.8907528  40.9753494   9.6122522
  12.0645027  41.2557068   8.6986361  24.2326508   3.3135026  84.0526733
  24.0734539   3.7964752  83.2417297  24.6377697   3.9540346  84.6373367
  77.7857513   8.1471891  46.0049706  77.1545486   7.4682117  46.2433052
  78.5298233   7.6660380  45.6429176  78.8353882  35.1155243  71.2831116
  79.6150742  35.2261200  70.7389679  78.5227127  36.0069275  71.4375916
  55.4213600  69.3344879  60.1246300  54.7771263  69.0359497  60.7665596
  56.2106667  68.8317490  60.3258209  44.5285149  70.9313354  71.7082214
  45.4406967  70.6436768  71.6705704  44.1569023  70.4529037  72.4493256
  48.6954765  25.1844254  77.8565369  48.4659081  24.4998589  78.4849472
  48.0535622  25.0887280  77.1529617  26.8412361  48.7539253  60.9935112
  26.7213154  48.3466835  61.8514214  27.7806168  48.6829872  60.8239174
  42.6940002  62.7898483  55.0622635  41.9689064  63.2003555  54.5911407
  42.7231331  61.8948174  54.7241745   7.6107492   2.0594232  30.6650333
   7.6122808   1.7641411  29.7545185   7.5156803   1.2563239  31.1771126
  76.3974838  33.3026161  52.3342171  75.4681625  33.4605751  52.1679535
  76.4081116  32.6671486  53.0499649   3.7660544  26.6522560  11.0252037
   4.5708332  26.8985653  10.5692482   3.0669694  26.8548126  10.4035254
   6.2104354  31.7435513  53.2223320   5.7504997  31.6810551  54.0594597
   5.7611942  32.4472923  52.7541809  69.7408600  40.6365700  81.8907928
  70.4428329  40.0353737  82.1398468  69.2463303  40.1632996  81.2217026
  43.8790855  57.9733238   8.8716602  43.4668465  58.5723534   8.2492018
  44.7567177  58.3318443   9.0037670  59.2732124  55.1308136  46.3949280
  59.5451813  55.0235443  45.4834709  58.5234871  54.5436592  46.4918556
  63.7914581  53.4532814  67.7827072  63.1669044  54.1644516  67.9255295
  64.6427841  53.8882065  67.7346420  81.9674377  11.1065836   7.7318654
  82.1108322  11.9387884   8.1825380  81.2305374  10.7075596   8.1944542
  55.7402077  68.9430084  51.0293388  56.2232399  68.2036057  51.3983917
  54.8757553  68.5863495  50.8249931  43.7475014  59.4021835  61.3986511
  43.9257851  58.4643059  61.3291473  43.3139076  59.6252518  60.5749588
  46.9035759  56.1518669  41.2223129  47.8285255  55.9826469  41.0432510
  46.4432716  55.4142113  40.8220406  50.7834015  66.4802475  78.8176498
  50.3228149  66.8198853  78.0503540  50.4401321  66.9929581  79.5494461
   7.8529267  52.1723671  67.2806320   8.4991732  52.4294510  67.9382782
   7.0135374  52.4476471  67.6492462  49.6370163  55.1050720  81.8916092
  49.1688118  55.2447357  81.0684967  49.3620262  55.8322983  82.4499512
   0.0772586  54.4944725  79.5973663   0.8210884  55.0852280  79.7154999
   0.3555146  53.8943939  78.9054718  35.4299202  41.1838951  62.7102013
  35.8768501  41.9514046  62.3532524  36.0407753  40.8301430  63.3566895
  44.9841194  53.4696274  84.8786545  44.3511124  54.1711311  85.0317230
  44.6629257  52.7379837  85.4056854  16.4260292  24.9789066  22.8994732
  16.8400269  25.1354218  23.7482033  16.7509956  25.6848450  22.3406544
  48.5308189  22.5280209  21.2017345  48.9842987  23.0050850  20.5067520
  49.1742477  22.4640236  21.9075222  32.7163239  69.7421875  15.0444355
  33.4671249  69.3954086  14.5624924  32.3568954  70.4202194  14.4723167
  66.5841370  70.5656662  81.2532043  67.3904114  70.1256714  80.9838333
  66.2529221  70.9705429  80.4515839   1.3696696  61.0218620  66.1204147
   0.4381401  60.8436699  66.2497711   1.8159456  60.3360672  66.6171646
  10.7843370   8.0223236  17.3074760  11.0527802   7.8803949  18.2152367
  11.1397038   8.8826475  17.0843430  18.7809868  22.5408020  11.5593395
  19.0618668  22.5724010  12.4738550  19.5882702  22.3964653  11.0656900
   8.6133919  24.3214664  21.4912453   8.8353548  24.1184216  20.5825443
   7.9596643  23.6645336  21.7306461   1.0911520  44.0747299  78.4904099
   1.5259285  44.8774223  78.2025146   0.2299010  44.3637657  78.7919693
  61.7779198  53.1146507  60.2612610  61.6639938  53.5284157  61.1168633
  61.4454117  52.2248611  60.3793297   8.1959372  17.7936172  18.6569118
   8.2024460  17.8623714  17.7022057   9.0236845  18.1884251  18.9311237
  84.8887558  20.3434963   7.4233875  85.6165314  19.8759041   7.0135942
  84.3600540  19.6559753   7.8283806  14.6403971   8.7587118  84.9454117
  15.2553883   9.4028997  85.2961807  14.2208796   9.2041397  84.2093201
  38.9880753  71.1096420  18.9776516  39.8803596  70.8056488  19.1439304
  38.7261238  70.6565475  18.1762047  81.1467514  60.9810295   3.1512742
  81.0429230  60.9524765   4.1023974  81.0321884  60.0731430   2.8704712
  32.1094894  59.4397621  82.3048859  31.8157063  59.8634109  81.4983826
  31.4957848  58.7163963  82.4327240  70.8422699  51.7279053  35.4079742
  71.4111481  51.6274910  34.6447411  71.2349014  52.4443550  35.9067459
  55.5416985  50.4719391  49.9511566  56.2965622  50.4466362  49.3631325
  54.8445587  50.0315628  49.4650497  19.4658833  33.7544060  11.6129141
  19.6247654  34.3627357  12.3346653  20.3377476  33.5532799  11.2728634
   8.4548454  15.7418966   9.9085369   7.7834997  16.2982864  10.3034515
   8.0571880  15.4258862   9.0972185  59.8128624  16.6538715  33.0060806
  59.2585526  17.3114281  32.5858536  60.4676743  17.1627197  33.4841270
  73.7035217  53.0121231  55.2381516  74.1222076  53.6393776  55.8276329
  74.3346481  52.8922310  54.5285492  63.8212013  61.8194580  23.9647980
  64.3621674  61.0299759  23.9471989  64.4144821  62.5222855  23.6996765
  66.1714020  39.5217819  59.4571266  65.7225571  40.3627014  59.5444374
  66.8940964  39.5699158  60.0829315   3.1644216  23.1883984  79.7341995
   3.3812413  22.2583828  79.7997131   3.6775131  23.6033726  80.4275742
   1.4878883  12.2214727  85.3344727   1.9828447  12.7766762  84.7319794
   0.5761308  12.3262634  85.0625381  10.9572058  70.2915955  39.5393486
  11.8752251  70.0401535  39.4381180  10.4810190  69.6989746  38.9577293
  61.9997292  68.8559189  53.3973656  61.5041466  69.6592712  53.5562973
  61.4521828  68.3518448  52.7954216  85.7915344  36.6521263  54.7077293
  85.9749603  37.2859192  55.4011955  86.5639648  36.6843834  54.1433372
  83.5422058  51.8025436   1.9783823  82.6688385  52.0409851   1.6675692
  84.0708618  52.5870361   1.8323300  47.8811607  50.7215614  89.1111755
  47.0765686  51.1774864  88.8642120  48.5773315  51.2082710  88.6699371
  86.6635284  48.4331970   1.9452175  85.8182831  48.5864868   2.3674746
  86.9613342  47.5964584   2.3021657  47.9150505  10.4816141  82.0203629
  48.2041435  10.9942827  81.2654953  48.3427467  10.8963728  82.7695541
  85.8407593  12.7779427   5.1147513  84.9105911  12.9727459   5.0003953
  85.8665314  11.8426180   5.3165846  59.1331253  26.0921364  84.0006561
  58.9274063  26.1198730  83.0662308  58.2942543  25.9128304  84.4253616
  65.8479156  15.6783609  25.2969360  65.1419754  15.5093775  25.9208946
  65.4022446  15.8031139  24.4590569  23.2969971  59.6381378  73.1803207
  23.6329441  58.8106041  73.5246429  23.5450172  60.2890434  73.8368530
  19.6844406  14.7910480  15.2691040  19.0241337  15.3190050  15.7179775
  20.3356609  14.5978861  15.9435167  24.7562752  59.3085556  31.6429539
  23.8826656  59.5598679  31.9427547  24.9922428  59.9800644  31.0029354
  48.7039566  45.3880157  50.0878563  49.4505692  45.5550880  50.6630859
  48.6254807  46.1828461  49.5602989  83.1421814  39.6783371  65.6389465
  82.6066284  40.4708900  65.6746674  83.4380646  39.6299782  64.7299118
  81.2211075   9.3175259  68.3731995  80.6205978   9.6829691  67.7235260
  81.9838104   9.0406923  67.8653793  31.7888451  58.0915604  62.9012070
  31.4052830  58.7777557  63.4473267  32.7237053  58.1177292  63.1051178
  21.5701981  52.0231438  82.1421585  20.9797878  51.3026276  82.3624115
  21.9811363  51.7535172  81.3207855  74.0625916  40.0226822  63.3774605
  73.2909164  39.5141258  63.1282387  74.3226700  40.4727364  62.5736923
  69.0027466  28.0608158  12.0041122  69.0487442  27.1427460  12.2710657
  69.4124756  28.5404129  12.7240744  51.4020462  70.8505249  20.8656540
  50.7714577  71.4866638  21.2031727  51.5647240  70.2607880  21.6018429
  55.8472176  60.5630531  88.4969254  55.9241867  60.5553055  89.4509964
  55.3603554  59.7654686  88.2894287  58.6077538   8.1544714  15.8096199
  59.2426567   8.3161230  15.1117678  57.9485588   8.8393230  15.6970501
  56.2416687  42.7145920  46.8471031  56.6441269  41.8553009  46.7210884
  55.3230019  42.5234070  47.0361214  27.3830242   2.2867806  75.5959854
  28.2393665   2.3307533  76.0214005  27.1878071   3.1927161  75.3563995
  61.6018524  19.8102074  26.1166630  61.4847603  20.6288605  26.5986671
  62.5127258  19.5648670  26.2789936  80.6607437  61.0236664  14.6626701
  80.6823502  61.6612358  15.3763046  81.5320740  60.6274567  14.6690130
  22.3289852   7.2955098  82.0709000  22.5224247   8.1001520  81.5898972
  22.2198067   7.5793805  82.9784927  64.8822403  20.9149036  88.2322922
  64.9026794  20.7174587  89.1686859  64.5250015  21.8015308  88.1822128
  12.8010101  38.4574051  44.3943138  13.6130123  37.9505844  44.3982544
  12.6329355  38.6332741  43.4685402  79.9307175  51.5074158   5.0424199
  79.5604095  51.7273445   5.8972511  80.5461121  50.7969971   5.2235875
  38.6639786   1.3792355  38.5243874  39.2589455   2.1229923  38.4291420
  38.2267380   1.5281241  39.3627701  58.2212067  56.6647415  14.1153669
  58.7511177  56.6309319  13.3189478  58.2600899  57.5808067  14.3902130
  70.6915054  21.9043179  46.8840485  70.6752319  22.8256359  46.6249352
  71.2920837  21.8755512  47.6288376  60.7471848  13.2948418  10.6179857
  61.5081978  13.8549871  10.7707195  59.9986038  13.8316212  10.8782206
  81.5484772  57.5570564  79.1307297  82.3873367  57.2173615  79.4424362
  81.1756516  58.0069656  79.8888931   8.0852623  43.7740593  17.6932774
   8.5373983  43.2952690  16.9986076   8.7815847  44.0376320  18.2948551
  71.3654404  52.8322029  42.0509758  72.3160324  52.7312622  42.1000786
  71.1738510  52.8430214  41.1132050   2.4991825   7.6072760  32.8058281
   2.9350781   6.7566762  32.7537956   2.3389189   7.7375021  33.7404861
  38.1634445  35.4610214  83.6835098  38.8750381  36.0047607  84.0214615
  38.5949478  34.8382645  83.0985184  20.7751789  59.8024635  38.5467186
  20.8258419  59.2802811  37.7461014  20.0216618  59.4464722  39.0175819
  72.9560623  51.3461800  45.1912537  73.5386505  50.6547508  44.8770065
  72.7444611  51.8551331  44.4086800  60.1242371  48.2234383  64.5227966
  59.5641136  48.7605019  65.0831985  60.9243736  48.0985565  65.0331039
  58.5426292  58.6648979  45.3429947  59.0809097  58.4029427  46.0899010
  59.0647697  58.4277687  44.5765915  52.3381767  21.3606319  76.3731232
  51.6887398  21.0623569  75.7363434  51.9906387  22.1909809  76.6986542
  27.7560196  11.3384132  19.6695042  28.3630943  11.2067900  20.3977680
  27.3777847  10.4730453  19.5135899  34.4607773  32.9063644  15.7847424
  34.8625031  32.0846367  15.5025826  35.1670799  33.5499573  15.7285290
  70.7905045  50.3088951  59.5291901  70.1719437  50.7340851  58.9351997
  71.5976868  50.8150253  59.4368744  82.5299149  11.1107159  57.5395050
  82.9347076  10.4191532  57.0159454  83.0665588  11.8849249  57.3696632
   2.3807120  68.2248611  85.2064743   1.5234662  68.3072128  84.7886505
   2.2063298  68.3550644  86.1386108  75.5205536  28.7104416   2.7560916
  76.4601059  28.8043995   2.5991168  75.3610077  27.7684345   2.6977897
  85.6904907   2.0859630  75.9910202  85.3133774   2.9639990  75.9356079
  85.1552353   1.6362298  76.6448364  79.3602448  20.6004353  79.8491211
  80.0785599  20.1243668  80.2657928  78.5885315  20.3705654  80.3666687
  56.0835266  50.6112823  21.3854141  56.6058044  51.1019516  20.7508259
  55.9703712  49.7485619  20.9864960  14.6072254  25.3696594  29.4204941
  14.6427517  24.7469578  30.1465874  14.9891043  24.8971310  28.6808205
   2.7000258   0.3825977  83.8737183   3.1532416   1.1309872  83.4854660
   3.2769887   0.0936380  84.5807190  45.1813087  56.5326996  17.3101368
  44.9101105  56.4885216  18.2270527  44.8783875  55.7077484  16.9307594
  34.4571915   8.8833456   2.5676386  35.2379875   8.4546213   2.9180448
  33.8098602   8.1817360   2.4973679  43.7781143  57.6107979  22.7415352
  43.3587532  56.8583412  22.3241901  43.5985260  57.4978638  23.6749325
  27.4232464  45.3833580   8.0822229  27.6333027  45.3071861   9.0129786
  27.0379009  44.5374870   7.8536477  68.5999603  40.9892693  43.1776695
  68.1887512  41.8429337  43.0420265  68.2884598  40.7073135  44.0377274
  49.0272598  47.9947586  39.0096779  49.5110321  47.2683830  39.4028358
  49.4809494  48.7792892  39.3177452  64.2393799  52.8910332   4.5864391
  63.5179596  53.3021622   5.0626283  63.8115959  52.3682747   3.9082370
  29.8699436   2.1903279  81.4593811  29.3317795   2.1542645  80.6686172
  30.7661877   2.0720732  81.1447525  22.8315125  37.5317726  79.2550125
  23.4652271  36.9243240  79.6366501  22.5208416  38.0510406  79.9966888
   6.7086248  25.7623081  66.3915329   5.8252368  25.4356918  66.5623550
   7.1626043  25.6747150  67.2296677  54.8651695  54.5018158   8.2364712
  53.9391785  54.7236671   8.1387234  55.3301430  55.3031197   7.9957595
  43.6923332  50.6469612  17.7369366  44.0168762  49.7964897  18.0329151
  43.8478432  51.2335014  18.4772205  75.7147675   6.4057779  64.8088150
  76.3897400   7.0214972  64.5232773  75.0266113   6.9591317  65.1782303
  74.0059509  65.0158539  39.4231796  74.4960251  64.7281723  38.6529236
  73.0956497  65.0493317  39.1291389  13.3509274  51.6501503  12.5879230
  14.1915483  51.5316696  12.1457148  13.2668447  50.8817101  13.1524248
  54.9788551  15.8122520  17.7427063  54.0241394  15.8066626  17.6740303
  55.1637039  15.3327761  18.5502739  60.1608429  14.7467146  83.1150970
  59.2868729  14.5627699  83.4594421  60.6355476  13.9213314  83.2132263
  83.9640274  25.4845371  24.0252209  83.1901779  25.1611671  24.4865494
  84.1390152  26.3385887  24.4204502   3.0023811  17.4087524   4.0180292
   2.5638564  17.2662811   4.8568554   3.0749972  18.3603439   3.9443057
  53.1565094  54.4435768   3.1817133  52.2689667  54.6936455   2.9248726
  53.3647461  53.6936073   2.6245632  69.9582520  52.5114136  15.8639021
  69.0355530  52.7027817  15.6958427  70.3854904  53.3679543  15.8577251
   1.8617814  38.1241684  42.5813942   2.4107039  37.8107452  41.8625870
   1.4815991  37.3297691  42.9563904   2.2432985  31.1573429  63.4134407
   1.9376242  30.8984356  62.5440941   2.5031221  32.0731201  63.3130608
   8.4529524  40.4392052  48.9933052   8.8716574  39.8737755  48.3442993
   8.8192005  41.3076401  48.8262367  56.0002098  47.9142189  39.1401672
  56.2357826  47.8087730  38.2184181  56.7877960  48.2729454  39.5491371
  54.4436684  45.1177902  54.7496376  54.9711342  44.3560410  54.9899559
  55.0588646  45.8508568  54.7690201  72.5620346   6.3920317  62.0000267
  73.3047180   5.7991328  61.8854866  72.4608383   6.4686708  62.9487724
  84.6207886  63.5914536  72.7662506  85.3213425  64.1565552  73.0920105
  85.0632935  62.7792206  72.5198669   3.2918212   1.9024403  27.6047878
   4.0602007   2.2268584  28.0744438   3.2899261   2.3914728  26.7819405
  68.6517029  54.3385544  65.2330170  68.1486206  53.6912651  65.7271271
  68.0777817  54.5851631  64.5077362  25.9905338  21.7499924  48.0811005
  26.3462791  20.8648357  48.0025330  26.0885525  21.9660816  49.0084267
  43.1446190  11.2598610  76.8651428  42.8808784  10.9509640  75.9983978
  42.5230865  10.8481617  77.4654999  56.4055901  58.0370522  54.5318184
  55.4569855  57.9099045  54.5171127  56.5380058  58.7848778  55.1144447
  58.7365685  36.4006844  49.7399712  57.8303070  36.4644699  50.0413857
  59.2181473  37.0112648  50.2980957  16.3053665  50.9775391  61.6557541
  15.9356670  51.6989784  62.1647530  15.7340412  50.2332878  61.8452530
  26.7486668  47.3199768  18.0809040  26.1373749  47.0470428  18.7650547
  27.3893261  47.8663292  18.5361919  15.9304276  14.9465227   2.6957426
  15.2433081  15.5521507   2.4176874  16.4494991  14.7943211   1.9060396
  47.1796951  64.3007202  52.7433090  46.3795586  64.0046616  52.3092995
  46.9510002  65.1544800  53.1107635  72.6853180  33.5352440  66.3786926
  71.7954559  33.3985023  66.0536041  72.7612381  32.9416733  67.1257782
  13.2747936  55.9289322  34.1091652  13.1042004  56.7213287  34.6183243
  12.4259949  55.7002678  33.7303734  29.5216484  58.0808144  45.7358856
  29.4823875  57.2733917  46.2484818  28.9986973  58.7075691  46.2358170
  53.8551064  51.6289368  43.1429482  53.5739822  51.7746124  42.2396317
  53.2411690  50.9779396  43.4828300  72.6134338   1.0967183  79.8009186
  72.8803329   0.3245884  79.3021088  72.3135910   1.7184237  79.1377411
  64.3620071  51.7112160  54.7949982  65.1245651  51.2863045  55.1876602
  64.0596771  51.0932045  54.1295052  68.9178848  28.4556332  44.1681938
  69.5592651  28.9435863  44.6846886  68.1752243  29.0533257  44.0818825
  61.3783379  54.2863503  48.0354462  60.6535263  54.2872086  47.4102478
  61.5860596  53.3603058  48.1600609  37.4779739  41.9535332   9.1710081
  37.0997734  42.5917015   9.7759361  37.4798470  42.3986588   8.3236055
  47.0957832  48.4768372  58.8051605  46.2310295  48.7422142  59.1182213
  46.9867249  48.3726387  57.8599205  47.8229828  57.6404381  51.4830894
  47.1913185  57.1277618  50.9787140  48.5714798  57.0545311  51.5957832
  52.2881775  69.0381927  68.1412277  51.5031815  69.5236664  68.3948593
  52.9222717  69.2303467  68.8320465   4.6832328  49.1644783   4.1020727
   4.6882544  50.0661888   4.4231958   5.0558600  48.6525154   4.8199000
  69.5567245   9.4553242  32.9236832  70.1424561   8.7582235  32.6283836
  70.0106201   9.8502007  33.6681862  18.2059383  43.4509926  10.4872093
  17.2659264  43.5350533  10.3273869  18.4992409  42.7971115   9.8526697
  44.8402939  58.4386673  32.9550552  44.3260689  59.2185211  32.7461700
  44.3319016  57.9905167  33.6310196  18.0089817  11.8444433  56.6843529
  18.5991077  12.0405960  57.4120255  17.1526775  11.7265024  57.0955276
   0.8809770  57.4247971  87.8998413   1.3669338  56.6324692  88.1285172
   1.5109508  58.1353149  88.0203705  50.9477959  67.3298264  27.1694260
  51.7179222  67.1400909  26.6335697  50.4150085  66.5366592  27.1123943
  21.3501167  16.7335529  11.3546553  21.1089802  17.0430965  10.4815750
  20.8470364  15.9274855  11.4704046  24.0058613  55.1486435  19.8424988
  24.5572701  54.4392471  19.5124416  23.5073223  55.4395752  19.0789223
  20.7749557  43.4415436  77.5498047  20.9318886  43.0207672  78.3951187
  21.3786793  43.0046844  76.9490509  37.3598061  59.8618698  46.9096413
  37.6912079  60.7566261  46.8333702  37.7890968  59.3860321  46.1986427
  65.1555252  60.7683830   0.2026839  64.3273010  61.2375145   0.1017153
  65.0190201  60.2021828   0.9622988  23.2349625   8.4032078  16.9894657
  24.0594883   8.4414301  16.5047703  23.0387859   7.4686246  17.0550442
  70.2003937  69.2511749  60.5667191  71.0618210  68.9023056  60.7957764
  70.2488632  69.4089432  59.6238556  25.2102394   6.9203830  83.7321625
  25.2141647   7.7980638  84.1141205  26.0631256   6.5538130  83.9654922
  83.7783890   7.6347470  52.5400467  84.3099747   7.0224400  52.0313950
  83.4769592   8.2793245  51.8998184  80.9026642  50.7970695  49.1416435
  81.7671051  50.7624931  49.5512581  80.4100800  51.4215431  49.6742058
  11.5406532  23.3523617  30.6936932  11.4448557  24.1328354  31.2395077
  11.3242369  23.6500053  29.8100624  17.8254757  32.0148354   2.3585472
  18.5888309  31.7885437   1.8272175  17.0754013  31.7681313   1.8174781
   2.9836092  20.4704952  71.7837067   3.3530972  20.6795864  72.6416092
   3.7075648  20.6044884  71.1720123  66.2413940  29.0635376   5.7043715
  66.7190247  28.2901134   5.4045115  66.2403107  29.6519890   4.9494171
  26.9218960  46.2651978  39.0794029  26.3445759  46.5092926  39.8028336
  26.6265774  46.8036156  38.3451500  38.9256058   9.7602501  84.8747177
  38.0172501   9.4855442  84.9998550  38.8710785  10.7025137  84.7153473
  17.0039463  47.6355782  79.0375061  17.5653152  47.6760712  78.2632599
  17.3134918  46.8676949  79.5178909  48.9725266  44.3548660   3.0233095
  48.9348106  44.1848450   2.0820861  49.6877747  43.8020821   3.3380806
  51.1157303  20.7562599  79.3499527  51.8330536  20.3192253  78.8909531
  51.4818649  20.9843636  80.2044449  61.3265648  70.2265244  68.2846909
  62.0502052  70.5690079  67.7600250  60.9935493  70.9880676  68.7594452
  43.4331741  65.8353653  24.7602348  43.7082367  65.1493683  25.3684998
  44.2460709  66.2759171  24.5125771  81.6013260  58.9145966  28.3401680
  81.1585846  59.4743004  28.9780941  81.2999649  59.2353973  27.4901676
  49.5571861  58.1205482  38.7349396  49.3078461  58.5890007  39.5315628
  49.7023048  58.8100853  38.0870895  43.0723953  27.1078205  24.4276199
  43.6030464  27.8858566  24.5987930  43.7103844  26.4190998  24.2408981
  36.4091377  14.6491795   3.7433078  36.5531731  15.5345650   4.0773430
  35.6162415  14.3510666   4.1890354  52.7086449  42.6219368  29.3170319
  53.0224953  43.5228004  29.3955784  53.2937737  42.2195549  28.6752014
  19.2092590  12.6761971  18.0008221  19.7290516  12.0530720  17.4931183
  19.5675945  13.5327177  17.7680092   3.8443134  23.2569466  60.0863380
   4.3659334  22.7920494  60.7405701   3.9890482  24.1833553  60.2788200
  82.4565735  61.7686272  62.1678009  82.4904556  62.0998688  63.0652199
  82.8212509  60.8854370  62.2245560  11.6727934  10.9385080  33.1685867
  12.3186703  10.8570061  32.4668503  11.2680721  10.0728092  33.2233315
  58.6550331  35.0360489   0.9209071  58.5872574  35.9511948   0.6486080
  57.7482376  34.7341461   0.9739162  67.1576996  65.7586899  46.5509758
  67.0115662  66.6932907  46.4046669  66.6634293  65.3270111  45.8541451
  33.1180229  55.7727776  82.1827850  32.6873856  55.0516548  82.6418762
  33.9920044  55.4394379  81.9796295  73.4492264  57.4420815  12.8620911
  73.7067337  56.6397514  12.4080172  73.6644363  58.1443024  12.2482481
  44.9888802  70.7607422  37.5549774  45.0538445  70.0574570  36.9089088
  45.2107582  71.5544586  37.0681343  84.9756622  15.6620512   0.5657268
  85.9165649  15.8223057   0.4932303  84.9032364  14.7169294   0.6988875
  76.9793472  14.5185976  76.5795593  76.8513718  14.9441442  77.4273605
  76.9555130  13.5820036  76.7756577  19.4139862  70.8397827  34.9759598
  18.6917629  70.6800537  35.5835075  20.2026310  70.7292023  35.5070381
  86.5166092  52.5203323  12.2169094  85.5783997  52.5888405  12.0400057
  86.8216400  51.8302193  11.6278982  33.4848366  29.9007835  75.9235840
  32.8180275  30.3634014  76.4311142  33.3804398  28.9822769  76.1719360
  10.7072439  37.6298904  54.5849037  11.2968645  38.0932770  55.1797600
  11.2779112  37.0376244  54.0952225  15.6930399  68.6588821  68.5870972
  15.3017187  69.1537552  67.8672333  16.5330601  68.3570328  68.2414246
  23.2614212  60.4919930  84.8972244  22.3533268  60.1924095  84.9401855
  23.3805504  61.0102730  85.6931076  30.3133411  11.8316593  67.6530151
  29.8976269  12.6878395  67.5511856  31.2360573  12.0307817  67.8116989
  25.3804779  39.4521446  24.4085217  24.9124508  39.8448715  25.1453724
  25.0435696  38.5574989  24.3602200  66.8899536  45.8513107  71.7201233
  67.6895676  45.3582039  71.9037170  67.1368256  46.4560356  71.0204086
  32.3670006  67.1263733  30.0094872  33.2524872  67.2498322  30.3513985
  32.2514496  66.1765900  29.9811687  86.5654678  44.8475647  84.1038895
  85.6677170  44.9287033  84.4259033  86.4763260  44.8159027  83.1513748
  63.4164314   5.1771855  51.6600571  63.5659828   6.0390110  51.2713089
  63.7519417   4.5597649  51.0100899  75.1567230  36.2825661  22.9188023
  75.4358521  37.0013771  22.3516769  75.3042831  35.4941711  22.3964157
  76.6223373  41.5018463  22.3203335  77.1867981  41.6382446  23.0812645
  76.5638580  42.3636703  21.9079399  36.6899681  60.7955742  36.2023849
  35.7352219  60.7332535  36.2307777  36.9407005  61.0391197  37.0934792
  39.2893677  58.4315491  70.6542587  39.8693810  58.9990921  70.1466141
  39.8668327  58.0017700  71.2851791  61.7914925  42.2201385  12.6852665
  62.0861130  41.6490021  13.3946543  61.4895668  41.6194839  12.0038815
  42.4492378  67.0982742  33.9896011  42.4438667  68.0013504  33.6723213
  42.5205498  66.5663681  33.1969986  47.2959900  45.4476624  17.8480091
  47.7183189  45.6169662  17.0058651  46.5974350  44.8255844  17.6448612
   5.1830153  23.9126015  71.1940842   4.3631015  23.6308155  70.7884140
   4.9773269  24.7617245  71.5851288  81.7416000  27.0248642  19.0520859
  82.0415726  27.0626659  19.9602814  81.5147324  27.9295559  18.8369293
  78.3005447  13.8102570  69.1372910  77.9409637  13.5548868  68.2877502
  78.9684067  13.1501522  69.3228989  49.5452042   1.4319131   9.8634710
  50.4167442   1.0476885   9.9584398  49.3367729   1.7709823  10.7340002
  50.1364136   4.1866612  18.6055508  50.0574646   4.8758736  17.9460163
  49.3272400   3.6820736  18.5227261  85.5584335   1.8920034  27.0184059
  85.7866287   1.1765736  26.4248428  85.2416763   2.5885482  26.4433193
  80.8666687  37.7342949  29.0198917  81.5276260  37.8410225  28.3358097
  80.0609131  37.5311165  28.5448017  29.4147263  68.7687225  52.2694244
  29.8285065  69.4387207  52.8135910  28.6254520  69.1901855  51.9293556
  49.3332710   5.8986773  43.6370926  48.4505272   6.2387557  43.4909935
  49.3578758   5.0774264  43.1459999  42.0658226  38.5883560  68.4006424
  42.0631599  37.6632538  68.1548462  42.9193611  38.7244377  68.8119659
  66.1312714  40.8225098  76.2143173  66.4881363  41.5476189  75.7013855
  66.5363998  40.9167900  77.0764160  75.1938400  38.2148209  16.1558094
  75.2291336  37.8441734  17.0376301  74.9314117  37.4822388  15.5984125
  67.6938019  34.5961342  77.7531586  68.3640900  33.9276772  77.8949356
  66.8824921  34.1903877  78.0587463  37.8660278  11.0456686  70.5251160
  37.7923737  11.9894867  70.3836441  38.1050758  10.6929350  69.6679916
  68.6059723  55.6600800  68.2789993  68.1608505  55.0871658  68.9033966
  67.9749451  55.7764015  67.5687103   7.0497532   5.5773697  28.9121418
   7.6231966   6.3342481  29.0326786   7.6351099   4.8767972  28.6244144
   4.2821360  59.9271393  29.3472576   4.4148536  59.0130348  29.0961933
   4.0755858  60.3734970  28.5260792  74.8986130   2.2952919  14.1118593
  74.9667740   1.6451888  13.4126081  74.1019592   2.7847791  13.9069910
  41.3552437   1.4549651  66.8445892  41.7065315   2.3184357  66.6272278
  41.9566307   0.8393192  66.4256058  61.1037865  32.8584061   5.0759664
  60.6297226  33.6796875   4.9456086  62.0125618  33.0699234   4.8623781
  84.2501373  40.0105896  63.2543907  83.9500198  40.8874626  63.0151138
  85.1426620  39.9612007  62.9120636  60.5754929  65.1808014  80.4650650
  59.7094841  65.3402405  80.8403473  61.1712608  65.6939240  81.0109558
  52.5592003  32.5181618  44.4846306  51.6737785  32.1888847  44.3302307
  52.7143059  32.3606415  45.4159508   9.3677940  42.4388962  15.4301071
   9.7196369  41.5631371  15.2704639   8.8874559  42.6534729  14.6304426
  17.9323273  51.5973663  77.1931534  17.3217773  52.0869904  77.7442780
  17.3726521  51.1247635  76.5770035  74.5256424   6.2176690   0.0413792
  73.7229462   5.8956318  -0.3687498  74.7873688   5.5167952   0.6384607
  12.7088575  49.0938339  38.4065514  12.1236486  49.0572968  39.1631432
  12.7674894  48.1872330  38.1051025  76.7890091  28.4270592  53.1152763
  77.3595428  27.6975555  52.8733063  75.9057388  28.1166153  52.9160538
  10.8529816   5.0119972  64.4605789  10.8044233   5.3000159  63.5490341
   9.9396896   4.9396400  64.7378769  17.5421658  68.6187363  42.0079155
  16.6725960  68.2274017  41.9246368  17.9139481  68.2119141  42.7905426
  45.3822098  32.1984558  86.1753693  45.9763451  32.3324013  86.9138107
  45.4783096  32.9889297  85.6441956  35.1356201  26.9658108  10.3024454
  35.7301369  27.0713768  11.0451689  35.6831474  27.1228695   9.5331745
  39.1777267   4.4384995   5.5470052  38.6281242   5.1780891   5.8061857
  39.5789757   4.1405993   6.3633914   5.7566400  32.9742775  24.9346008
   6.2921543  33.7171288  24.6559830   6.3528843  32.4278679  25.4466171
  26.8339787  53.7397385  31.7383938  26.9680691  54.2340736  30.9297600
  26.4741020  54.3791466  32.3531151  73.2455750  37.4570770  50.1153450
  72.5454636  38.1089859  50.0822945  73.2603607  37.1675224  51.0275764
  77.0234451   0.1085754  76.6198196  77.8413849  -0.2352723  76.9789581
  77.0825272   1.0546626  76.7527161  46.1847420  52.4326630  48.7692986
  46.0952530  53.3780098  48.6486931  47.0280495  52.3261299  49.2094307
  57.0684586  53.2788048  58.4983444  57.6660042  52.8038788  59.0759430
  56.5758896  53.8539162  59.0838814  62.9978943  59.3728256  51.3401718
  62.4444847  58.6893959  51.7181854  63.7788849  58.9089317  51.0383606
  11.2385702  63.2662697   4.5387144  11.6120367  63.1082649   5.4057727
  10.2925663  63.2029266   4.6702304  25.5573788  43.7591629  38.7401199
  24.7426014  43.7044029  38.2407455  25.9092751  44.6242256  38.5302048
  69.4024582  50.3917007  47.6415100  69.7225494  49.7006760  48.2213898
  69.2247238  51.1300621  48.2241440  53.5407181  43.5907707  22.3586712
  53.5435448  44.5448341  22.2812614  54.2344742  43.3003769  21.7665501
  11.2622890  34.6453438  14.0553370  12.2192373  34.6669197  14.0511475
  11.0225639  34.8284378  14.9637642  36.0592804  53.1773338  13.2060986
  36.9867210  53.3741150  13.3378782  36.0126610  52.8279915  12.3161449
  50.5988121  43.8673058  24.0204868  49.6859703  43.8684921  24.3085060
  51.1056213  43.8172798  24.8309650  12.7873440  65.2927704  54.7742805
  12.8471832  66.2278442  54.5786133  13.6820278  64.9686661  54.6707039
  49.1847610  65.5264664  22.0052509  48.6544189  66.1760788  21.5437565
  50.0720978  65.6617432  21.6727295  21.4257011   1.9428077  31.4933586
  20.7467442   1.2892553  31.6610394  22.1822281   1.4332104  31.2031689
  56.6408081  19.2079945  22.5858612  55.9496155  18.5482311  22.6424484
  57.1289635  18.9763088  21.7957611  76.3267212  42.6094856  74.5716171
  75.5705948  42.0233154  74.6019592  77.0053177  42.1508942  75.0670242
  79.4384766  26.4554024  30.3998718  79.7939606  26.8233547  29.5908775
  79.5160904  25.5081139  30.2865143  26.2776623  14.3477564  12.1651468
  26.2777061  15.1575851  12.6754494  27.1572800  13.9895477  12.2842674
  30.1733265  54.8291359  52.5472603  29.6207676  54.3986893  51.8948593
  29.6830673  55.6123581  52.7971420   6.9336305  12.4123554  18.5527401
   6.1534543  12.8635254  18.8752346   7.5851154  13.1057510  18.4478493
  63.2710381  29.9798279   2.9694514  63.0433769  30.5529499   2.2373762
  62.5999794  30.1557007   3.6289849  17.8292141  51.4180756  55.0062943
  18.1716461  50.8251610  54.3373985  16.9302063  51.5967369  54.7304382
  39.8476830  57.5263634  25.9114685  40.1320839  56.6188927  25.8026371
  40.2204895  57.7951431  26.7511139  80.1706390  51.4167519  59.6583481
  80.0496140  52.1727982  60.2327805  80.2156448  51.7896538  58.7779236
  78.4661484  45.8878632  55.9835091  78.3689499  46.3155098  55.1326866
  78.6439209  44.9714012  55.7720222  23.6854649  12.2755051  14.6297274
  23.7914581  12.9241924  13.9338808  23.0523491  11.6491690  14.2788715
  25.0777435  62.2801743  19.9669857  25.0688610  62.1762962  19.0154800
  25.7569427  62.9346237  20.1301422  49.9610748  41.7834320  88.1766434
  50.7848854  41.4717178  88.5513535  49.6116257  42.3853264  88.8337936
  72.5955429  68.3312759  37.0763474  73.2928009  68.5637817  37.6895409
  72.7506943  67.4082184  36.8760414  18.8576031  51.9676361  21.5066700
  18.2112045  52.2639618  22.1474438  19.4983864  51.4775810  22.0219154
  58.9312630  11.6169195  62.2025452  58.8643456  11.6914959  63.1544876
  58.7399788  12.4973450  61.8792915  11.9816113  33.5110703  73.8852692
  11.9174500  33.6074142  72.9350891  11.2989645  32.8782997  74.1084824
  70.8626099  51.9211426  19.0514984  70.7072449  51.5112305  18.2005768
  71.4968033  52.6149788  18.8708954  12.9554558  14.9995146  16.4034042
  13.0424995  14.2894459  15.7674351  12.2029619  15.5051718  16.0963306
  61.2175865  66.1530380  61.2230644  61.4857445  65.3394165  61.6500816
  60.4658508  66.4547195  61.7330742  54.8968849  50.6867332  23.7418594
  54.8602943  51.6090889  23.9951439  55.4661789  50.6720314  22.9724960
  22.2667789  64.5483627  33.5639458  21.5044918  63.9694443  33.5623131
  23.0180149  63.9551888  33.5676994  51.3148460  47.4798279  22.0528488
  51.2903137  47.4787674  23.0097351  50.8104897  48.2534714  21.8011856
  46.8449898  16.8774090  13.1529675  46.9180489  17.7413750  12.7474337
  47.2927437  16.9689655  13.9940186  49.7609558  54.6002846  71.9051437
  49.8742828  53.9514618  72.5997086  48.8706856  54.4552269  71.5848160
  74.6636047  18.3782787  65.0283813  74.7058182  19.3321419  64.9605942
  74.5446472  18.2096214  65.9630661  51.9473839  32.4038734  83.7238770
  52.0349731  31.4539566  83.6450424  52.0548630  32.5775261  84.6590347
  30.5097313  63.6289024  67.4582901  30.4843655  62.9742775  68.1561890
  29.7772694  64.2139206  67.6519089  68.5638504  51.8615608  75.1143875
  68.0061111  51.0890923  75.2063293  69.0923233  51.6841736  74.3362579
  83.8907166  17.0020943  20.6533546  83.7049103  16.3742580  21.3515892
  83.8241577  16.4903660  19.8471680  71.2882080  26.9633827  50.3728027
  70.7659454  27.7085915  50.6696777  71.1614380  26.2976093  51.0487518
  58.1760368  69.1344299  49.7274323  58.2476616  69.8581543  49.1050758
  57.2377510  69.0603638  49.9016876  43.5263329  52.1289749  50.2215576
  44.4033470  52.3135719  49.8854027  43.5825348  51.2351151  50.5593300
  63.4814568  64.7407990   4.7275400  63.6359673  65.6421127   4.4447184
  63.5601578  64.2217865   3.9271252  57.9430237  29.1623554  34.1899757
  57.6890564  29.9969406  33.7960243  57.4010582  29.0937500  34.9759789
  29.0486393  66.0216446  53.3454666  28.1321793  66.1048050  53.6089401
  29.3019829  66.9050293  53.0777321  54.9608383  61.0333290  80.1791534
  54.6457901  61.8322029  80.6019669  55.6567612  61.3309250  79.5931854
  44.4598465  28.6441498  84.4304352  44.2789841  28.7200699  83.4935455
  43.6754837  28.2325668  84.7932053   4.9298086  17.3885918   7.2048259
   5.8082557  17.4814339   7.5735302   4.7239919  16.4594212   7.3073602
  53.6056404  24.1633797  14.6906939  54.2203331  24.8971176  14.6875172
  53.4585991  23.9781246  15.6182127  46.3116913  47.8958855  22.7356701
  46.4925537  47.4545403  21.9057674  46.0930710  48.7939110  22.4867020
  39.1646538  70.2411575  53.4900627  38.7692299  70.0847015  52.6325150
  40.1039543  70.1275482  53.3450165  82.7732086   1.8241680  28.3746338
  83.4864807   1.4241602  27.8771648  82.0561523   1.1929018  28.3149643
  39.0452766  51.8954201  67.8881531  38.1743011  51.6876678  68.2265015
  38.9019775  52.6320915  67.2940063  27.0013618  53.9318390  60.9686546
  26.9991455  54.7967682  60.5586243  27.7077732  53.9741364  61.6131897
   4.2569356  31.5109310  81.4163055   3.9859028  30.5935974  81.4519806
   4.9535613  31.5804138  82.0690765  85.2759323  32.3786659  30.3689976
  84.5904846  32.0154152  29.8082523  85.2437668  31.8449268  31.1629257
  49.7171288  40.9992447  37.8578873  50.3340721  41.2659111  37.1763458
  49.5660973  40.0684624  37.6933708  48.9754219  33.2658310  63.7858391
  49.6558189  32.7360153  64.2012711  49.4337845  33.7469788  63.0968971
  71.0473175  25.8474102  17.9661446  70.4103470  26.2029934  18.5858746
  71.6276016  26.5830936  17.7705269  77.4327164   4.1629977  13.1329632
  76.9194641   4.9500833  12.9504814  76.7853699   3.5128727  13.4059258
  39.6095352  29.3437462   9.9382305  40.5297775  29.0803661   9.9338064
  39.5833054  30.1129932  10.5072670  25.8007050  59.2418022  71.3733521
  25.6992378  58.7149010  72.1660156  26.0765610  60.1016045  71.6909637
  68.9401398  63.7644920  13.9495335  69.6008759  64.4569092  13.9347162
  68.1312561  64.1994934  13.6798925  23.8600101  25.8186455  85.0752792
  24.3160820  26.5602493  85.4730911  23.0707035  26.2007389  84.6915741
  41.3501778  60.1727028  66.3670197  40.4519005  60.2593994  66.0479355
  41.8722610  60.6943855  65.7575073  43.4375534  16.8861961  23.7874222
  44.2656975  17.3406582  23.9419498  43.6918602  16.0537014  23.3892860
   8.2212219  41.4715652  73.0544281   7.3505998  41.7627983  72.7834473
   8.4834919  42.0969505  73.7299576  58.4251785  17.8538227  62.2402000
  58.2124405  18.6644363  61.7777290  57.8023338  17.2124462  61.8982506
  10.1964264  30.9327145  70.4435883   9.7350435  30.6007538  71.2137604
  11.0770779  31.1338501  70.7601776  32.0442123  43.6779709   3.6745658
  31.1769047  44.0390320   3.4911418  31.9639874  42.7463455   3.4699473
  11.9196205  27.6742630  17.4114494  12.1482105  28.0416451  18.2652702
  12.6949072  27.1780567  17.1488819   1.3779598  15.5390034  64.3793488
   1.9070394  15.7791767  65.1400223   0.4735004  15.6551342  64.6703796
  53.1772270  65.7218781  39.7434540  54.1154366  65.6585541  39.9223022
  53.0993080  66.4513626  39.1286240  51.9405403  56.3477936  31.9495811
  51.6802635  55.4427185  31.7783241  51.5904388  56.8420296  31.2083721
  50.9853363  20.6654339  31.0840511  50.5540962  19.9092903  31.4821815
  51.5941849  20.2873230  30.4495659  38.4192619   1.1088086  73.8487167
  38.0356636   1.8387480  73.3626328  39.3150139   1.3898356  74.0354843
  75.4607468   9.8763237  54.3626213  75.0474548   9.3278799  53.6958084
  76.2447357   9.3910284  54.6196709   5.0955119  -0.0967041  44.0079956
   5.1086030   0.8236960  43.7454643   5.2051587  -0.5808048  43.1895485
  59.0135155   6.5648131  29.4655399  58.7787361   6.4212222  28.5487556
  59.6354065   5.8652864  29.6659126  76.2645340  15.4444666  79.0772324
  75.9292221  14.5955744  79.3656387  77.0941238  15.5454187  79.5439453
  38.6072273  63.8659515  49.0483360  39.0063629  64.4584045  49.6854591
  39.0180969  64.0978317  48.2154808  26.3929443  67.0798340  63.2920952
  25.9710274  67.9350662  63.2096405  27.1807137  67.1483994  62.7527008
  11.7073326  29.0432148  75.4070282  11.7147074  28.8408146  74.4714966
  11.3320408  28.2642593  75.8176575  81.5352402   2.4373403  35.6882858
  81.1214447   1.5834565  35.5622406  82.4704208   2.2698753  35.5715294
  72.2544022  55.2434540  83.0734024  72.5340958  55.2288437  83.9887161
  73.0157623  54.9299431  82.5852737  21.0156212   0.7530162  22.4287472
  20.3623848   0.4918305  21.7796726  21.8322163   0.3627165  22.1171837
  30.3362083   3.1798511  38.3749008  30.9675140   2.9906180  37.6807251
  30.4456291   4.1145391  38.5498772  51.8340836  34.4277039  75.5011597
  51.6351852  33.8313904  76.2230225  51.3562317  35.2292976  75.7140808
  31.5438557  62.1687050  42.9606361  31.4917183  61.4237518  43.5594292
  32.4480362  62.4737015  43.0359383  32.5258446  20.0879517  -0.1149947
  31.6551704  20.4810429  -0.0546847  32.5764885  19.5011349   0.6395339
   0.6893799  39.8269958  68.7792282   1.2993703  39.2477989  69.2360382
   1.2503068  40.4110222  68.2688293  77.4103699  23.5783501  84.4943542
  76.5092697  23.2985497  84.6554413  77.3930740  23.9443359  83.6100540
  50.4013977  55.0463371   2.3879848  49.8457756  55.1941223   3.1532784
  49.9625664  55.5164757   1.6790216  68.2982712  40.1988869  13.1571579
  68.3395004  40.1954384  12.2008524  69.1867599  40.4223862  13.4343920
  19.8436146  47.9477844  45.5507545  20.4539108  47.3654747  45.0983276
  19.1512508  48.1130676  44.9107971  35.7556114  45.1703949  55.8220482
  35.8610649  45.6577835  55.0050011  35.0792351  45.6492844  56.3010178
  68.6041412  30.9175606  81.2124329  68.7239304  31.5899525  80.5417786
  67.9113693  30.3549061  80.8664246  65.8665543   8.2389326  19.8806477
  65.8423843   7.9373803  18.9725113  65.3964005   9.0726299  19.8687782
  10.6482401   0.2903903  35.1409912  11.4351549   0.5350827  35.6279449
   9.9284773   0.6793295  35.6378822  17.1521797   9.1035242  16.6211376
  17.4754562   9.0990543  17.5220833  17.9397316   9.0191717  16.0836639
  79.0681610  48.0000648  31.9031925  78.6222534  47.2001648  32.1816864
  79.9942474  47.8305969  32.0760193  51.4676933  52.8850212  55.5545349
  52.0832367  53.0939331  56.2571678  51.3597336  51.9352798  55.6052055
  19.2170429  71.8862457  20.0485344  18.7883968  71.2118225  20.5754623
  19.5412197  71.4187164  19.2787590   1.3526639  64.9292297  85.6746597
   1.4709834  64.1185608  86.1696777   0.4456382  64.8941345  85.3708420
  23.0998631   4.9575720  27.2507763  23.4843979   5.4214206  27.9945564
  22.1574783   4.9774437  27.4173584  38.1333313  60.5887871  42.7421227
  37.6485291  59.9490776  42.2206154  39.0513878  60.3413200  42.6318512
  51.0299149  21.5468636  55.9950981  51.5938377  21.0231400  55.4259453
  51.6318207  22.1296692  56.4579964  86.2412109  27.8321228  68.5532608
  85.3449631  27.5991631  68.7955322  86.2262878  28.7854404  68.4684296
  63.8845634  48.9351387   6.5023961  63.1835289  49.5223999   6.7850652
  64.6886749  49.3630714   6.7965202   7.1053600  46.6406822  45.7566643
   7.1118069  45.7391586  46.0783005   6.3073258  46.7019806  45.2316742
  27.3978596  27.8965416  74.4935837  27.1172256  27.4987202  75.3177338
  28.0404510  28.5568676  74.7529602  36.8086853  43.6186218  78.7934647
  36.7921638  44.5709038  78.6979828  36.0335922  43.4169846  79.3176804
  73.4021378  12.7419014  46.4721870  72.8999557  13.4851627  46.8062706
  73.9409637  12.4644804  47.2130852  56.5540047  34.0887604  15.4399681
  56.4389229  34.8438568  14.8630676  56.7231865  33.3572884  14.8462019
  83.1728439  10.9173441  37.5591278  82.3042221  10.5548944  37.7333679
  83.1506805  11.1577034  36.6328621  55.2056808  28.8243904  36.0281639
  54.3642159  28.5482941  35.6649246  54.9843826  29.2201252  36.8711662
  15.1369104  56.8426819  65.9834900  14.4533472  57.2663383  65.4643631
  15.8872108  57.4335899  65.9193878  68.1285553  56.5818138  71.7049866
  67.3758011  56.1338615  72.0909042  68.4624634  57.1385117  72.4084167
  16.4693985   4.1629829  30.9044914  17.0788288   3.8598399  31.5774918
  16.7089539   5.0782590  30.7591820  54.4437141  51.1885986  15.0875616
  55.3080025  50.8153381  14.9146032  54.3184128  51.8347244  14.3925419
  27.4634151  14.6292896   5.3090158  26.6346970  14.1773348   5.1502881
  27.2937851  15.1788797   6.0741358  61.5382957  20.6046772   4.6298237
  60.9086647  19.9348221   4.3631926  61.9310493  20.9041328   3.8098834
  11.0488491   9.2769766   4.0539713  11.4785204   9.9759932   3.5610306
  10.1656389   9.6075439   4.2179728  68.3078308  58.8442421  68.3491821
  69.0796051  59.3304710  68.6393127  68.6313934  57.9590912  68.1817017
  72.9329834  25.7765865   0.6497543  72.4208527  25.0728283   0.2514111
  72.3550873  26.5391121   0.6210988  50.4477539  57.9282417  68.2895203
  50.3518753  58.7535896  68.7647400  49.9582291  57.2928352  68.8118820
  86.8036270   4.8351154  19.6666164  87.0104599   5.5141883  19.0245018
  86.0956726   5.2091308  20.1911564  46.8009338  48.7681351  56.2081108
  45.9309196  48.5677032  55.8629532  46.6888275  49.5969772  56.6736031
  55.3190460  65.2125854  53.2365761  54.4813957  65.4205017  53.6505203
  55.8871727  65.9490891  53.4624519  26.1435127  11.2556944  34.0661201
  26.0633297  10.3018646  34.0694733  25.8642120  11.5226116  34.9418945
  55.4752541  53.4997978  41.4446678  55.5305367  54.4140358  41.7227745
  54.5384636  53.3033295  41.4524040  51.4481544   5.5245609  72.0158539
  51.1560555   4.9715104  71.2912598  50.7291565   6.1418290  72.1509628
  50.8650055  32.3496323   8.0354576  50.1999435  31.6612225   8.0312910
  50.3719330  33.1581650   8.1746941  11.5107718  69.8257599  25.9356918
  11.6993494  69.6779480  26.8624172  12.2838030  69.4950104  25.4782448
  76.3069611  39.7155991   2.5817068  75.9423904  40.6005554   2.5683193
  76.7143173  39.6374016   3.4443617  51.4081802  25.1625080  68.1029663
  52.2693253  25.5264111  67.8974457  50.8749847  25.3592892  67.3327637
   9.7103338  33.8984184  80.9836044   9.7568140  34.6774025  80.4292984
   9.9947758  34.2008514  81.8460693   7.1034846   9.5231380  82.8078384
   7.5413909  10.1416731  82.2231293   6.6575074  10.0753155  83.4500504
  47.9677544  54.3367157  46.5078049  48.5856323  54.5575142  47.2047310
  47.1146736  54.6027718  46.8508759  49.0289917  63.5098801  45.9256287
  48.8301544  62.6180573  46.2108345  48.8011627  64.0579147  46.6766205
  65.0447845  66.1879959  83.7945709  65.6923065  66.5951157  83.2190781
  64.6012192  66.9246826  84.2150116   6.3416185  20.6606827  81.1551056
   6.0282664  20.2731133  80.3378983   6.9290266  21.3634644  80.8771133
  29.2345791  67.1623688  72.6987762  29.2444992  66.7771301  71.8225708
  29.4168110  66.4281845  73.2852859   4.7529807  65.8874664  37.7954254
   4.5274963  65.7624512  38.7172508   5.1502500  65.0576019  37.5313530
  67.9908142  59.6539497   6.2172961  68.2133102  59.0154877   6.8948607
  67.6588669  59.1264038   5.4908390   3.5641072  31.8929234  45.4790344
   2.9513133  32.6275101  45.5121956   4.1711283  32.0546036  46.2012672
  78.1816177  19.4594021  62.8103561  78.1999741  19.9208965  61.9719543
  78.1446762  18.5328407  62.5729752  27.0228119  68.8304214  35.7606964
  27.4318771  69.3876953  35.0986176  27.1184139  69.3196793  36.5778427
  24.3483238  51.7121277  83.9686127  24.9575157  52.3323059  84.3692322
  24.6250381  50.8573532  84.2987976  14.9130592  19.0612850  17.2974091
  14.6735659  18.3267689  17.8625317  15.8462934  19.1959476  17.4622478
  42.4090042  50.5876961  45.9841423  43.0704308  51.0154343  46.5280037
  42.7886124  49.7351112  45.7714767  60.2548409  20.5656090  17.8534889
  59.4824142  20.1483040  18.2348614  60.4199219  20.0741005  17.0488777
  15.0190735  28.4880238  70.0536194  15.5722723  28.0642452  70.7098312
  15.3432646  29.3876877  70.0119476  20.5580330  61.2401352  72.6972580
  21.0312824  60.8098068  73.4093628  21.2320042  61.7237625  72.2196655
  28.0470200  31.6921539  16.2832413  28.3801765  30.9375782  16.7688885
  28.5169773  31.6670246  15.4497309  38.0417290  50.3901405  43.6740303
  38.2393875  49.4753952  43.4730110  38.7833824  50.6848869  44.2025261
   3.3738544  21.9953632   4.2351365   3.9765370  21.5527668   4.8327260
   3.0411520  22.7389469   4.7377567  56.1392174  58.3517151  66.6659088
  55.3761635  57.8060074  66.4756851  55.8285027  59.2488251  66.5439148
  66.5527267  41.8969231  16.6217670  66.7881927  41.1078300  17.1097412
  65.6639175  42.1017799  16.9120903  29.8694515  64.8994064  83.2245026
  29.3747921  64.2563629  83.7324753  29.5067883  65.7445526  83.4898987
  62.6385841  42.4151955   6.7481279  61.8421059  42.8884850   6.9886541
  62.3296547  41.5542221   6.4661403  65.3701935  39.3433113  37.2604942
  65.5771561  39.6332283  36.3720436  65.9295120  39.8785095  37.8234825
  58.1753845   8.9392700  12.2185793  57.2703056   9.1310940  12.4640722
  58.1200180   8.1269178  11.7153387  13.3432636  28.7940655   2.4173782
  12.7495756  28.7181816   3.1643779  12.8026323  28.5747833   1.6585203
  33.3560905  41.4267273  56.9179497  32.5716591  41.8471527  57.2702866
  33.7812195  41.0351830  57.6809654  44.3648949  52.8872147  45.0840034
  45.2798576  53.1544418  44.9964523  43.8793411  53.7101974  45.1402512
  59.2748299  55.0359612   2.2670469  59.2901649  55.9502831   1.9841799
  59.0242424  55.0749741   3.1900399  46.4453926  69.9502869  39.6241798
  47.1498756  70.5439529  39.8839874  46.0244865  70.3875198  38.8839798
  11.1770020  66.1274338  85.1256256  10.6220798  66.7546692  84.6620865
  10.5776205  65.4322357  85.3970566   3.6665306  63.3876877  28.4027767
   4.5309348  63.2870903  28.8014221   3.0531428  63.2711716  29.1283188
  59.0044518  57.9433327  85.1740570  58.9008179  57.0431061  84.8657074
  58.2739372  58.0750999  85.7783890  52.8894768  61.5011673  66.2669830
  52.0084267  61.6521568  66.6093063  53.1434250  60.6509132  66.6258774
  58.2926331  56.0150146  61.1110420  59.1598282  56.4202347  61.1113930
  57.7634697  56.5821724  60.5501938  69.2635193  20.5467911  38.2907372
  70.0357056  19.9946079  38.4134102  69.1638031  21.0076103  39.1237640
  75.1896057  52.1199265  52.6775055  76.0941315  52.3243752  52.9147186
  74.9523926  52.7908401  52.0373154   9.1270704  18.1810055   5.1419334
  10.0730181  18.0371151   5.1152740   8.7534027  17.3896160   4.7542372
  -0.1821410   4.4163079  38.3280678   0.1320966   5.3201642  38.3050346
   0.4098021   3.9723387  38.9352951   9.9196730  42.7528114  24.5354080
   9.1450891  43.2796211  24.7321930  10.3540287  42.6404266  25.3809471
  71.5889435  58.6549416  20.3583565  70.8533783  58.8508835  19.7780247
  71.1802979  58.3486252  21.1679325  67.4926529  35.5218964  28.0156250
  66.9424133  34.9916916  27.4391270  67.0424728  35.5032234  28.8601494
  72.1715164  15.1388941  47.3318100  72.9838028  15.6364403  47.4260063
  71.6003876  15.4802380  48.0199471  68.9149170  67.6345978  10.5824709
  68.8241882  68.5860214  10.5296316  69.0561829  67.3568420   9.6774158
  17.3600121  49.3281021  49.7426224  17.2005653  48.9249039  50.5959930
  17.5960579  48.5964355  49.1723785  73.2536469  31.0380554  56.6853065
  73.0548477  30.2992668  56.1100693  73.9934464  30.7380714  57.2134590
  77.2124634  54.2891273   3.3683755  77.9637756  54.8409271   3.5857985
  77.3272400  53.5055313   3.9059947  29.3478432  66.1193085  40.6033821
  30.1383381  66.4439392  41.0346184  29.4049282  66.4599533  39.7106667
  12.5248451  54.1593742  58.7409096  12.6141272  53.3491592  59.2427177
  13.0566187  54.0160561  57.9580269  62.7781639  11.0179577  60.4661751
  62.8677902  10.7269926  61.3736649  63.6705322  11.0019026  60.1202621
  42.2485008  49.3390274  42.1430283  42.2854309  50.1841354  42.5909843
  41.3262253  49.2312431  41.9106102  56.0098572  39.3706131  65.7985077
  55.2999306  38.7292786  65.8289566  56.5170403  39.2043839  66.5930939
  73.1060867  67.5828476  52.2637405  72.4021072  66.9927292  52.5328102
  73.5658493  67.7934418  53.0764503  58.2575073  32.7684250   8.6553421
  58.8328209  32.2256012   8.1162786  57.5565376  32.1765900   8.9284906
  39.0924683   3.1215873  27.9815254  39.3949699   2.6736884  27.1915188
  38.9998131   2.4248307  28.6312771  57.8013344  21.3848934  32.2131462
  58.3439789  22.0992451  31.8792648  56.9959755  21.8120995  32.5049019
  67.5745773  60.0073242  62.5711441  67.0270004  60.0020256  61.7860603
  67.9334717  59.1212349  62.6188278   7.2008166  43.8181076  61.7016029
   6.8675871  44.6315765  62.0803680   7.2972345  43.2278099  62.4489174
  81.7497635  58.1758041  85.9831696  81.0805359  57.4941788  85.9219742
  82.0035858  58.1800842  86.9060974  59.0839157   4.4575334  48.8672409
  59.4602737   3.5811534  48.7863350  58.1729813   4.3047495  49.1184120
  31.2383995  55.7471046  28.6723251  31.2815304  56.4687653  28.0449657
  31.2392807  56.1741066  29.5290070  60.7423134  53.2582092  87.2335815
  61.2856979  53.8412094  87.7637482  60.0315666  52.9955482  87.8184586
   4.8379235   0.3900066  77.4437180   4.9705510  -0.0256370  76.5917358
   4.6668267  -0.3379123  78.0412903  32.3190422   2.5109291  43.3389893
  31.8120365   3.0807588  42.7606544  31.7441521   1.7633337  43.5027924
  21.1764221  70.7868652  65.2889557  20.8934860  71.2475281  66.0788651
  20.7984982  69.9115372  65.3738327  84.8137283  45.3443604  75.7343597
  85.2820435  46.1747169  75.6482162  83.8917160  45.5944633  75.7941208
  61.9908638  65.8264923  64.3955383  62.6456070  65.4560013  63.8036880
  61.9159012  66.7421265  64.1267929  33.7084846   4.0584836   5.1153178
  33.9358826   3.1288900   5.1347480  32.9023056   4.1186123   5.6278505
  13.5630350   7.6272826  33.3597832  12.6144428   7.5428605  33.2634621
  13.6907253   7.8584433  34.2798309  33.3771439   7.8914552  88.2167587
  33.3007202   7.6910996  89.1496277  32.5299911   7.6414332  87.8479004
  36.5217857  47.6382523  31.9680157  36.1826019  47.7996101  31.0875893
  35.8603249  47.0835838  32.3815880  66.8938293  57.4610825  65.4286423
  67.8081131  57.7408714  65.3835373  66.4148788  58.1272964  64.9356995
   4.5850215   6.8337002  29.5927830   5.0541658   7.0182681  30.4064598
   5.2091355   6.3367000  29.0639114  39.7240829  16.1274414  87.4060745
  40.4314766  16.5159435  87.9207535  39.0262680  16.7823582  87.4253693
  55.7724075  42.8873749  88.8331604  56.5444412  42.5978203  89.3193207
  55.9921265  43.7714233  88.5391998   0.7387604   4.2428551  26.2111588
   1.1610392   3.4272816  25.9414330   1.3912448   4.6811328  26.7574272
  15.8632202  32.8460846  61.3578339  15.8850155  32.5081978  62.2531509
  16.7591152  33.1385765  61.1903458  16.0382385  43.9403992  44.3398170
  16.5738678  44.6977043  44.1035423  15.5934372  44.2036285  45.1454811
  82.2787552  10.1119318   5.0538049  82.2589569  10.7771244   4.3657942
  82.4274979  10.6057491   5.8601866  74.0046463  17.0198689  67.8430099
  74.8214951  17.4481068  68.0991516  74.1396408  16.0973606  68.0597763
  53.5018196  55.1433525  55.7693901  52.7216835  54.8552971  55.2954254
  54.2317429  54.8975792  55.2010269  67.6226959  12.4624243  82.4489136
  68.4008026  12.8074741  82.0110474  67.4424744  13.0912247  83.1477432
   1.1328299  51.6918373   5.1105466   1.3363248  51.2190323   4.3035302
   0.4441442  52.3076782   4.8601727  83.5202942  44.8384094  88.3390732
  82.6731415  44.6524277  87.9341278  83.4850845  45.7713203  88.5504227
  53.0051651  54.8813553  35.6488953  53.8812256  55.2536049  35.5479965
  52.4138069  55.6240273  35.5265541  71.8372726   3.0302289  29.9543266
  72.4736938   2.9199858  30.6607533  72.3617783   3.0087862  29.1539116
  69.7791901  24.7792072  15.9177895  70.3305435  25.0615788  16.6475220
  68.9666901  24.4866810  16.3307037  44.9346504  42.4498901  70.1141891
  44.6033630  42.9684486  70.8473892  45.8853569  42.4582176  70.2251816
  33.6354065  60.2973404  46.4186172  33.8692093  60.7202072  47.2449036
  34.1789551  60.7349358  45.7634087  49.1844902   5.9206104   8.4591780
  49.6984749   6.6840210   8.1960115  49.8340950   5.2323499   8.6025133
  38.2297745  40.0450630  84.4453278  37.3949432  39.9613800  83.9845886
  38.8384666  39.5086174  83.9374390   7.9017601  13.9825144  22.8297215
   7.0028791  13.7282209  22.6209641   7.8095751  14.7715378  23.3637390
  48.8494797  19.8762112  44.4278030  47.9356918  20.1321411  44.5531921
  48.8275032  18.9199715  44.3910027  13.7316475  68.6693268  11.4804058
  13.4945688  67.9899826  12.1116848  14.5857677  68.9839554  11.7765856
  16.8130646  70.6411209  20.7727127  17.5594482  70.2103577  21.1893501
  16.3552532  69.9365845  20.3141670  77.9208832  57.0928802  40.4185715
  77.5143890  57.8994789  40.7354240  78.1001053  57.2622871  39.4936867
  16.3646431   9.6830416  87.6131363  16.7157478  10.5657721  87.4958954
  17.1355228   9.1156673  87.6052933  85.4364319  27.5362110  54.9669800
  85.7768631  26.8970928  54.3409843  86.0207901  27.4667511  55.7219162
  78.2854080  38.3889847  26.9447975  78.2901917  39.2857208  26.6100216
  77.4053345  38.0658989  26.7516232  39.7058105  14.6890306  85.0586472
  40.3461800  15.2116146  84.5758820  39.6360283  15.1218872  85.9095306
  22.3453922   8.7311440  84.6291046  23.2059345   9.1428747  84.7077103
  21.7271385   9.4198914  84.8732834  13.9292850  39.2725601  72.8466949
  14.1817636  40.1860352  72.7123489  14.4042053  39.0060959  73.6338959
   5.4675145  34.1402855  64.9438629   5.1420751  34.8658905  65.4766083
   6.3430986  33.9642067  65.2882156  21.9180222  28.6237679  16.1983624
  22.3351421  29.4836235  16.1445942  21.7810154  28.3665905  15.2865944
  11.9906187  64.3903351  81.6744385  12.2343969  63.7516098  81.0044861
  12.5076313  65.1678009  81.4635391  53.9541168  46.7288895  35.1305161
  53.1608772  46.5487137  35.6350403  54.2410698  45.8699455  34.8205185
  22.1989536   3.4473579  76.6799622  21.6044559   2.6999037  76.7441177
  22.4407406   3.4823360  75.7544632  51.6834564  41.3570824   2.2820935
  51.2106895  40.8800011   2.9640865  52.0832901  42.0963211   2.7402315
  32.6131439   5.4956722   8.6985798  32.2630539   5.0860395   7.9074602
  33.5605278   5.5085659   8.5624571   7.1286263  39.0190849  45.9672775
   6.4806733  38.4892044  45.5029373   7.1450791  39.8491325  45.4908485
  13.2344675  57.0376816  22.9682541  12.3310337  57.1984138  22.6958523
  13.2548742  57.2903404  23.8912811  46.0390739  41.8742332  34.4952621
  46.9215126  41.5033836  34.4930038  46.0209694  42.4539871  33.7338219
  45.9087105  42.1617966  81.1140289  45.2404213  42.8449898  81.1675873
  46.6570053  42.5907326  80.6989288  55.4131851  69.1383057  63.7844391
  56.2166557  69.0385132  64.2950363  55.5635452  69.9190063  63.2514038
   6.6939917  46.4104843  38.2761345   7.2924914  45.9211807  37.7116776
   6.3337846  45.7525063  38.8707352  56.5058708  31.7056503  19.3329659
  56.5400734  31.0851669  18.6049118  55.9671173  31.2702808  19.9935932
   8.2760973  14.7782307  31.7749748   9.1715622  15.0755548  31.6138134
   8.3696289  14.0719719  32.4142570  16.6938324  13.1795187  64.2224503
  15.9144955  13.1270800  63.6691742  16.5953465  12.4581881  64.8439102
  64.9223938  51.6318321  35.5959778  64.2615356  52.3095474  35.7380905
  64.4422379  50.9106750  35.1890182  23.8433743  55.9950676  40.8478241
  24.4932289  56.5109749  40.3705826  24.2306728  55.1220665  40.9118576
  65.9141312  51.4103546   6.4044294  65.1099854  51.6913033   5.9678025
  65.8176575  51.7185669   7.3055019  15.4988403   2.9336936  28.4822655
  14.6552229   2.6309659  28.8182697  15.8463106   3.4934316  29.1766644
  27.5372162  61.4162216  29.1422844  28.0882092  60.6335373  29.1492767
  28.1570816  62.1455688  29.1491261  53.3384209  71.0499268   3.5556703
  53.3232956  71.1435242   2.6031775  52.4840813  70.6771393   3.7732992
  73.5659409  67.5408173   3.5678480  73.5669632  67.9675140   2.7110150
  73.5122299  68.2622757   4.1946278  73.3622665  15.0064440  71.9111404
  72.5050812  15.1955376  72.2928619  73.9878082  15.3943443  72.5230713
  84.2097549   5.0641670  40.0534782  84.6969452   4.5416660  39.4164009
  83.4159622   4.5566769  40.2225189  85.8338852  31.2150707  16.3855648
  86.6608429  31.2251205  15.9036131  85.1916580  30.8939228  15.7526016
  55.7612190  41.5374565  11.9985676  56.2359962  40.8230667  12.4233828
  56.3811035  41.8909683  11.3605957  73.2005539  16.6497059  60.9787102
  72.5309219  16.1234932  60.5417557  73.5815887  16.0601444  61.6294518
  44.8544006  37.3806572  14.2704182  44.6950531  37.1327744  13.3597069
  43.9809380  37.4540329  14.6550140  51.6143456  69.1541290  85.8606110
  51.8041801  68.2168503  85.8193359  51.6431732  69.4447174  84.9490433
  53.3312187  44.6339645  43.1842422  53.4123268  44.6730499  44.1371994
  54.1626816  44.9788666  42.8587532  58.7144547  13.3158178   3.0770385
  58.6892319  12.6632662   3.7768757  59.3551559  12.9737349   2.4535685
  50.6581383  31.9055805  18.3258934  50.9335213  32.6573181  17.8012180
  49.7342148  31.7857666  18.1062527   5.1142602  52.0389404  15.4842062
   4.8743906  51.2681046  15.9985065   4.3613262  52.1892929  14.9126148
  79.3306732   1.3690339   2.2988884  79.1401062   0.8985437   1.4873736
  78.4735947   1.5092438   2.7013712  54.3026466  39.3457069  60.0526009
  55.0061073  39.7611351  59.5538101  54.4584732  38.4068604  59.9500618
  55.9965935  60.9463158  11.1237030  56.6269226  60.2793427  11.3958473
  55.5565834  60.5643425  10.3642807  23.5125084  63.1776123  28.0000553
  24.2758465  63.7551460  27.9989414  22.9351673  63.5424347  27.3293762
   7.6694050  68.8293610  77.8797913   7.1611919  69.2489700  77.1856155
   7.2326651  69.0936050  78.6895218  36.0448227  26.0915871  72.2250061
  36.3024940  25.5783176  71.4592438  35.5678558  26.8384991  71.8632584
  42.2633591  68.1314240  21.1271114  42.1872940  68.8029938  21.8049278
  43.2028313  67.9587708  21.0653629  55.6157532  70.5809250  87.2332916
  56.2199516  70.4023590  87.9539108  54.7474556  70.4237442  87.6042252
  50.2573471  69.6392288  13.3582554  49.5312157  70.2628555  13.3507357
  49.8848190  68.8423996  13.7357635  52.6242065  58.3109055  17.8346081
  52.5600281  58.6696548  16.9495049  52.0299072  58.8509102  18.3556004
  15.4659014   6.7200031  16.1927567  15.2560463   6.8533020  17.1171074
  15.6081715   7.6022587  15.8498049  13.3469086   6.1633348  68.2977676
  13.2883177   5.5128827  68.9975662  12.9532976   5.7340288  67.5381622
  53.1989784  64.8048782  43.6495972  53.1399536  65.3107224  44.4600716
  54.1302605  64.8144531  43.4285736  15.2392073  57.2501526  13.3213329
  16.0185776  57.7983475  13.2302494  14.5282354  57.8698769  13.4847107
  85.1330338  30.1703568  12.2195492  86.0652924  29.9952621  12.3478813
  84.9350586  29.7963314  11.3609800  83.2047653  13.1322346   4.7695322
  82.7061081  13.9477262   4.7190366  83.0569916  12.7083931   3.9241018
  79.9482956  30.8293743  84.4741135  80.1458817  29.9760475  84.8601456
  80.3331604  30.7910519  83.5985260  75.0520477  33.0791054  31.8042927
  74.1409607  32.8708649  31.5974407  75.1161346  34.0256920  31.6774082
  13.5574589  47.0106888   7.0760288  12.7502384  46.5070343   7.1806974
  13.8566771  47.1722641   7.9707880  34.3919563  67.0255661  60.7507896
  34.5494614  67.6700974  60.0608559  35.0739861  67.1980133  61.3998871
   1.6522522  38.5051727  47.9501076   1.4704242  39.2193260  48.5609741
   2.5997064  38.5383987  47.8179779  77.7971954  31.2925987  48.2339249
  76.8838806  31.4495831  47.9942245  77.8990402  31.7218227  49.0834122
  29.3531933  48.1715927  38.4740028  29.1196022  48.6411018  37.6732368
  29.4658546  47.2630005  38.1947060  45.5979729  10.5841274  42.3471565
  46.5287018  10.3914700  42.4605560  45.4749451  11.4315472  42.7749138
   4.5851450  46.3287544  67.0471039   3.9204369  46.4213066  67.7296143
   4.2229533  46.7970695  66.2949524  28.1797600  33.9785576  25.7639179
  27.2974358  34.3484383  25.7943211  28.7260303  34.6893921  25.4284554
  84.9613876  57.3766136  26.4579811  85.4617310  56.5724144  26.3195724
  84.0621567  57.0786171  26.5951424   3.2733245  35.7237511  23.8730164
   2.5742652  35.8781204  23.2376270   4.0743785  35.9761086  23.4138203
  74.2410049  54.0408287  81.2863464  74.4920731  53.1180305  81.3268127
  73.7943192  54.1308250  80.4445648  79.8905640  48.9189415   7.8577709
  80.6780319  49.4630394   7.8664370  79.9231491  48.4638252   7.0163193
  25.5912399  34.3079376  23.5003242  25.5624199  34.4315605  24.4490700
  26.3347473  34.8375092  23.2122593  38.6730003  39.5051498  10.5393734
  38.9299126  40.0170937  11.3062773  38.2666245  40.1419258   9.9514885
  58.0901833  13.9882383  80.3504791  57.9201889  13.1257744  79.9716797
  58.5643425  14.4610252  79.6664658  50.3586388  14.4094009  63.9800987
  51.1281509  13.9284859  64.2847366  50.1391563  14.0036449  63.1413956
  50.9188690   0.8694834  74.4487610  51.3571320   0.0892482  74.1090698
  51.3163452   1.5957407  73.9683456  66.2432556  25.7266769  55.7334518
  66.0034637  25.2872658  56.5493240  66.9554138  26.3169670  55.9796791
  86.4745560  45.9752731  47.4544907  87.2171936  46.2321663  46.9079285
  86.0975189  45.2184029  47.0059128   0.9860669  51.0761375  21.2061749
   1.1176320  51.7227020  21.8996296   0.8766656  50.2461205  21.6702156
  47.9195251  60.0756950  24.8140087  47.4286270  60.5794106  25.4632530
  47.2528191  59.7506943  24.2089386  23.2793388  11.5414848  17.9057846
  23.3435764  11.1149511  18.7602863  22.8730145  10.8847694  17.3402271
  60.9802780  25.4168377  10.8410139  61.2933693  25.7828732  11.6681929
  60.7815819  24.5026646  11.0435915  18.3231678  68.0687943  78.5970078
  19.1318665  67.5578079  78.5634384  18.5795975  68.8965759  79.0035172
  48.2783966  15.4347610  66.8560410  48.8141212  15.4539146  66.0630341
  47.4226418  15.7585602  66.5748520  63.6577110   3.2728243  13.5820999
  64.1742172   4.0155721  13.8947992  63.1140671   3.0270731  14.3306255
  76.6364822  42.9306374  30.5181274  75.8926620  43.4209251  30.1680050
  77.3808517  43.2126961  29.9865341  84.7683868  17.4329128   5.0065427
  84.4687958  17.9528351   5.7523031  85.0869904  16.6182079   5.3951039
  50.7185745  19.2982788  23.5239391  51.3621330  19.4181633  24.2222900
  50.2762642  20.1445885  23.4579716   0.6698477  19.7009850  36.6288643
   0.1178560  19.1535149  36.0704613   1.4052132  19.1361103  36.8663216
  50.6096916  54.0092316  41.8349152  50.2554169  54.1191559  42.7173195
  49.8454323  53.8143921  41.2925301  75.6248627   6.4307065  54.2660713
  75.9407883   6.7419047  53.4177933  74.7045975   6.2153172  54.1145859
  45.0259094   1.2270528  16.8569584  44.3681717   0.6382731  16.4868870
  44.5555801   2.0469468  17.0079441   6.1963348  49.2824287  25.5045586
   5.3793597  49.7254639  25.2754250   5.9259810  48.5586433  26.0696049
  70.9362869  43.1810150  81.0543518  70.6547623  42.2877655  81.2520447
  70.1241074  43.6865540  81.0223083  55.7940483   0.3830771  27.3903904
  55.0726929  -0.1802790  27.6705818  56.0089035   0.9008206  28.1662846
  26.2185555  48.6607285  44.7125893  26.5910454  48.2042732  43.9581795
  25.3095512  48.3629036  44.7478600  22.5612774  43.7336044  43.1614151
  22.7916374  43.0535622  43.7944336  22.5635090  43.2845917  42.3160667
  61.4022408  50.2749977  12.7257338  61.5081139  50.7455597  13.5525293
  60.4633064  50.0975380  12.6696749  35.0026512   7.9891443   7.3607345
  34.0813026   8.2317896   7.4527826  35.2097359   8.1778402   6.4454522
  65.9561844  25.2347736  10.8033991  66.2166748  26.1376801  10.6213646
  66.4292755  25.0056438  11.6033440  35.3752403   7.4009857  12.4450235
  35.5332565   7.3623614  11.5017471  34.7874298   8.1477880  12.5590229
  73.5191345  42.2364502  67.7777328  73.3627167  42.6007652  68.6489563
  73.3912354  41.2939987  67.8857193  52.9126205   9.8212833  10.9807644
  52.7623978  10.7461958  11.1762180  52.5925560   9.3578691  11.7547398
  42.4876938  66.0875244   9.1031456  42.2377243  66.1390305  10.0256920
  41.6557693  66.0460968   8.6315336  49.6008530  16.7700176   6.3189321
  49.2713470  15.9111328   6.5834608  48.8133278  17.2945786   6.1744628
  54.5483627  65.6973038  22.5498867  53.6496124  65.8931427  22.2850761
  54.5341492  64.7673340  22.7761269  72.0887375  14.4392376  31.1050930
  72.9101257  14.8792782  30.8862095  71.8014603  14.0448532  30.2815838
  41.3283615  71.5873489   8.8503027  40.4503479  71.9641647   8.9080620
  41.2344856  70.8532562   8.2432375  62.3216324  65.0884171  55.5544739
  61.3718033  64.9862976  55.4942741  62.6711617  64.4471359  54.9357452
  16.3425312  68.4022522  60.4352570  15.5806704  68.7805252  59.9962730
  16.9029083  69.1529541  60.6318626  21.6217518   4.8920856  20.1065426
  21.7931080   5.7978864  20.3642120  21.4798946   4.4306874  20.9331131
  33.2222672  27.2700615  76.2317352  33.8034668  26.5958023  75.8798676
  32.8471031  26.8757801  77.0191498  36.9358292  37.7134895   9.2248859
  37.3942299  37.1486397   8.6027565  37.5978470  38.3438034   9.5089064
  60.0388641  55.0872078  34.3708992  59.5905991  54.8872871  35.1926804
  60.0222893  56.0426483  34.3153152  40.4833984  37.3945732  17.3805408
  40.3008003  38.1074677  17.9926434  39.6280441  37.1665726  17.0163784
  29.7470131  40.3879967  12.3544340  29.3952408  41.2011566  11.9921341
  30.4941730  40.1794243  11.7936459  51.5670547   5.1093159  78.1171570
  51.1626740   4.7325702  78.8986740  51.8688164   5.9736519  78.3966141
  51.9770966  32.3212166  73.4657898  52.6018028  31.8039989  73.9741821
  52.1217155  33.2224579  73.7540207  85.8920288  32.7974663  23.2095356
  86.2614594  32.8720589  24.0894127  85.6097794  33.6859016  22.9921627
  24.4561958  58.1553879  62.7254944  24.3554974  57.4995232  62.0356178
  23.8997002  57.8409309  63.4379997  52.2378082  60.2377548  73.4286270
  52.2263603  59.8349762  72.5603714  51.6102638  59.7255249  73.9385681
   8.4080315  14.1067343  67.7429733   8.7216053  14.2161989  68.6407089
   9.1657486  13.7712955  67.2638321  85.7796707  52.8103447  27.0938282
  86.6801605  52.5231552  27.2450542  85.3700333  52.0800133  26.6300964
  32.2742157  36.3747253  12.1502085  32.7398796  36.5002136  12.9770336
  32.3286171  35.4334373  11.9851484  28.5365028  65.8607864  22.9773502
  28.6393452  66.2812119  22.1235943  29.2645988  66.1976700  23.4994793
   3.7698967  69.4124756   4.8502564   4.6654072  69.2889481   4.5355601
   3.5275424  70.2870178   4.5458260  52.3018570  21.7866230  19.2535229
  52.1843262  21.0467129  19.8493023  51.5709076  22.3720493  19.4515743
  59.5625992  18.0288200  52.2643547  59.3397713  18.8846779  51.8981743
  58.7559280  17.5189781  52.1896782  27.8682671  66.6300583  18.4937973
  27.8655910  66.8688431  17.5668640  28.3138599  67.3578796  18.9273376
  79.2709732  39.4208641   1.7628113  78.5535583  39.8206635   2.2544582
  78.8432465  38.7844086   1.1899207  27.9489765  49.7722092  80.5813828
  26.9977989  49.7355804  80.6821365  28.2895889  49.3389130  81.3639832
  54.3731918  25.5290279  68.1711731  54.9073715  26.1740398  68.6346893
  54.1691780  25.9446068  67.3333740   8.0450478  11.7872124  81.2484665
   8.9365978  11.8010540  80.9003525   7.5188122  12.2205820  80.5765305
  61.0852928  29.7166348   4.7971859  61.0368042  30.6452637   5.0241842
  61.2488174  29.2746353   5.6303287   8.1389923  28.8518505  79.9578857
   8.9996834  29.2486439  79.8237305   7.9226213  29.0513554  80.8687210
   2.5758722  20.7467308  82.0439529   2.7259355  20.0439854  82.6763000
   2.9401698  20.4130344  81.2240982  60.1054459  43.3919411  32.1372757
  59.6595497  42.7897034  31.5416965  60.9227142  42.9465408  32.3607216
  82.3320465  56.3657074  14.0352659  83.2709198  56.3647652  14.2216959
  82.2683716  56.0773582  13.1247549  62.8222008   8.7243900   3.8338790
  61.9825859   8.3831539   4.1418371  63.0490150   9.4075613   4.4648023
  15.9446096  68.8750000  52.4248962  15.7588453  69.3614120  53.2280998
  16.8292999  68.5322342  52.5516510   0.3649595  32.5592690  43.5713654
   1.2222462  32.1702461  43.3982925   0.4656453  32.9936485  44.4183655
  20.1954250  37.4777756  24.9042892  20.3277073  38.2054977  25.5118675
  20.5279408  36.7117271  25.3720875  51.1845169  32.9145432  77.6363678
  50.9059639  32.7203445  78.5313110  51.2335968  32.0590363  77.2098312
  29.8364582  34.1784096  14.4129343  29.8095932  35.1320724  14.3352222
  30.4721565  34.0126457  15.1090956  13.5231524  47.1895409  70.4178314
  13.7731886  46.2947960  70.1872940  14.3546648  47.6554298  70.5059586
  17.3649845  61.0389557  29.1419048  17.4301453  61.4261742  28.2689514
  17.6658421  60.1375427  29.0271473  17.9014988  63.6951408  87.9256363
  18.0021496  63.9329681  88.8473434  17.2198658  64.2828217  87.5997009
   0.4491340  41.6950798  36.3274879   0.6819408  41.1715775  37.0942879
   1.2451867  42.1849899  36.1212845  22.6918621  47.9087486  55.8764343
  23.3830471  47.2900887  55.6403236  22.5274792  47.7414894  56.8044624
  45.5051384  58.4373665   5.4641953  44.9737816  57.6446533   5.3900671
  46.3516197  58.1942444   5.0892358  13.6664543  63.6497536  59.5695763
  12.7618141  63.8921471  59.3718300  13.8283710  62.8722801  59.0352058
  10.5920238  36.7007942  20.6608868  10.5931835  37.3873100  19.9938583
  11.4883633  36.6915398  20.9966259  54.2757225  17.2152996  28.8630123
  55.2051849  17.2144680  28.6342430  53.8565750  16.7133179  28.1640396
  16.9964409  -0.0004003  36.7036171  16.6692734   0.5818453  37.3893166
  16.6618652   0.3763189  35.8897514  27.0699902  31.1408062  87.6357193
  27.0485687  30.3589897  88.1875687  26.9109516  30.8134899  86.7503967
  27.6591091   6.3252301  19.4138203  27.4480724   5.7951736  18.6452274
  28.5069027   5.9927201  19.7086372  74.4517059  17.3108978  13.9855547
  75.2203293  17.3683586  13.4179783  74.6461334  16.5857677  14.5793705
  70.4364014   0.4817374  17.5983334  69.9334717  -0.2236099  17.1911716
  69.9869003   0.6491041  18.4266891  41.6403160  51.8275719  68.6427765
  40.6970901  51.9329948  68.7670441  41.7804031  50.8809242  68.6642532
  48.5585556  43.3605728  28.2883263  48.3032532  42.4457169  28.1696510
  48.3609657  43.7752495  27.4485435  75.0589905  16.7065525  83.3295517
  74.8473663  16.5544720  84.2505951  75.9968948  16.8977776  83.3277130
  68.2968063  34.7952385  21.8682671  67.4176025  34.4715347  21.6722088
  68.7460785  34.7951508  21.0230522  86.2207642  46.6619644  66.8385696
  86.4046402  46.4858589  65.9158554  86.5344086  47.5553474  66.9790268
  34.6537247  15.8201399  87.2579575  35.0233803  16.1149139  86.4256744
  34.9799461  14.9262457  87.3617096  24.1817684  47.6668510  23.3571815
  23.6453991  48.4000130  23.6588669  24.6568241  47.3806686  24.1373444
   9.3846064  57.3199577  81.6408463   9.7992764  56.9531403  80.8600006
   9.5385609  56.6665268  82.3231659  26.5291348  17.1093540  17.6491222
  27.0849476  16.7628441  18.3471432  26.1651592  16.3323727  17.2247963
  60.4681396   3.8363152  85.6464844  60.8696747   4.1521239  84.8369980
  61.0060806   3.0878057  85.9045258  60.1530952   9.6213350  32.6764946
  60.3996429   9.7868261  33.5864716  60.4494514  10.3985872  32.2029037
  77.3853455  -0.0830476  62.6325340  76.9750137  -0.2946852  63.4710274
  76.9678192   0.7344076  62.3611145  16.5013390  36.1886177  80.4964294
  15.8405590  36.6968765  80.9668274  16.7338982  36.7348328  79.7455597
  47.6057968  71.3310928  42.8227806  47.8872108  71.6240082  41.9560394
  48.3485374  70.8295288  43.1589394  50.5855751  17.8367214  -0.0710354
  49.8821564  18.4365673  -0.3192670  50.1490250  17.1526966   0.4366700
  10.4002552  50.8076401  60.2339439  11.2131481  51.2414169  59.9745712
   9.8728209  51.5027885  60.6274033   0.3691110  45.3978920  29.2150307
   0.6728339  46.0753365  29.8192272  -0.1939491  45.8634644  28.5966148
   7.6960154  42.2953911  35.4214554   6.9164581  41.9523735  34.9845810
   8.3650885  41.6261024  35.2778435  55.2602196   2.3366435  29.9933586
  54.3400230   2.2882383  30.2524395  55.6176567   3.0569816  30.5125732
   7.7159367  20.4095230   0.1452673   8.3785467  21.0759926  -0.0363888
   7.1838188  20.7856731   0.8464049  83.8333130  50.4300461  27.4335766
  83.1009064  49.8451920  27.2392368  84.0113602  50.2900429  28.3635941
  51.5992126   9.4298067   1.2875278  52.2249413   8.8615866   0.8382815
  51.7463951   9.2597609   2.2179327  45.8645058  46.1049194  43.0226898
  45.4677277  45.6918373  43.7896080  46.8071060  46.0160828  43.1635780
  45.3086319  32.7440109  59.7026291  46.1720428  32.5578003  60.0715179
  45.3051529  32.2898674  58.8600311  55.6975327  54.2610016  87.8649979
  56.1685944  54.9393654  88.3488922  54.9321861  54.0681839  88.4065704
  24.2213383  16.2985401  69.5628052  24.9571190  16.8786755  69.3670959
  24.6212063  15.5392694  69.9868927  74.3311005  49.8357811   1.7316896
  74.1012115  50.7640991   1.7717570  73.6579971  49.3995781   2.2540755
  85.5684891  62.5430412  61.8579140  85.3118515  61.7608070  62.3462601
  84.8071518  62.7467690  61.3146820  36.3026085  48.3395004  60.3366928
  37.1801491  48.1147537  60.0274239  36.4486923  48.7728882  61.1775627
  38.5106964   1.3427688  67.5335846  39.3742294   1.3834465  67.1226273
  38.6298370   1.7662307  68.3837128  68.7747879  67.1300278  61.6206665
  69.2374649  66.8862305  62.4223633  69.3179855  67.8140793  61.2292175
   9.9270020   9.3791399  73.9424210   9.8419065   8.6550951  74.5627060
  10.7822924   9.7622013  74.1372910   0.4290938  64.5261383  39.6578140
   0.7754546  64.5749207  38.7668114  -0.3689822  64.0039749  39.5762978
  84.2321854  19.9047279  20.2034645  84.3489609  20.1623650  21.1179142
  83.8457794  19.0301456  20.2485065  34.4208755  59.2492447   3.4297247
  34.2448997  58.5054016   2.8535614  33.9937248  59.9907341   3.0008144
  49.9103737   8.9622822  86.1079941  50.5676231   8.2765226  86.2262650
  49.4111633   8.9589987  86.9247055  33.3907661  70.4149399  59.7100182
  33.0302277  70.1697998  58.8578758  34.2365990  69.9685822  59.7495918
  75.1031723  66.8892288  84.5646362  74.8445587  66.1632004  83.9969788
  75.2106705  67.6316071  83.9700317  58.6617699  10.8999434  48.7992401
  58.3478355  10.0068607  48.9409409  57.9167557  11.3565321  48.4084549
  58.3624191  26.3871384  81.4810257  57.6657562  26.7290287  80.9206696
  58.8441658  25.7791157  80.9202499  85.5981064  46.9231796  10.9902554
  86.2572021  47.3553009  10.4470282  84.9083405  47.5782852  11.0965271
   3.5425701  40.2555161  43.7342453   3.4921899  39.8668633  42.8609505
   3.7770705  41.1700020  43.5762558  83.5843582   1.5847094  31.0561295
  83.7988510   1.9622021  30.2030602  82.6530685   1.7721046  31.1736431
   2.9687271  66.1535873  34.5596619   3.8542776  66.1659088  34.1965103
   2.3967588  66.2625580  33.7999191  50.1963692  57.9341545  30.4223461
  49.2827072  57.8780060  30.7021599  50.1545601  58.3050690  29.5409241
  72.9463806  24.0247593  70.8276520  72.5757523  23.3955612  70.2088089
  73.1283340  23.5091858  71.6133423  83.7194366  59.0435715  48.4959450
  82.9905319  58.4663048  48.2685661  83.3038635  59.8740158  48.7280998
  64.0812531  65.1789551  52.6112099  64.5763626  64.9734192  53.4042091
  63.6805153  64.3477249  52.3568573  16.7195358  62.4188766  26.2017384
  16.1653919  62.7419548  25.4912624  16.3558102  62.8205643  26.9907761
  21.0087032  57.8464661  86.8795624  20.8804359  58.5242691  86.2159576
  21.4927464  57.1561356  86.4263763  81.4994278  14.0028038  89.1709366
  81.6192169  14.6501894  88.4761124  81.8584061  13.1929779  88.8082428
  49.3247223  54.8203239  54.5086861  50.0863228  54.2405052  54.5079918
  48.8456039  54.5873489  53.7134514  43.1356087   6.0916376  16.7570210
  44.0450439   6.3355818  16.9292164  42.9182739   6.5392604  15.9393225
  64.8123169  56.3871193  43.9858322  65.4644775  57.0404053  43.7325783
  65.3272552  55.6441460  44.3005714  70.3759689  63.2062302  20.4888783
  71.2488098  63.0742645  20.1187973  70.2670517  64.1569214  20.5124836
  22.4524174   5.9978671  50.6702271  22.5637550   5.6335893  51.5483704
  23.1562576   5.6024995  50.1559067   3.0678229  58.4237556  74.9742126
   3.7903183  58.2523956  74.3701706   3.4058938  59.0941505  75.5679398
  56.2697334  39.0798988   2.2410667  56.8763084  39.6924553   2.6570878
  55.6780663  38.8135757   2.9447963  84.5078735  51.9419022  75.4418030
  84.7556381  52.7445679  74.9829178  84.9523315  51.2439690  74.9605789
  48.0656242  19.8946724  70.4152451  48.2629433  20.7925434  70.1485596
  47.2078857  19.7136631  70.0308685  53.9544067  64.4118271   5.7209644
  53.4169235  64.8739548   6.3642254  54.6423988  63.9944153   6.2392931
  23.3620586  63.3487778  62.0760727  22.6347485  63.1028290  61.5044403
  23.6927204  64.1666183  61.7045364  55.7786751  63.7223892  28.0217628
  56.1598167  64.5453033  27.7155342  54.8599319  63.9318695  28.1898575
  63.0149765  43.5561905  24.2715836  62.6328354  44.4336624  24.2560196
  62.4231148  43.0469780  24.8253326   6.2582126   5.0183868  22.7856998
   5.3618741   5.0428777  23.1206760   6.8075738   5.0517287  23.5688496
  84.6221008  44.3987389  37.0874023  84.4469910  43.4846420  36.8638115
  84.4724884  44.4472504  38.0315933  42.8503990   0.2387278  41.8328819
  43.7134476   0.2210833  42.2464867  42.9235649  -0.3724411  41.0998421
  79.6152649   6.0335898  11.9455147  79.1440659   5.2713108  12.2818680
  80.3946457   6.0962114  12.4976673   8.0376806  56.8759537  22.7419548
   7.3191919  56.4280663  22.2954063   8.8284874  56.5393257  22.3206005
  51.9742203  13.0987787   0.3050638  52.7697639  12.7072783  -0.0555853
  51.9392509  12.7818928   1.2076118  10.8449259  25.4801598  22.1305275
  11.4253378  25.0180950  21.5256748   9.9689407  25.1622829  21.9118118
  71.1786804   2.4353483  84.7279205  70.6117096   3.1922166  84.5798492
  70.7144241   1.7047410  84.3193665   6.5331783  50.7082024  45.3426476
   7.4224577  50.4984093  45.6279564   5.9728146  50.1307526  45.8610840
  58.8481178   7.9835291  35.4150352  58.0002518   7.9349556  34.9734573
  59.0179253   8.9212379  35.5050316  10.3226290  56.7465897  41.0559769
  10.3898735  57.1186714  41.9353294  10.9599009  56.0324020  41.0487213
  76.3195648  22.3104553  50.6368790  76.4101486  23.1625977  51.0633507
  76.8534851  22.3807030  49.8455353  25.0186462  38.7723961   5.3115945
  24.8895340  38.3590126   6.1652203  25.3572540  38.0713348   4.7547374
  14.1302271   1.4651006  81.0718765  14.7703905   2.1766500  81.0608978
  14.4927206   0.8262498  81.6856384  34.0088882  30.4693775  23.0765610
  33.4594879  30.8041286  22.3678074  34.5834961  31.2014694  23.3003902
  23.3084240   9.4127035  66.1650238  23.5017681   8.5573092  65.7814255
  24.0645695   9.6025858  66.7203827  61.5918350  26.7777634  27.4713249
  61.2482719  27.3946228  28.1176090  60.8627129  26.1825752  27.2970791
  82.9192352  44.7910614  32.7229156  83.1847534  44.2031364  32.0157547
  83.7160263  44.9228706  33.2367058  55.0473595  44.8538017  10.6122599
  54.6575546  45.6170425  10.1859369  54.9164963  45.0090828  11.5476713
  55.5348396  28.5650139  71.6751404  55.8275719  28.3417854  70.7915573
  54.6034698  28.7624664  71.5761566  34.6762733  38.4332161  10.5271568
  35.4190483  38.2171822   9.9633780  34.9415359  38.1355324  11.3973579
  39.8457451  63.4336548  67.1347961  39.8899002  64.3698883  67.3291016
  40.1993141  63.0098000  67.9168243  72.3592911   2.5934134  77.7368469
  71.6386642   2.8430893  77.1584091  73.0005493   2.1826015  77.1569748
  38.2364159  26.2927380  19.6700249  37.9005165  25.4803848  20.0488205
  39.1262550  26.3677349  20.0146923  81.5615768  35.8785286  30.8791943
  80.8545456  35.3016281  30.5901890  81.3174057  36.7420502  30.5461197
   3.6236506  20.5823612  79.2509613   4.1325350  19.7886791  79.0856171
   3.5594835  21.0081673  78.3960953  73.6608047  10.5061827  65.0829010
  73.6176224  10.6259737  66.0315933  74.5896378  10.6003408  64.8716354
  75.3679199  11.0459509  79.1962357  75.2963562  10.3982658  79.8973846
  74.8121185  10.7035122  78.4961929  56.5682640  57.6186028  70.2779160
  57.3068581  57.3904953  69.7134018  56.1611900  58.3705063  69.8476105
  25.6324539  60.8736153  35.5209732  26.0028381  61.2724724  34.7335968
  24.7326927  61.1985817  35.5535126  65.2459030   4.2872210   3.3139396
  65.4209671   3.4272060   3.6959853  66.0772705   4.7558422   3.3878000
  80.3169632  43.7277260  43.9558601  79.4169540  43.4335480  43.8155708
  80.8145905  43.3236084  43.2450218  38.9732361   8.2898521  46.0978317
  38.0615387   8.5513268  46.2269592  38.9466400   7.3333874  46.0713844
  37.7529335  55.2725143  80.0956268  37.1019402  54.9502411  80.7189941
  37.2517738  55.8101501  79.4824295  58.0318947   5.0871744  77.5189972
  57.7340126   4.8525023  78.3978729  57.2383003   5.3701439  77.0647202
  33.3150787  -0.0652373  78.8443222  33.5678864   0.8382949  79.0339279
  33.8209267  -0.5906068  79.4642715  36.3070602  48.4996910  56.4891891
  35.6299362  48.9439430  56.9994621  35.8428001  47.7950745  56.0372887
  85.1332855  68.1661148  75.2007065  84.8463364  67.7203064  74.4037476
  84.9726181  69.0936737  75.0273666  26.4357090  26.6194553  20.4070206
  26.2433624  27.2680130  19.7298145  26.5772800  25.8046703  19.9250336
  69.8424835  29.2813950  24.6215534  69.2311630  29.4104805  25.3467140
  69.3621521  28.7375069  23.9972935  15.2185755  34.1415367  82.0682297
  15.9199944  34.6645355  81.6800156  14.4345369  34.3919411  81.5795517
  82.1969833  23.6604729  20.9947510  82.3981171  23.9754982  21.8759651
  81.2470322  23.5429192  20.9934273  11.7807055  54.9594231  29.1791706
  11.7800636  54.0237160  29.3808670  11.0609512  55.0710564  28.5581036
  71.8103790  54.9131660  85.9636612  71.9915695  54.0891266  86.4157257
  70.8558273  54.9841652  85.9685135  52.1599312  71.2561798  14.5056019
  51.6386108  70.6406708  13.9902287  51.5145798  71.8327560  14.9146452
  76.6385422  42.0740280  54.7986526  75.8992996  42.5240211  55.2076187
  76.9033051  42.6507607  54.0820503  42.0705910  11.1876898   8.3880167
  42.0932617  10.3710165   7.8892555  42.6155090  11.7916536   7.8835139
  60.8484726  32.7016068  16.4519863  60.0099030  32.2593842  16.3197880
  61.2411308  32.2517967  17.2001343   1.5247937   4.4600668  71.7251434
   1.1958858   4.9383149  70.9640121   1.8538448   3.6359270  71.3663254
  60.2426453   4.0641413  67.2537766  60.4837418   3.3964634  66.6116638
  59.6027184   3.6322482  67.8196335  44.2170334  37.2506981  75.1254425
  44.6737251  36.4161644  75.2313385  44.8902779  37.9134140  75.2796555
  42.2372131  62.9793434  25.5147133  41.4080505  63.4425545  25.3957253
  42.9062386  63.6569366  25.4172268  58.4194260  10.9815855  22.4777699
  57.7908363  10.3572159  22.1154594  58.7027817  10.5853605  23.3017521
  37.2586823  44.5135155  51.2538071  36.9602737  44.1169052  52.0722694
  36.5899010  44.2721977  50.6129227  73.1314926  15.1795359  53.9124260
  72.6402588  14.5930910  53.3370972  73.2066650  14.6988125  54.7367363
   8.6721907  69.4605026  17.9122334   7.9542089  68.8582382  18.1072140
   8.2389517  70.2714920  17.6461086  60.2791977  38.4025040  41.5097122
  60.1615486  37.6206436  40.9701881  59.4985008  38.4315491  42.0627937
  70.7230682   9.2813616  74.6348038  70.5259705   9.6077223  75.5127945
  71.3446503   9.9155464  74.2774887  57.3249626  23.7969246  21.9944859
  57.2127876  24.5813255  22.5314808  58.2705650  23.7310028  21.8613758
  55.3394852  52.9641838  25.8573704  54.5231476  52.7477760  26.3079185
  55.0660820  53.4900017  25.1057072  31.3623924   9.7473269  82.5588303
  30.7505569   9.4373169  83.2265015  30.8817043  10.4312277  82.0925140
  58.7700272  35.5797195  43.0587120  58.1855202  34.8241272  43.1192207
  58.2891998  36.2123528  42.5250320  49.1408005  19.1241951   8.2829962
  48.9516907  19.2495766   7.3530774  48.9326248  18.2045708   8.4478769
  82.8256073  17.2617245  87.8090363  82.8814087  16.7699833  86.9897003
  83.7213898  17.5566254  87.9728622   6.5017500  18.9547768  22.7049770
   6.7355986  19.8421631  22.4327793   7.2670450  18.4257145  22.4799252
  41.2646790  61.0340042  75.6151505  41.5799332  61.4810677  74.8296661
  40.3665123  60.7805786  75.4023056  13.0972719  39.2082100  25.2327919
  13.5238857  38.3921890  25.4942112  12.5139971  38.9550171  24.5173092
   1.9151506  34.7626038   4.5245271   1.2134666  35.3924789   4.3598251
   2.2731528  35.0196266   5.3742361   1.5422235  43.4961929   0.1793934
   1.0077726  43.7809334  -0.5619009   1.1301806  42.6838989   0.4737227
  50.6093788  63.5149460  35.4306564  51.2530594  64.0664444  34.9859619
  50.7349815  63.7026787  36.3608246  74.4883957  59.8462563   9.8284950
  74.4015198  60.5199203   9.1540604  75.0837097  60.2283134  10.4733677
  36.7579269  54.7144508   3.7988017  36.6168747  55.2111282   2.9927938
  36.1020393  55.0543709   4.4074864  19.0880451  11.6453037  52.7861137
  19.6651230  10.9784412  53.1582794  18.6143951  11.1905270  52.0896454
  63.0415459  44.0470352  28.3927040  62.7382545  43.7109070  29.2360687
  62.3490410  43.8081207  27.7765999   5.4941268   1.4036012  33.8456726
   4.8345194   1.9386630  33.4042435   5.0418220   1.0490588  34.6111488
   1.3567808  62.4866829  87.0450363   2.2689571  62.2126465  87.1402740
   0.9199559  61.7320175  86.6501999   9.5101538  48.4591217  10.6467810
   8.9975443  49.0315895  10.0760412   9.0851183  48.5301819  11.5014906
  33.9435387  61.3205185  34.3277092  33.5515518  61.3297729  35.2009163
  33.8500977  62.2199020  34.0136795  50.3267021  51.9786797  18.9295712
  51.1497231  52.4487877  19.0632286  50.3254356  51.7580338  17.9981499
  72.0462570  42.3717232   2.1487014  72.0321503  41.9703636   3.0175755
  71.1355591  42.3405380   1.8556473  86.1560669  20.8352051  88.6699371
  85.7876968  21.5363274  89.2074890  87.0500031  21.1215496  88.4825592
   3.9083478  56.1962013  69.9332809   3.5367479  55.6388474  70.6170273
   3.4934318  55.8933334  69.1256027  17.2883587  45.4244995  52.4440918
  18.0403404  44.8809204  52.2089806  16.6874065  44.8241043  52.8852425
  34.2330589   6.7884727   4.7443886  35.1087799   6.9711447   4.4038439
  34.2264748   5.8429828   4.8935108  20.7506065   8.4532537  66.2559509
  21.6958656   8.5978127  66.2133102  20.3986092   8.9514256  65.5182800
  12.0985212  68.3944626   1.1437858  12.2838106  67.7903519   1.8627819
  12.3148289  67.8996735   0.3534532  80.8167419   1.7523710  25.8096714
  81.6470642   1.3879701  25.5030518  80.4538498   1.0747039  26.3800259
  80.9523315  45.2977600   1.1478263  81.2738953  46.1657257   1.3916935
  80.3893356  45.4551582   0.3898731  52.9054337  27.8011665   6.8125205
  53.2312965  27.1211281   7.4020915  53.6796417  28.0908871   6.3299279
  49.4819756  44.9822159  37.4643478  48.6377411  45.2825813  37.1277809
  49.2579460  44.3077393  38.1055374  17.1408844  63.4073792  58.2573242
  17.5595474  63.6469917  57.4305611  16.6853256  62.5874939  58.0663147
  47.6934242  45.7635460   5.2255092  47.1519508  46.3275642   4.6733098
  48.1438408  45.1860619   4.6091752   6.2087965   0.7380324   0.6955291
   5.8155932   1.5963129   0.8535717   5.5062828   0.2218683   0.3002056
  69.5358810  27.6418419  19.5243168  69.9501724  28.5004368  19.4382381
  68.6259384  27.7879658  19.2656860  69.5502472  57.2216759  74.4560928
  69.9621887  57.4136925  75.2985077  68.6112823  57.2979012  74.6257324
  32.5263367  52.3586884  19.8609467  32.1692467  52.2368622  20.7406502
  33.3230743  52.8720207  19.9948349  82.2312546  23.4476070  41.3406372
  82.6557159  22.6091137  41.1590118  81.3283081  23.2166767  41.5587883
  72.5691605  24.2552872  83.6413574  71.7387238  23.7863674  83.7233505
  73.1673965  23.7864838  84.2232208  58.3864861  19.4546089  83.4605179
  58.9129448  19.9881744  82.8652191  57.8771591  18.8846493  82.8843613
  62.4924393  10.5143700  53.0399284  62.6907387  10.5309534  52.1036415
  63.3489838  10.5371361  53.4666023  86.6345215  45.7235336  24.6576328
  87.2006226  44.9649925  24.8003922  85.8557358  45.3645287  24.2323799
  22.0962543  68.7983932  73.9212799  21.9358978  69.7411118  73.9636307
  21.4816341  68.4803619  73.2599640   0.9663153   1.6727453  59.6973763
   1.4327734   1.4755194  58.8851280   0.0662330   1.3929347  59.5306740
  46.2670860  17.3778534   5.1562791  46.1299171  16.5000572   5.5124941
  45.8855591  17.3426895   4.2791076   4.3929582  12.6661644  51.5545845
   4.4613919  12.1258745  50.7674141   5.0435081  13.3568687  51.4283104
  74.3295212   8.1647768  35.7176704  73.3732452   8.1466331  35.6797256
  74.6018753   7.3571701  35.2819824  56.3794365  36.2640266  78.2747269
  55.9465370  36.9394188  78.7969131  56.4005547  35.4963570  78.8460999
  14.1937113  66.1277008  66.7925491  13.8019810  66.8999710  67.2004547
  14.0349712  66.2450333  65.8559265  69.7105560  30.5033798   5.8025079
  69.8176727  29.5897045   6.0669971  70.4502487  30.6720791   5.2188821
  64.1116409  70.9922256  40.1813507  64.7248077  71.5045242  40.7084274
  64.6394806  70.6600113  39.4552269  77.8110886   9.3729496   0.9954096
  77.9212189   8.4320498   1.1325614  78.6976776   9.6973572   0.8374518
  16.9265862  23.1305180   9.5534582  17.5696278  23.1382828  10.2624502
  17.3425598  22.6205215   8.8584023  64.5210114  18.7999058  56.4237938
  64.2101669  19.6966286  56.2993011  64.6784363  18.7295227  57.3653297
  44.4332123  54.7745171  22.4134674  45.2726898  54.3146591  22.4199944
  44.3480797  55.1302109  23.2980404  59.6929436  66.0420990  46.0199127
  59.1926193  65.3243027  45.6317368  59.5113411  65.9809113  46.9577332
  72.5755463  40.6332588  30.4105282  72.0138626  41.4068375  30.3623257
  73.4372635  40.9453697  30.1343746   3.2244406  29.5792313  87.0805740
   3.5745444  30.2610817  86.5072174   3.7136073  29.6786156  87.8973160
  52.2935677  10.7569733  78.9501495  53.2064133  10.9675837  79.1466064
  52.2483025  10.7564745  77.9940262  73.4398041  69.1385956   5.7977529
  72.8059616  69.2204971   6.5103278  73.9521637  69.9460754   5.8389573
   3.2799840  47.8072701  23.3616467   3.2080870  47.8202209  22.4072380
   2.3791800  47.7036362  23.6683121  20.4225750  10.5128260  15.6969929
  21.2176418  10.2139521  15.2556581  20.1593361   9.7724609  16.2436161
  10.0230970  53.9091492  68.9545135  10.8448696  54.2866287  68.6407776
   9.8592091  54.3510323  69.7876434   6.9288135  40.7625427   2.4750288
   6.4279046  40.9356232   1.6779310   6.7156348  39.8568993   2.6999631
   6.7928853  50.1943207  33.5159416   6.4672089  50.7494507  34.2244606
   6.9264407  50.7952309  32.7829361  85.9265518  60.6505127   4.4437757
  85.0079346  60.4848328   4.6557345  86.1961288  61.3300629   5.0616512
   8.5349054  30.1549644   6.3537111   8.6424618  29.2425537   6.0850692
   8.6628332  30.1420383   7.3022361  29.1600285  15.7167063  18.0447865
  30.0873432  15.5839252  17.8480930  28.7115765  15.5347795  17.2189388
   6.5964670   4.1659756  45.3180885   7.4163446   4.3576927  44.8628120
   6.8632503   3.6753285  46.0954742  43.2910271  27.9553509  15.5490303
  42.7569389  28.5656891  16.0574284  42.7246475  27.6866322  14.8256807
  62.2360878  60.1759911  11.5945139  63.0834885  60.5242081  11.3172226
  61.8296967  59.8630219  10.7863503  74.3620834  16.7179451  86.4845505
  74.8531342  17.4808636  86.7895966  73.5144958  16.7873135  86.9238892
  56.7348289   8.6948166  27.1191292  55.9248543   8.4550943  27.5693569
  57.0465126   7.8756003  26.7344589  59.0539207   6.5635657  66.9743958
  59.8896446   6.1820893  67.2432327  58.4402618   6.3046546  67.6618729
  20.1485157  49.6723824  42.5966415  19.5434341  49.6503029  43.3380089
  19.5820370  49.7179642  41.8264122  69.8357544   6.8728485  73.5869141
  70.2221985   6.1027942  74.0039368  70.1922989   7.6143804  74.0760345
   0.4970341  56.7811165  67.8090286   0.9048089  57.6158066  68.0397720
   0.0231750  56.9623299  66.9973373   0.8007701  22.7553310  46.0847816
   1.3765167  22.9747620  45.3522530   0.4736150  21.8797836  45.8783455
  23.6179695  55.7156448  36.6363297  22.8424091  55.9878769  37.1268692
  23.4349918  54.8113022  36.3815422  68.0767975   2.3406389  15.6451626
  67.7830963   1.5497087  16.0972710  67.8485413   2.1908374  14.7277250
  50.5912933   3.0886779  64.1588516  50.4331932   4.0194345  64.3167343
  50.8962212   3.0479140  63.2524338  62.2252426  58.9565887  82.8675690
  61.4565315  59.4504700  83.1528625  61.9645462  58.0392342  82.9496002
  38.5879784  38.5448875  88.1663208  39.4577065  38.6974945  88.5357971
  38.3756447  39.3587875  87.7094727  79.6271973  57.9679184  58.0451317
  79.1136169  58.1830063  57.2665405  80.5026016  57.7757034  57.7090454
   5.6217837  55.2880783  45.7577744   4.7220745  55.6148071  45.7564545
   6.1235819  55.9663544  45.3056984  49.8176651  30.4501877  70.3371735
  49.6648636  31.3415318  70.0235062  50.2300491  30.0034904  69.5978241
   9.9351940  65.3677521  44.7624626   9.1981144  65.5629883  44.1838226
  10.7089148  65.4745178  44.2091217   0.5000869  16.9349575  23.2934246
   1.4480888  17.0654163  23.3158913   0.1490080  17.6337337  23.8454094
  77.8482590  53.1272354  48.9979935  77.2940216  52.4269638  48.6535034
  78.2761612  53.4960823  48.2252808  13.1296043  55.3593292   4.5909534
  13.2431936  55.4260902   5.5390425  13.4902735  56.1771126   4.2483449
  35.0794411   0.5606714   2.6042023  34.9842796  -0.3528957   2.3348114
  34.9172745   1.0638214   1.8062209  79.2821579  71.7463455  45.3067551
  80.1768646  71.9216614  45.5982780  79.1462326  70.8179092  45.4958611
  70.4072037   2.0244987  74.4811935  70.7521133   1.2854389  74.9822617
  70.5500183   1.7812196  73.5665131  30.7959957  11.1050606  24.1771240
  31.6180668  10.8067379  23.7879772  30.8869591  10.9080954  25.1094131
  29.4168301  11.5026417  17.2527618  29.7924137  10.6513538  17.4774323
  29.0920506  11.8481112  18.0842667  56.2783737  21.9756107  37.9800873
  57.1991730  22.2257080  37.9038391  56.2729988  21.0311985  37.8242455
   9.9351616  13.0175190  65.4734344   9.4915619  12.4865446  64.8119812
  10.7799768  13.2345772  65.0792236  68.6268311  29.9678516  69.7804489
  68.9275513  30.6417065  70.3901367  68.8718033  29.1415310  70.1968765
  26.6876831  64.2035828  62.4423485  26.4472446  65.1300659  62.4493141
  26.1731091  63.8172607  63.1510086  78.9164734  28.9436035  49.3494186
  79.4078217  29.2895966  50.0944672  78.4162140  29.6920128  49.0240631
  56.4841347  47.2912788  79.1963196  56.2517357  46.5076180  79.6944199
  57.1772423  47.7051849  79.7106323  62.8428574  33.5021858  88.7470093
  63.1914444  32.7599373  88.2532578  62.5412140  33.1209106  89.5715485
  63.1557693   6.0597472  88.5755920  63.2810974   5.8199344  87.6574326
  62.5187073   6.7737632  88.5518341  37.1252174  40.2815247  59.8274651
  36.1781235  40.1429405  59.8210831  37.4668236  39.6294250  59.2156639
  74.5011368   7.0489635  69.5391693  74.4617081   6.0931740  69.5053558
  74.6997070   7.3124223  68.6406174  21.2001972  20.1143742  66.5529709
  21.4840717  20.9700241  66.8747025  20.8924026  20.2833767  65.6625061
  23.6188126  20.5121727  11.8662949  24.4782028  20.1602707  12.0983400
  22.9983025  19.9680042  12.3511438  52.5100327   3.4044321  13.2877483
  52.5262871   2.7772515  12.5648298  51.5831413   3.6143718  13.4019032
  85.9749985  67.6223907  47.5398750  85.1651917  67.2563477  47.8954849
  85.7959900  67.7381744  46.6067162  79.8080139  17.5000763  39.0701523
  79.7810974  16.6235676  38.6864357  79.1355743  17.9896564  38.5964737
   4.8325562  26.5121021  31.0614319   4.8099928  26.0426941  30.2275391
   5.7641444  26.6466732  31.2354031   3.7720356  43.8919754  55.1463356
   4.1777582  44.2485619  54.3561020   3.9121766  44.5651970  55.8121910
  29.2757015  15.5483637  86.4210739  29.7019577  15.0358477  87.1080017
  29.9805908  16.0728550  86.0412445  -0.2192987  65.2873993  64.1782837
  -0.0031599  64.8040924  64.9757309   0.5673702  65.2205582  63.6370659
  46.5876656  39.9939880  21.5509682  47.1277428  39.2050705  21.5045261
  46.7940865  40.3756714  22.4041634  66.2594681   6.3351116  36.2026482
  65.9687424   6.5160975  37.0964928  65.5299301   5.8597369  35.8051300
  14.5515661   8.7644005  72.7859421  15.2393208   9.3386955  72.4491730
  14.3860922   8.1460400  72.0742645  75.7104492  37.5806351  87.4730148
  76.5096512  38.0391579  87.7323761  75.3787460  38.0806465  86.7272339
  29.9725494  47.0717812  76.3106537  29.4397297  47.0284653  77.1046677
  30.8685074  47.1815987  76.6291351  83.7770996  35.2231216  40.6941910
  83.7554626  35.7907028  39.9237251  84.6304626  34.7917709  40.6500206
  21.7096386  11.3475466   5.8186951  22.2108994  11.9595528   6.3575993
  20.8428230  11.7470007   5.7459030  21.3085938  55.8971443  78.5910492
  21.6454067  55.4270897  79.3538361  20.8852100  55.2216911  78.0612030
  80.4646454  60.4691429  48.4166183  80.3901367  59.7434349  49.0363197
  79.5595398  60.6932755  48.2003136  15.1383057  13.3535929  60.4433556
  14.9597569  12.6812153  59.7858887  15.5994453  14.0414696  59.9633484
   0.8727856  27.8067741  23.8288746   1.6932073  27.3250160  23.7237625
   1.1204112  28.6011028  24.3021145  23.3916397  60.1053886  43.9353714
  23.2479153  59.2026138  44.2192154  22.7533646  60.6171837  44.4322662
   7.6306791  13.1937370  57.1249504   7.3155885  14.0238647  56.7674065
   6.8576345  12.7971487  57.5266342   0.8379395  35.1499596   7.6730223
  -0.0517963  35.2434006   8.0134201   1.3354542  35.8410225   8.1102238
  78.7038651   4.5149250  86.6585083  78.6912537   5.0854683  85.8900375
  77.7818909   4.4078827  86.8924942  77.6430054   3.5851557  29.3754425
  77.8592224   3.4970253  30.3037300  78.2510529   4.2488580  29.0498562
  43.2498970   1.3033895  53.9557228  43.8187523   1.7026411  53.2975197
  43.8184776   1.1690468  54.7139473  56.7868385   1.3420660  33.1457672
  56.4775772   2.1839662  33.4801254  57.5752869   1.5572624  32.6474991
  55.3721046  16.0707874   4.4699416  54.5182114  15.6511030   4.3652153
  55.3225288  16.5054722   5.3213077  24.2070255  15.3142300  17.3335304
  24.2799091  15.1361332  18.2711887  23.3463593  14.9726381  17.0910454
  75.9084473   6.2523007  13.0932846  75.2688293   6.8718419  13.4444170
  75.5436096   5.9834380  12.2501717  69.8461533  30.5981636  33.9048691
  70.2127533  30.4396973  33.0349693  70.5338593  31.0728111  34.3717728
  53.5148926  46.2809982  20.8457375  53.3666878  45.9362068  19.9651794
  52.6434212  46.5258331  21.1569061  49.1730461  58.8639679  48.3201904
  49.7687874  59.2302399  48.9737701  49.6712914  58.1558418  47.9120979
  78.3507767  66.8124161  23.8456745  78.8988876  67.0400238  23.0946732
  77.5096588  67.2316895  23.6641350   6.5591207  29.9034042  64.1866150
   6.9389868  29.0835114  64.5023804   5.9804516  30.1874390  64.8942184
  67.8044205  65.3676682   4.5204744  67.6978073  65.0620880   5.4212999
  67.0761261  65.9739609   4.3854480  63.1230125  42.0195236  52.1858864
  63.6313133  42.4243660  52.8887138  63.4321594  41.1140594  52.1576729
  18.3818035  50.4863472  25.4094257  18.1215782  51.1715698  26.0250435
  17.6022301  50.3361130  24.8747063   4.6694589  65.9311752  61.2250328
   5.4613333  65.3967896  61.2849655   4.9674025  66.7595367  60.8491478
  22.4303341  65.2367554   6.8305783  22.3818531  64.2809143   6.8148398
  23.1762047  65.4480209   6.2690840  43.5451508  42.4098930  25.3711605
  43.3640251  41.4705315  25.4031448  43.7926445  42.6367531  26.2675514
  84.2985229   3.8041003  24.8028393  84.7314453   3.3551207  24.0767345
  84.7185287   4.6635289  24.8375797   9.8411112  45.2631912   6.7316594
   9.1408062  45.4592323   6.1092663  10.1889915  46.1200981   6.9784904
   3.1297336  41.7287750  85.4652405   3.3493612  41.4898109  86.3657379
   2.2671657  42.1387024  85.5298080  22.7205906  26.4311466  74.2938843
  21.7725563  26.4864616  74.4138947  23.0857449  26.8097401  75.0936050
  14.7855225  19.0840092  14.4309864  13.8845167  18.7659931  14.3736629
  14.8445530  19.4810371  15.2999601  55.1111488  27.9820137  22.1000195
  54.3249664  28.1614838  22.6157131  54.8376846  28.1147346  21.1923656
   6.3470745  44.6477470  10.8356075   7.0387745  45.0409660  10.3034782
   6.0125546  45.3709335  11.3660116   2.8247578  18.3519955  88.2357788
   3.6052442  18.4167690  88.7861176   2.4558077  19.2352295  88.2384796
  35.2709389  55.8873367   8.9138870  34.7454224  55.9350052   9.7125063
  36.1313515  56.2168999   9.1733246  78.0168533   6.8613734  31.9436913
  78.4990311   7.5864530  31.5462055  77.0980911   7.0530968  31.7556782
  57.5991936  48.3110085  14.2194729  56.8968124  47.7041893  14.4532804
  57.8569260  48.7105827  15.0502224  43.5007629  12.6858463  80.9883423
  43.7252007  11.7590351  81.0712891  43.3163681  12.9687138  81.8840103
  18.9723740  37.9459648  11.8080845  19.4182568  38.6332169  12.3031673
  18.7035332  38.3728142  10.9946003  48.5031395   2.6982784  37.5367355
  48.4013176   3.6455526  37.4443436  48.8335915   2.5786157  38.4270821
  59.8863144  19.9461441  38.1690063  60.8416557  19.9416733  38.2284088
  59.6930008  19.4392719  37.3803711  79.5034485  63.3423691   7.3544650
  79.0490570  63.4446869   8.1906996  78.9782333  63.8467636   6.7332006
  84.5466614  49.9474220  17.9458275  84.1573410  50.7444000  17.5859890
  84.2870331  49.9489059  18.8671436  23.8043938  39.1729279  70.7518082
  23.4322567  39.1329765  71.6327972  23.0682755  38.9781075  70.1717987
  35.3337479  46.0476112  26.6647148  34.5112305  45.6857681  26.9945107
  35.4061699  45.7047310  25.7739735  13.1106958  16.1315403  73.6442490
  13.3628511  16.1294460  72.7208633  13.3599148  17.0006180  73.9586182
  81.3598785  41.7950745  66.5456467  80.5173492  41.8578796  66.0957184
  81.6213455  42.7040939  66.6924591  42.6602211   7.9842515  81.0334244
  42.3156509   7.7372274  81.8916092  41.8853073   8.0580301  80.4763794
  64.1286240  15.6645060  41.5889587  63.7339592  16.4372921  41.9930344
  64.3230896  15.0828753  42.3238869  70.1664581  61.4259109  22.8818302
  69.6870956  60.6392097  22.6219330  70.0637207  62.0243835  22.1418934
  64.3087311  44.5897141  56.5998611  64.8428802  45.3640785  56.4230156
  64.1471024  44.6204872  57.5428162  12.9995022   2.2662108  86.5315857
  13.0343456   2.9982173  87.1473694  13.6714487   1.6595174  86.8424606
  38.3656349  26.8703632  76.4557495  38.0191498  26.1314774  76.9559784
  38.3892632  26.5573673  75.5514755  65.8664169  32.0202332  20.6449604
  65.2739334  31.4421368  21.1255798  66.6695480  32.0266342  21.1657085
  77.8297501  51.0530891  11.1844606  78.0635834  50.1552925  11.4200773
  77.4633331  50.9816971  10.3030577  36.7781525  23.3566914  74.3344803
  37.0406609  23.1141319  73.4465103  36.2014236  22.6465683  74.6161499
  65.9741669  68.3062210  25.5760326  65.8650208  67.5204620  25.0404015
  65.6112671  68.0670395  26.4288692   8.0343618  71.6785126  22.0099068
   8.5467234  71.7168350  22.8175278   8.5407591  71.1078644  21.4318485
  53.8152847  36.8498764  81.9675903  52.8697929  36.8730698  82.1150360
  54.1713181  36.4464684  82.7592621  53.5863800  55.9648705  58.3950462
  53.9098854  56.8616486  58.3092117  53.5922279  55.6215897  57.5015373
  72.3922195  49.2435265  50.2163429  72.8320770  48.5821533  49.6821671
  72.9283600  50.0297928  50.1135025  41.9013405  44.1550674  72.0928192
  41.5335464  45.0135918  71.8832932  42.8330917  44.3219070  72.2350616
  52.2208061  68.8885651  42.8707695  52.7936668  69.3331528  42.2459412
  52.8086967  68.5914536  43.5652771   0.2281393  14.0100203  22.6903038
  -0.1162300  14.7185688  23.2339954   0.7898632  14.4493895  22.0518265
  33.7827301  36.4974022  69.3334122  32.9592018  36.9452667  69.5269318
  34.0724716  36.1532211  70.1782913  77.5202484  18.7470818  50.7796478
  78.0481567  18.6936455  49.9829750  77.0427551  17.9179230  50.8066292
  76.9035645  51.2985306  42.8958473  77.2448730  51.8323135  42.1783409
  76.9643555  51.8645477  43.6653709  28.0559483  24.0200253  83.6323547
  28.1960754  24.7033100  84.2878799  28.2055550  24.4577675  82.7943573
  74.8656464  15.5407209  11.1426334  74.5157471  15.0036354  11.8535080
  74.1242676  15.6667204  10.5504150  78.3911972  62.2130585  47.2153435
  78.0171509  62.8888168  46.6499443  78.1174927  62.4611320  48.0983963
  17.7224178  48.4535408   9.6749229  18.5378380  48.7246742   9.2532511
  17.9810867  47.7432327  10.2621031  35.4021034  38.0275307  67.7011032
  36.2154732  37.6856575  68.0722885  34.7105217  37.5485992  68.1577988
  22.9276943  35.8229523  12.1455889  23.3260212  35.4824829  11.3445597
  23.2163162  35.2206917  12.8313065  14.7539330  68.9173126  86.9029007
  15.2347345  68.3266144  86.3231277  15.2825956  68.9533386  87.7000504
   0.0253200  57.4780312   2.9015081   0.2260699  57.4964180   3.8372395
   0.1901192  58.3726273   2.6035674  21.0624981  49.9042320  72.5170746
  21.4279594  50.7841530  72.4253540  20.1255627  50.0468292  72.6514206
  11.4676399   1.5603944  19.5203323  11.3147945   1.8304143  18.6148167
  12.4195242   1.4892212  19.5916195  74.3374710  18.5735455  18.4338284
  74.8998642  18.0375576  18.9929905  74.7963409  18.6070919  17.5944557
  75.1061401  40.0940437  10.1229610  74.9599380  40.7508545   9.4421816
  75.1531677  40.5977211  10.9355669  72.1714554  29.4290695  85.2832413
  71.5424957  29.6639652  84.6009903  71.8904648  29.9281635  86.0501633
  58.0050354  60.5790062   7.8352442  58.3906174  61.2693405   8.3746843
  57.0606880  60.6835251   7.9514985  11.8930407  22.9654446   3.9373400
  11.2950506  22.2817764   4.2393956  12.0943670  23.4722519   4.7240081
   8.5864315  13.1474514  76.2184982   8.6206093  13.9945898  76.6628189
   9.4083834  13.0997248  75.7302933  29.7086754   6.7859750  50.7387543
  29.3611012   6.2019663  51.4128151  30.6591110   6.7174587  50.8293571
  42.4968643  39.7070961  22.7174931  42.4361267  39.5801697  23.6642933
  43.1734352  40.3753510  22.6083393  56.3271103  68.8834686  85.0691452
  56.7905388  69.4932556  84.4950104  56.0467072  69.4192200  85.8111496
  26.0356865  64.4925613  79.1154327  25.9673576  63.5741844  78.8543854
  25.2074661  64.6780167  79.5580292   7.4342980  32.0674667  14.4376192
   7.4567637  31.5992432  15.2721796   6.9619346  32.8774490  14.6300621
  69.9414978  10.9550638   4.2280273  70.6707993  10.5265446   3.7800055
  70.0771255  10.7530146   5.1537771  76.4136658  39.8845863  36.0342636
  75.7086639  39.8482399  36.6806984  76.3284912  40.7505493  35.6354065
  58.8644180  19.6350193  72.0203476  58.5725365  18.8196030  72.4279404
  59.1405411  20.1841316  72.7541504  76.8974075  52.7944603  27.8384495
  77.7561874  53.1796036  28.0127831  77.0493469  52.1887779  27.1129875
  78.2586136   0.4733482  11.1876383  77.7394562  -0.1429407  10.6710205
  77.7217865   0.6499465  11.9602079  68.2293320  26.4066696  37.9515152
  68.7830429  27.0772114  37.5514984  68.6120148  26.2653332  38.8174324
  66.0842819   4.5972672  53.3629456  66.1916962   4.3925357  52.4340897
  66.9766769   4.7244973  53.6849251   8.8501568  33.1283226  63.3882866
   9.0913858  32.3291740  63.8566933   8.8809490  33.8149681  64.0544739
  46.8779564   8.7801409  11.1076698  47.6700745   9.0840054  11.5508890
  47.0667725   7.8706746  10.8764715   5.0087347   4.8765507   4.5042710
   5.3817420   4.1482329   5.0009108   5.6051674   5.6074257   4.6665111
  82.6600800  46.8473358  61.7291260  83.4346313  46.7134972  62.2753754
  81.9250870  46.6040497  62.2920036  58.7772903  17.4145851  46.0803452
  58.4265213  18.1053200  45.5181351  59.5559273  17.1027126  45.6191635
  77.9960785  41.8168907  47.9114876  77.6448746  41.3387299  47.1603241
  78.2171783  42.6807251  47.5634384  50.0647469   1.0664575  33.0105515
  49.5769806   1.8355087  32.7157974  49.8952370   1.0214919  33.9515495
  54.4663696  13.1311245  35.3022156  55.2026176  13.0155497  34.7015381
  53.7971573  13.5720558  34.7788010  47.5291939  60.6655388  50.7617989
  47.7162781  59.7426605  50.9336510  46.8606949  60.6508980  50.0768738
  48.4197960  67.8160477   7.1141210  48.0309906  67.8097153   6.2394662
  48.3672295  66.9060135   7.4061942  56.5081291   5.8334579   5.4209485
  56.2966995   4.9180393   5.6040859  57.4593277   5.8428841   5.3143535
  27.9432278  23.0755272   5.7330494  27.6574078  23.9884701   5.7002416
  28.3703213  22.9277935   4.8892493  86.8169708  29.4981174   5.2048154
  86.1319885  29.0962906   4.6704283  86.3513260  30.1224747   5.7612185
  57.4595032  10.8622255  80.1783524  57.3234711  10.7732630  81.1216507
  57.9975624  10.1067781  79.9416656  81.5714569  69.3252945  73.6500854
  81.8905945  68.9218521  72.8428574  82.1049423  70.1136017  73.7510300
  80.1530304  11.8544722  69.6471863  79.7538300  11.9510870  70.5117874
  80.8121185  11.1700258  69.7628174  15.6616154   6.7484732  26.6495533
  14.9129925   6.4729490  26.1205120  15.2882452   6.9455242  27.5086193
  34.7930183  56.7235336  75.6959991  35.5538254  57.0511131  75.2163162
  34.3235703  57.5121460  75.9679260  50.8226738  56.9318161  65.5929794
  50.5098877  56.0835304  65.9073257  50.7403831  57.5126953  66.3493118
  79.6474609  38.2400665   9.4181576  78.7484589  38.0786972   9.7044868
  79.8103027  37.5720253   8.7522478  42.9092598  45.6237793  55.4066010
  43.1158295  46.2548103  56.0960655  42.0038376  45.8199196  55.1658325
  76.6846924  70.2300034  43.2796364  76.0513458  70.8749313  43.5945702
  77.5090637  70.7128830  43.2206726  77.0035934   2.5389206  62.5172462
  77.5349503   3.2879584  62.2473755  76.4426956   2.8814707  63.2131577
  80.2424393  66.3091202  35.7173767  80.3753510  65.3686447  35.8359833
  81.0626221  66.6205215  35.3345337  32.2589035  17.0130367  87.7118683
  33.1857643  16.7958736  87.6118469  31.8849621  16.2611523  88.1712875
  61.1005516  49.3629875  24.2330437  60.3279800  49.8222084  23.9036808
  60.9935684  48.4629745  23.9252148  32.2052536  38.7227325  14.1894503
  31.9647751  39.4635239  14.7458954  31.8810596  38.9605141  13.3207779
  80.0419540  36.0523224   6.2541199  80.3187790  35.1422958   6.1471090
  79.1324615  35.9931946   6.5466094  60.0641060  50.9808655  39.3854179
  60.9490814  50.6661491  39.5698318  60.0472336  51.8697433  39.7401619
  80.0715103  53.7874832  60.8372917  80.5260620  54.6273918  60.9018173
  79.1656647  54.0204010  60.6337662  69.3199615  61.3021240  50.6756248
  69.6471939  62.1917801  50.8085213  70.0881805  60.8034210  50.3974571
  86.3154678  28.8354168   8.7020760  85.8072739  29.6093197   8.9450750
  85.7506409  28.0968590   8.9295311  55.5393944  46.9684639  51.3813896
  55.8187141  46.3177376  52.0254097  55.2359848  47.7095375  51.9057808
  12.8273382  66.1915512  71.9831619  13.4058704  66.3996277  71.2495117
  12.9235630  65.2468414  72.1035919  70.1927032  55.3643265  35.5102158
  71.0247421  55.0683975  35.1409225  70.3781433  56.2412720  35.8460960
  58.2421265  66.2360077  77.7108002  58.4532394  65.4018326  78.1300964
  57.4901047  66.5672607  78.2016830  40.6925201  60.5328369  72.1825943
  41.0207481  60.1028900  72.9723053  41.4418983  61.0266075  71.8496399
   0.3386215  24.3025665  64.9015198   0.2077697  24.0380116  63.9909592
   1.0440927  23.7372837  65.2161560   4.4234018  15.5125217  47.3350296
   3.5790081  15.7389946  46.9452324   4.6281581  16.2509403  47.9086571
  51.4162216  41.4888649  10.3327856  51.4929848  42.4097099  10.0830183
  52.2923622  41.2486343  10.6342745  84.3255997   4.4902644  57.5553398
  83.6777420   3.8467119  57.8423157  84.1404266   5.2677841  58.0820351
  30.8373661  70.4737167  33.0927658  30.9574680  70.0995941  32.2199326
  31.7241955  70.6763306  33.3906097  10.0118189  15.5101175  24.6695881
  10.8247156  15.6413507  25.1576538   9.4432096  15.0341568  25.2748775
  27.6345921  48.2591438  10.3854084  28.3767433  47.6647835  10.2750492
  27.8458424  49.0113297   9.8324003  77.1325531  60.2147331  28.9316101
  77.5898285  60.1540489  29.7703304  76.8449173  61.1262932  28.8810425
  67.0311432   2.0265348  57.4897385  66.9366379   2.8110683  58.0299301
  67.2365799   1.3298206  58.1131287  29.1301041  31.4796677  21.0047340
  29.2634048  30.5619392  20.7675877  29.0823421  31.4755058  21.9607334
  30.4008408  39.4587975  80.3486938  31.0754681  39.5701218  81.0185547
  30.4600239  40.2512894  79.8151321  54.9925537  65.6679306  75.0399246
  54.9711189  64.7921753  75.4257050  55.4173965  66.2115784  75.7033844
  25.2402859  37.1346359   3.3803751  24.4084148  36.7613182   3.0890779
  25.6583595  37.4441376   2.5768480  77.2634506  51.7976494  86.9615479
  76.6907501  52.1660576  87.6342468  78.0584259  52.3288956  87.0065994
  27.7700748  35.5711746  22.2817116  28.3163643  35.2255592  21.5757732
  27.2555408  36.2646904  21.8687649  64.1630020  52.0789833  84.0055084
  63.4707184  51.8847580  84.6373672  64.4558258  52.9610214  84.2346268
  65.4752731  11.8656702  41.7477264  65.3402328  11.0202475  42.1758118
  64.6798782  12.0034342  41.2333374  46.4483261  19.3673134  80.1400070
  46.1236191  19.0283394  79.3058014  46.2242737  18.6893730  80.7775269
  85.2867508  18.1646252   2.5354772  84.6337967  17.5685215   2.1686862
  85.1715851  18.0923672   3.4829724  62.3149490  59.9080391  25.3365021
  62.7005119  60.6368752  24.8503265  62.5559235  60.0739517  26.2478924
  44.7280693  40.9303398  84.9104614  43.8474617  40.6265755  85.1306534
  45.2081490  40.8930168  85.7377243  67.1127548  47.8790932  47.2459335
  67.1432495  48.2595215  48.1237564  67.6753922  47.1065979  47.3000031
  31.1268997  28.6316662   9.8942795  31.7862206  28.7520237  10.5776844
  30.7883968  29.5118809   9.7303658   0.3473691   2.2996287  18.6633816
   1.2168709   2.2582586  18.2652779   0.3131413   3.1632416  19.0747623
   2.2336562   9.7109327  55.4897575   1.9501921   9.0189838  54.8921890
   1.7321889  10.4804325  55.2202568  10.1383934  69.4854584  74.6830215
  10.2452803  69.2175446  73.7703171  10.8876781  70.0558929  74.8545151
  74.9420319  29.6132393  76.4512100  74.0583801  29.2490330  76.5035706
  75.4047318  29.0331783  75.8464966  67.4281158  31.6219025  61.4434547
  67.6004028  31.5883789  60.5024834  66.4989777  31.4066544  61.5246506
  20.2621689  17.3798714  16.7195816  19.8947926  18.0390816  16.1307602
  21.1132126  17.7352543  16.9758224  77.9276505   4.3983250   7.7072206
  78.3966827   3.5886617   7.9089127  78.0930939   4.5453386   6.7759595
  40.9766579  69.4323807   1.8393594  40.0903015  69.3296356   2.1858332
  41.1260300  70.3778534   1.8401644  46.0765724  32.4978485  71.3583679
  45.6482430  32.3274460  72.1972504  45.4142570  32.2797813  70.7026062
  67.3999481   1.8377539  64.7620316  67.1609573   2.2562518  65.5890579
  68.3108444   1.5699506  64.8835602  17.6584835  65.6117706  79.2269440
  17.9391136  66.4992523  79.0036545  17.3591385  65.2394104  78.3975067
  72.7229919  18.2440968  42.0836220  72.0978546  18.9127560  42.3634949
  72.6227188  17.5395432  42.7237625   8.2321243  58.3084106  11.5252562
   7.9885607  57.6474075  10.8771935   8.3548908  57.8149338  12.3362074
  58.6153336  36.0236092  32.9467850  58.2732353  36.8040848  32.5108261
  59.0812988  35.5494270  32.2581177  29.5033131  33.8186455  67.5926971
  30.2418308  34.4074593  67.4373779  28.8606491  34.3571510  68.0544586
  56.0520973  47.9073715  20.9164124  55.3080750  47.3529320  21.1514893
  56.6333694  47.8627243  21.6755962  30.6206474  52.0501366  43.8338051
  29.7710629  51.6287003  43.9635315  30.8017540  51.9416428  42.9001770
   2.0250485  26.6518402  28.5578842   1.7298092  26.2492371  29.3745708
   1.5832247  27.5006866  28.5358982  27.6921139  44.2799492  73.3377991
  28.4131546  44.1239624  73.9477158  27.3969326  43.4046211  73.0869980
   3.2877638   7.6726031  57.6745720   3.2447140   8.4214897  57.0799713
   3.2267947   8.0572205  58.5489769   9.0836134  42.9664879  49.3880920
   9.0983362  42.9220161  50.3441467   8.4320116  43.6389809  49.1896095
   9.4635801  44.8150215   2.5309451   9.6910362  44.0273705   3.0250149
   9.8343086  44.6673851   1.6608896  82.8490143  34.7502098   6.1224699
  82.7184525  34.7990150   5.1754723  82.6462479  35.6309013   6.4379044
  48.3547401  12.1311588  22.8708267  48.2901306  11.2071772  22.6293392
  49.0574989  12.1604605  23.5200596  82.5125885  44.3262901  77.5447922
  82.6703033  43.4820442  77.1221695  82.0702362  44.8497353  76.8765411
  83.3958893  29.6334553  83.4836502  82.5808258  29.4646873  83.0109711
  83.9457169  28.8737717  83.2918167  47.0430069  69.2176056  65.3547821
  46.8252335  68.4446030  65.8756256  47.1324539  69.9217148  65.9970169
   4.2267957  43.2679596  63.7151299   3.5915439  43.4666290  64.4030380
   4.7995472  42.6057587  64.1020203  79.6875610  23.8333187  26.9346542
  78.8601379  24.2417259  26.6800823  79.4865952  23.3725624  27.7492390
  71.7197876   7.9546227  32.4993172  72.0044785   8.3124437  31.6583939
  71.9717484   7.0318327  32.4645882  74.5088043   0.7012067  34.7711563
  73.6048126   0.9701437  34.6077652  74.4782181  -0.2555015  34.7688293
  29.9096146  16.3318691   6.8718762  29.5071926  16.8154011   7.5933223
  29.7596397  15.4113808   7.0873780  66.0581512  20.0721092  28.2328854
  65.9285431  19.7871265  29.1374397  66.9413528  19.7759666  28.0126839
  14.8303051  60.9791107  68.0807419  14.4153566  61.8011131  68.3422012
  15.5229511  60.8441467  68.7274704  55.3195801  59.9503288  60.9238358
  55.1745300  59.4618416  61.7341232  54.8420792  60.7703094  61.0497513
  75.3110657  36.2998161   8.7650480  74.8873978  35.4717293   8.9909039
  75.7809219  36.1145134   7.9519515  80.7820282  52.7231750  79.1589279
  81.3577347  53.4670830  79.3360977  81.1774216  52.2890282  78.4030075
  15.6208620  54.5803871  51.1667137  15.8819790  53.6609383  51.1151581
  14.8962460  54.6587410  50.5462112  67.5641022  14.5877333  48.0553856
  66.8028259  14.3530369  48.5860519  67.3399200  14.2947035  47.1721497
  26.5790844  65.8213959  54.9523811  26.5413666  66.1619034  55.8461723
  25.7207661  66.0263748  54.5815620  60.4377785  18.1484051  63.9538422
  59.9135475  18.0393658  64.7472687  59.8202934  18.0033455  63.2369728
  27.1035423   1.9457849  17.5261707  26.2190151   1.6462127  17.7361736
  27.6530018   1.5714669  18.2148018  25.4522305  62.6683311   9.0264091
  24.7826729  62.2110023   9.5351114  26.1375904  62.8735771   9.6623240
  66.8165512  46.6192780  18.4129658  66.3842773  46.5026016  19.2589912
  66.1367645  46.4246292  17.7678032  29.3822231  65.3619614  57.4251366
  29.8311501  65.9879608  56.8569641  29.2877083  64.5756149  56.8875885
  51.3570213  54.5079231  46.8790512  51.5113068  54.1460915  47.7516975
  52.0446358  54.1234665  46.3353500  16.1178875   5.2561255  78.8244629
  16.5701275   5.9951029  79.2314301  16.6641960   5.0253272  78.0731277
  75.0724411   3.1108170  82.0190811  74.2857361   2.5670683  82.0599365
  75.3740616   3.1641946  82.9259415  61.9138412  46.0868797   4.5570545
  62.7086525  46.2277603   5.0715075  62.0575752  45.2479782   4.1190834
  15.1384659  56.9134026  86.8150177  16.0053730  57.2661018  87.0157776
  15.2132578  55.9764709  86.9961166  67.3931580  10.4361649   3.6748440
  68.3241425  10.6554146   3.6370788  67.3598099   9.6172962   4.1693883
  78.9002991  53.1394310  21.2229805  79.5792923  52.4668007  21.2755451
  79.1737900  53.6995888  20.4965801  38.3514442  35.2073097  23.7650146
  37.4918137  34.8320351  23.9558945  38.9415131  34.7836266  24.3883457
  46.8211899  32.1972122   0.6234857  47.4475708  32.8771286   0.3753026
  47.2542686  31.3759975   0.3905059  58.4107132  58.8192101  77.1903610
  57.5438232  59.0513954  76.8574600  58.3510895  58.9632759  78.1347733
  18.7482319  10.0001421  59.2544250  19.4538898   9.4341173  58.9415436
  19.0322437  10.8853264  59.0263481  35.0943184  45.6710472   8.1275053
  34.7703056  45.0330086   8.7632370  35.7852287  45.2077217   7.6540060
  36.4941063   8.8606329  85.1011047  36.3618813   8.5871353  86.0088196
  35.6093636   8.9739237  84.7537918  83.5322189  54.4540863  28.1589737
  84.2323532  54.1277084  27.5937080  83.1124573  55.1446152  27.6459408
  71.3492203  48.6846657  12.8725929  71.8303223  49.1329384  13.5681696
  70.8987350  47.9666634  13.3173027  54.3976707  42.5884476  13.8761768
  53.6914024  41.9475822  13.9581003  54.8939629  42.3012619  13.1097240
  30.4426384  54.6335258  38.8968430  30.2965984  55.0477829  39.7473106
  30.1031075  53.7447548  39.0018845  46.8804169  11.4601212  69.5629501
  45.9721222  11.6323204  69.3147888  47.3940697  11.7536840  68.8104782
  58.5763435   6.8959804   2.1716044  59.0479736   7.2420354   2.9292595
  57.6762238   7.1989241   2.2909565  79.6173172  21.7247486  49.8162155
  79.3598938  21.0038700  49.2415009  80.5652237  21.7945900  49.7029419
  75.5849762  41.1345367  70.4717865  75.2039261  40.3331451  70.8306732
  76.0914383  40.8406868  69.7145615  10.9315605  44.8768044  37.4357147
  11.7117949  44.9015617  37.9896584  10.5554876  45.7536888  37.5123558
  42.2204208  40.6404572  85.9048920  41.7393150  39.8162613  85.9788513
  41.5468674  41.3175430  85.9689941  53.2341118  53.2660484  45.2620850
  53.7432632  52.6058960  44.7917709  53.7986946  54.0388947  45.2759476
  48.3522720  49.3103714   2.9097576  47.5953598  49.4884262   3.4679790
  48.0582886  49.5381927   2.0277691   1.0339344   4.4522166  45.8315239
   1.7861036   4.9372258  46.1709938   0.3417274   5.1085587  45.7521782
  31.5262718   1.3123082  39.8614235  30.9629288   1.9132713  39.3738594
  32.4156685   1.6122857  39.6737556  15.0769758  60.3934593  43.7244072
  15.5647316  59.9369545  43.0388947  14.2449675  60.6258392  43.3121033
  55.2711716  59.6250534   8.7460966  54.8608055  60.4788055   8.6084862
  54.5475311  59.0005379   8.6955233  82.7802353  38.2506523  87.9025269
  82.6310349  39.1135635  87.5160599  81.9107742  37.8522453  87.9418488
  86.4528351  70.5087051  45.1657982  85.8259354  70.0718002  44.5893135
  87.1254654  70.8476791  44.5751228  56.1158180  17.4162617  78.8094940
  56.1723747  18.3531437  78.9973450  57.0211258  17.1486187  78.6513290
   7.4791951  50.5219078  53.1580124   8.4032879  50.7135353  53.3178978
   7.1145902  51.3482437  52.8410492  70.9061127  33.6298828  76.0097504
  70.7664108  33.1126633  75.2165298  70.4574738  33.1387482  76.6980362
  28.2354336  68.6872025  31.5410995  28.1682072  67.8467789  31.9943047
  28.2981491  69.3339844  32.2439308  38.9573517   1.8666452  64.3794937
  39.5292892   1.2264532  64.8029022  39.5067368   2.2717650  63.7084618
  29.3974514  70.5580292  37.4090881  30.1753883  70.5182877  36.8527908
  28.9408264  71.3502502  37.1260529  24.6941185  17.2623615  86.3163147
  23.8091984  17.0872326  85.9961929  24.5879898  17.3828335  87.2599487
  80.1947250  64.3931274  69.8609924  79.8576202  63.6005173  69.4434357
  79.6603241  65.1001587  69.4993896   5.3715534  37.6355057  44.5029526
   4.5736918  37.2046242  44.8095284   5.6798062  37.0847626  43.7833061
  37.8722267  18.8016281  78.6358032  36.9948654  18.4308033  78.5411758
  38.1658249  18.9544296  77.7376480  76.5582733  27.4845791  45.8140869
  76.3712921  28.3916664  45.5722923  77.4965973  27.4756241  46.0030441
  16.4398251  49.8819389  70.1157303  16.1949043  50.5370026  70.7692871
  15.9677181  50.1439857  69.3253632  47.8674431   0.2885458  66.4000854
  47.5075378   0.8544479  67.0830612  47.9798508   0.8661031  65.6450806
  34.4152489  63.4433479   5.0185547  33.7947807  63.2383995   5.7180161
  34.0341797  63.0450020   4.2360339  79.0200653  22.2321644  39.1537704
  79.1277084  21.3007126  39.3462296  79.4861221  22.6782627  39.8608932
  31.9357338  59.4261322  10.6473684  31.9806194  58.8956261   9.8518944
  31.7672520  60.3145905  10.3335485  85.9418793  56.3459091  82.0871201
  86.2545013  56.5232964  82.9742661  86.3714447  55.5266457  81.8411255
  64.2918167  38.8385429  25.4431438  64.3409119  39.7887383  25.5477810
  64.7161026  38.4890518  26.2267685   6.4554343  60.7783585  27.6193314
   7.0572042  60.2431068  27.1020203   7.0252419  61.3502121  28.1336575
  50.8048096  71.0860748  64.5141525  50.9262505  71.8060608  65.1330948
  49.8949547  71.1670380  64.2280807  75.2167816   9.6833887  43.2547455
  74.5658798   9.2028780  43.7662811  74.9540100  10.6004276  43.3336220
  66.1927795  55.1655922  47.0205231  65.8259811  54.7067680  46.2647629
  67.0199509  54.7166138  47.1949921  11.1052237  59.1256256  24.9576454
  11.9852085  59.5019569  24.9729748  11.0901003  58.5215492  25.7000027
  74.9975052  59.6451302   6.0345125  75.7367554  59.7554893   5.4365468
  75.3793030  59.2459488   6.8162498  71.9654312  55.8791695  53.8108673
  72.8712006  56.0413170  53.5471802  71.9889603  55.0204353  54.2330704
  63.5109367  11.8933430  64.5656433  62.8521538  12.1645432  63.9263611
  63.8721237  11.0822620  64.2079773   4.7120018  30.9556427  10.3890734
   5.0317950  31.8069935  10.0904684   3.8073833  30.9172401  10.0785532
  84.8640747  29.8503876  53.5532570  85.7729187  30.1383324  53.4676819
  84.9258041  28.9682732  53.9197235  70.3299026  66.0844345  88.7510757
  70.3761444  65.5140915  89.5184097  69.7988129  65.5965500  88.1216736
  61.2707024  65.8578033  43.7315521  60.9790077  66.7277069  43.4587593
  60.9444046  65.7655487  44.6266785  74.0041504  62.2912407  60.7716484
  74.3130493  61.9348717  61.6046028  73.7463455  63.1900101  60.9765434
  56.5462379  57.9474335  29.1544209  56.0440216  58.6448898  29.5758076
  56.1261787  57.8311348  28.3022137   9.0848484   1.5852718   6.1065183
   8.9309196   0.7696826   5.6297040   9.8260584   1.3910800   6.6802168
   8.4135666  54.3471107  63.4982376   8.1832237  53.5015221  63.8831444
   7.6539364  54.9035034  63.6703453  71.4031601  24.7362633  24.6140423
  71.3540726  24.3817539  23.7262669  70.5817032  25.2145367  24.7267227
  86.2005844  31.0038185  27.1328907  85.4937973  31.0049248  27.7783985
  86.9485855  30.6283531  27.5973835  76.3118896  16.8041058  37.4545708
  76.9047699  16.7479038  36.7051888  76.5713196  17.6075993  37.9054871
  16.7323627  38.8488693  65.9294510  16.6779900  37.9217606  66.1612854
  17.6688709  39.0459251  65.9482346  81.9112549  60.3145866  68.7739334
  82.3192673  61.1794701  68.8156433  80.9747391  60.4952087  68.6931000
  70.0219269  11.8664761  47.6777992  70.6017990  11.5504446  48.3706932
  69.2529984  12.1979284  48.1416092   2.6543307  22.9960785  10.4423733
   2.1061471  23.2112885   9.6877794   2.1712337  23.3380013  11.1946611
  82.3574600  19.4894199  46.8387947  83.2213058  19.7662067  46.5332031
  82.1563263  18.7126369  46.3168869  60.1895027  67.7628174  56.2887573
  60.8749466  67.9048386  56.9416199  60.3868294  66.9029007  55.9174881
  72.3251038  66.3498535  29.6784134  71.7375336  66.0069046  29.0050755
  71.7409897  66.7233353  30.3383808  69.0123444  18.2625389  10.3390017
  68.4615936  17.7340202   9.7614460  68.7526932  18.0013981  11.2225266
  61.8414536  27.0149632  36.4972649  62.7060738  27.0728168  36.0906715
  61.2294846  27.0258331  35.7613258  31.1131477   3.0063584  83.7206879
  31.2472649   3.9256706  83.4902344  30.7837105   2.6036303  82.9172440
  25.4113426  45.7369728  75.0331650  25.9610806  45.2269249  74.4382935
  24.5390949  45.7045746  74.6402664  68.0324020  61.1051979  33.6026764
  68.4635315  60.6185570  32.9001541  67.1003036  60.9232254  33.4830475
  31.1081753   1.6412855  71.4075623  31.4996967   0.7684445  71.3745346
  31.4854927   2.1015637  70.6578903   9.7397375  64.1339188  86.3895187
  10.6296902  63.7838974  86.4307404   9.2403612  63.5910721  86.9995728
  53.0920410  35.4935684  34.7559586  53.7218628  34.8193626  34.5010033
  53.2286758  35.6054993  35.6967239  76.9302063  48.0662498  49.6162376
  76.9411621  48.5437012  50.4457855  77.7389526  48.3300018  49.1773796
  77.6380692  37.5106888  71.4172363  76.6911621  37.5781403  71.5399246
  77.7715683  37.6817245  70.4849548  25.8277683  39.0924110  16.0940075
  25.4197330  38.8569031  15.2607756  25.7783604  40.0478859  16.1232872
   7.4137335  36.8631134  81.6785889   7.8071036  36.2513313  82.3008575
   7.4259882  36.3960190  80.8431854  48.7849083  58.1704216  76.0879898
  48.0850296  57.5182190  76.1201477  48.6806488  58.5917625  75.2348633
   1.8241862   7.2710648  53.8706207   0.8961670   7.2897000  54.1044273
   1.8608477   6.7352576  53.0782852  58.9819527  20.1023827  79.6845474
  59.3564911  20.6803493  80.3493042  59.1049576  20.5737228  78.8605652
   7.1029291  37.9171677  20.0146065   7.0015101  38.5074043  19.2679024
   7.2969675  38.4953842  20.7523365  72.9022903  69.7869568   1.8821288
  72.0402451  69.7175140   2.2923577  72.8553772  69.2022629   1.1257139
  56.4700165  34.2287292  58.9769745  57.2279434  34.3883209  58.4145622
  55.7339821  34.6149445  58.5022964  58.8534470  54.0038452  82.6501999
  58.3025856  53.3909073  82.1632767  59.6942253  53.9854088  82.1930618
  79.5596085  46.5461464  45.2595711  79.8431854  45.7079239  44.8946075
  78.6141205  46.5642853  45.1114349  22.9918957   1.8927718  72.0470123
  23.6978073   2.4265401  72.4117203  22.2048912   2.4252684  72.1623535
  75.1573563   8.7455502  71.6101608  75.0687256   8.1453514  70.8698044
  74.5548630   8.4024534  72.2700958  51.8398476  21.1229610  60.5528717
  52.1197968  20.3111897  60.9758224  52.6033516  21.6976013  60.6083717
  81.5022964  28.9627419   5.6849699  81.8232193  28.2166519   5.1784244
  80.9131241  28.5765953   6.3330445  41.3137512  13.4543648  61.8319702
  41.7693596  13.0141096  62.5494843  40.4409599  13.6381092  62.1794014
  58.2376633  22.1468220   5.0034270  58.3069496  21.5353699   5.7366114
  58.3770828  21.6056862   4.2262731  20.5475521  57.8704605  29.2442837
  21.5025215  57.9357872  29.2442989  20.3692951  56.9668007  29.5047798
  26.4989491  51.0434990  53.0960693  26.8845272  51.7667999  53.5904312
  26.0023422  50.5467911  53.7463760  70.5982285  54.1886101  58.1146355
  71.0183258  54.5988808  58.8705635  69.6864700  54.0716209  58.3815460
  10.1761417  37.1253166  32.2986183  10.0647840  37.7462082  33.0185661
   9.8856344  37.6040955  31.5223389  14.4250765  45.9326439  17.8507500
  13.7572260  46.4507179  17.4015217  15.1682577  45.9251060  17.2475433
  15.9550190  60.9626770  57.4187050  15.0627527  61.1787338  57.1477585
  15.8884325  60.8083000  58.3610229  86.0691223  29.4041309  18.6274128
  86.1928940  29.8163586  17.7724380  86.2963333  30.0875225  19.2579536
  29.3278790  32.6215363  75.1242447  30.0697250  32.5743027  74.5211945
  29.7195854  32.5334702  75.9931717   7.9239612  45.1974792  35.9628220
   8.0645676  44.2529793  35.8965874   7.7215509  45.4727821  35.0686913
  42.7914238  36.9808998  77.5750275  43.5154381  36.7951050  78.1729507
  43.1963997  37.4543533  76.8483429  66.5099869  47.4677734   3.3396170
  66.0543137  47.3113136   4.1667309  67.2801056  47.9811058   3.5838118
  47.9562645  19.1381054  58.1189575  48.9019661  19.0266113  58.2161522
  47.8576660  19.6691761  57.3287201  22.8234386   8.0874319   1.2342778
  21.9603043   7.9530602   1.6256539  23.4304256   7.6652446   1.8421879
  51.7168465  66.5020142  71.8857193  52.0398026  66.4879837  70.9847565
  52.0834427  65.7125244  72.2838898  30.4101524  53.5092735  30.2564087
  31.1146698  53.6960983  29.6359367  29.6840782  54.0623322  29.9680061
  73.3122482  38.2110748  27.4579582  73.0837708  37.8771439  28.3254375
  72.6679230  38.8983688  27.2885380  21.1387615  58.5798721  79.1500549
  20.4698181  58.8529015  78.5222015  21.1850986  57.6288071  79.0522461
  52.8371696  34.8823471   5.1921458  52.9157562  35.3778191   6.0073528
  52.9960213  33.9737167   5.4478569  47.2879639  57.2259026  62.0615730
  46.7956772  56.4073830  61.9990425  48.2039032  56.9516449  62.1070404
  13.3645782  35.2684402  80.2358246  13.6485386  35.7053757  79.4328995
  13.2497644  35.9786339  80.8672256  46.6427803  23.8828964   6.9029880
  46.1754951  24.5899181   6.4580183  46.8609619  23.2641735   6.2059879
   3.6831362  53.9077873  18.1968975   3.0172799  53.3278275  17.8274212
   4.2536092  54.1189575  17.4578438  66.0526276  42.9866180  80.1640778
  66.6204300  42.6239204  79.4841614  65.7151871  42.2204704  80.6281662
  47.0731468  68.7402115  58.4809914  46.7139359  68.9693985  59.3381195
  47.8374748  68.1989212  58.6785736  18.8415089  60.4559784  25.1038303
  18.6042652  59.7500038  25.7051182  18.0236225  60.9314156  24.9580574
  57.0395279  66.8275146  47.9157181  57.8328705  66.8300705  48.4512825
  56.7513237  65.9147339  47.9189148  71.2303696  23.9401894  21.7695446
  71.8996353  23.8577881  21.0901852  70.4760437  24.3187408  21.3179741
  32.3837509  29.8781872  68.6573639  32.0345917  29.9650784  69.5443649
  32.2997093  28.9459438  68.4571381  71.9071045  21.2277832  84.4141617
  71.6844482  20.4058247  84.8512421  71.2419739  21.3244591  83.7326202
  76.3102646  13.9036837  66.7960434  75.5232010  14.1653423  67.2738495
  76.0231400  13.1795168  66.2398300   6.7204113  59.7437706  60.1793251
   5.9993834  60.3334351  60.3998871   6.7371531  59.1078949  60.8945961
  22.8024616  65.2559280  87.2731705  23.4009132  64.6907425  86.7846527
  21.9562664  64.8116989  87.2197876  69.9423904  10.2141867  38.7352219
  70.3685532   9.3964949  38.9921150  69.7620468  10.1071520  37.8012772
  13.1414337   1.3165758  68.7575378  12.5193272   1.4253953  68.0382462
  13.5738497   0.4821266  68.5760345  40.8844604  12.3928308  16.4650230
  41.2038803  12.0067081  17.2805691  41.6197243  12.3117208  15.8575335
  12.6961927  30.8220730  71.5048828  13.1466026  31.4357128  72.0852356
  13.3680525  30.5441036  70.8823318  59.6423569  23.9177856  87.7910690
  59.4045448  24.8370037  87.6697693  58.8222389  23.4398994  87.6675186
  10.1945934   1.0899069  83.3605347  10.4289045   1.0139239  84.2854919
  10.8574438   0.5732790  82.9023209  58.2726517  68.5238800  25.1342220
  59.0414009  69.0696716  25.2996483  57.5289803  69.1134567  25.2590599
  64.6278000  63.2290001   9.0345135  64.4422760  64.0195999   9.5412397
  65.5683365  63.2705536   8.8616066  79.1799698  30.2728691  56.0618134
  79.9222412  30.4996185  55.5015984  79.1065674  31.0074406  56.6711159
  73.2846985   5.1433702  81.8156586  73.0657120   5.0678701  80.8869095
  74.1757736   4.7998128  81.8803329  16.7809048   9.4754572  61.0516357
  17.4267197   9.6202593  60.3601227  15.9532375   9.3574944  60.5854950
  82.8902588   9.5560780  55.1413040  82.9576797   9.6524248  54.1913528
  82.5498581   8.6705647  55.2686729  71.9911804  11.8556108  32.0519409
  71.8613434  12.7726946  31.8104191  71.5666122  11.7703304  32.9055862
  47.1143112  11.6977615  19.2581463  46.7661591  12.0182438  18.4260921
  46.3494225  11.3586855  19.7231274  30.6022396  59.7191162   1.4668612
  29.7958889  60.1278038   1.7815111  30.3162289  58.8914909   1.0802541
  58.0433464  51.0458488  69.1999359  57.6583405  51.7181931  69.7620316
  58.6141167  51.5303345  68.6035004  27.8971462  13.6703444   9.0897160
  27.5918694  12.7631340   9.0870171  28.6087208  13.6855145   8.4496660
  22.8031540  -0.0413683  44.4468269  23.4467487   0.3517679  45.0362854
  22.7737617   0.5505816  43.6951866  37.6173134  68.3207932  88.9010925
  36.7524338  68.1721039  89.2833328  37.7636681  67.5613861  88.3370743
  21.5089798   5.2821360  65.4730148  20.7800007   5.9003406  65.5244293
  21.1178093   4.4329562  65.6782227  58.5872002  24.1209431  79.9233475
  59.3951454  24.2571926  79.4284821  57.9757309  23.7511501  79.2864838
   1.3716654  70.6854095  80.2167816   1.4867285  70.1760254  81.0189819
   0.4895612  70.4649887  79.9175491  67.3968964  61.7139549  74.8063660
  67.4373322  62.2532234  75.5961609  68.2961884  61.7012215  74.4787369
  30.6191254  15.1830797  77.7360229  29.7703476  14.7898293  77.9389114
  30.4269009  16.1108932  77.6002197   1.4177225  27.1437035  87.5398407
   2.0701649  26.7588749  88.1250381   1.6882644  28.0571861  87.4471512
  32.4609222  40.8212624  54.2487869  32.7042389  41.3996468  54.9716301
  31.9786205  40.1070900  54.6654167  77.1028900  37.6083107  34.7727890
  76.4921036  37.8137436  34.0649948  76.7046661  37.9950371  35.5525894
  48.8165932  12.8834143  43.3855858  48.1074829  12.6187363  43.9715385
  48.3717041  13.2119398  42.6043205  53.6041527  12.4377203  26.5331783
  54.1164589  12.9792461  27.1336155  52.7019730  12.7338486  26.6540451
   3.0634899  29.5265484  52.4444199   3.6127567  29.4708576  51.6624756
   2.4117386  28.8350716  52.3290443  70.2343140  71.1184769  84.2701874
  69.3455048  71.2556839  83.9424210  70.6524887  70.5703049  83.6062088
  47.7636604  54.2124176  31.1388168  47.0777245  54.8407631  31.3644524
  48.4094925  54.3008766  31.8397522  13.5668564  32.4128227  77.3386917
  14.5130997  32.3014297  77.2467957  13.4300280  32.5333824  78.2783661
  69.4788971  15.3576880  45.2018890  69.6143799  15.2758999  46.1459160
  69.8174973  14.5389910  44.8395119   6.7853460   3.8689437   0.7562734
   5.8850784   4.1578813   0.9054881   7.3133888   4.6580243   0.8777391
  63.2674294  63.9701653  88.2974777  63.1528778  63.3027267  87.6209869
  62.6605377  64.6680069  88.0506363  23.8177528   3.1323700  52.0825462
  24.1471081   3.6676278  51.3605652  24.3056583   2.3116915  52.0142365
   7.3401284  39.0191116  71.6276627   7.6826429  39.8172989  72.0299225
   8.1168518  38.5587234  71.3098984  56.7537689  47.3304558  62.8720360
  56.1060104  47.1868858  63.5619850  56.2336464  47.5101395  62.0888252
  49.3443871  47.9218483  56.1074867  48.4040184  48.0705261  56.0083313
  49.4884186  47.0482483  55.7437439  28.2627735  32.7054214  85.1988449
  28.4687405  31.8098297  85.4666519  27.5579281  32.9753494  85.7875443
  39.0135880  60.1157188   7.5035076  38.4152489  60.3203430   6.7849321
  38.4419365  59.9725952   8.2578020  10.7290745  45.7693024  51.4036865
  10.1674204  46.3869591  51.8719559  10.7160902  46.0741501  50.4964218
   2.0773556  36.0966835  87.9394684   1.3072617  35.6001816  88.2163620
   1.9671664  36.2023468  86.9945221  14.9541159  43.8168335  84.8035736
  15.1591129  44.6908722  85.1356277  14.0734491  43.9000168  84.4378662
  75.0577316  35.7510643   0.7274805  75.0554352  36.3593369  -0.0115931
  74.3484573  36.0578117   1.2923403   7.0698695  61.8011017  36.1733017
   7.9549670  61.7601318  35.8111458   6.9934378  61.0114594  36.7088890
  50.2859039  43.5742836   5.6558442  50.8854752  43.4452171   4.9209366
  50.7126732  44.2363281   6.1997128  51.8890457  17.4751835   7.7625179
  51.3043213  17.2887745   7.0279570  52.3564148  18.2686138   7.5012407
  46.1382141   2.0076721  78.2612762  45.3784561   2.1733136  78.8194504
  46.6535263   1.3612459  78.7437897  16.4332409  53.0459137  10.9616547
  16.1062794  53.6074638  11.6644974  15.9497786  52.2263184  11.0653906
  69.8688507  50.7910194  81.9067535  69.9105225  50.7664070  82.8627243
  69.8139038  51.7224998  81.6933060  65.7818375  46.7921867   5.6833034
  65.4448547  45.9000168   5.6014056  65.0916977  47.2673454   6.1460872
  41.9137306  67.8325500  25.6304359  42.4289551  67.0495224  25.4364052
  41.0384712  67.5000916  25.8295097  48.2484283  48.4428825  52.1969986
  48.5078049  49.1800652  52.7497368  47.8465195  47.8195724  52.8021317
  64.2095566  37.8599739   5.1422997  64.4147644  38.5278587   5.7965560
  63.7795334  37.1631775   5.6380711  67.9936218  16.4072914  78.9787750
  67.1812439  16.2567902  78.4954376  67.8069763  17.1670990  79.5302200
  52.8514977  18.8480282  69.1057129  52.1859398  18.4623127  68.5360794
  52.3703308  19.4747639  69.6460037  72.7503586  27.9074574  18.2513828
  72.0619812  28.4706211  18.6052418  73.4306488  28.5147305  17.9604149
  25.5551567  60.7989616  42.5921974  24.7086906  60.5071945  42.9307289
  25.5901165  61.7313309  42.8059654  41.5985031  42.0875816  19.7245903
  42.2640800  42.6443024  19.3204823  41.6102333  42.3332329  20.6496563
   7.9679585  63.9218941  11.3372078   7.2405958  63.5434837  11.8311539
   8.6008854  64.1838760  12.0057888  62.7438087   7.7393894  22.4318314
  62.7650833   8.2181768  21.6032524  62.6171646   8.4164457  23.0965023
  70.4470444  53.1638641  83.7984009  70.9352722  53.9753418  83.9375763
  70.6070633  52.6493797  84.5895615  41.3492203  69.6201401  82.6900406
  41.9973564  70.2614517  82.9813690  41.8675613  68.9145432  82.3031616
  63.2325935  19.4751377  78.4601440  62.5605545  19.5877533  77.7879028
  63.0763245  20.1900444  79.0771713  81.4284210  29.5781174  59.5261536
  80.5880432  29.9124184  59.2127342  81.5976028  28.8083439  58.9829597
  66.1049042   0.1349846  78.8928452  65.1550598   0.2381138  78.8345947
  66.4572144   0.9214574  78.4762268  24.0655308   3.4618998  45.9572067
  23.7603912   3.2536561  46.8402443  24.7420979   4.1262574  46.0880432
  39.2333145  62.0395927   3.9641557  39.4914093  62.0976295   3.0442371
  38.8235779  61.1782227   4.0440745  74.0500793  38.6311874  53.8453331
  73.3929367  38.0092278  53.5329781  73.5516281  39.4208565  54.0555763
  65.4745789  17.4434566   0.1208731  66.3312378  17.5492287   0.5346134
  64.9164047  18.0865345   0.5580583  60.3614197  38.1948090   8.6835289
  60.2815399  37.2750740   8.4306602  61.2930946  38.3905258   8.5839968
  62.9556007  38.4320107  38.1402779  63.7739220  38.6800575  37.7100983
  63.0411568  37.4910202  38.2933922  62.7993279  35.5419731  36.3544579
  63.0982437  35.7628593  37.2365494  63.5051537  35.0086555  35.9889183
  79.6122131  58.0213623  44.1309166  78.8525848  58.5096626  44.4483452
  80.3407364  58.3380241  44.6649628  76.3902893  36.0053711  78.9531403
  75.9700012  36.4991875  78.2490616  75.6774979  35.5104179  79.3571014
  19.7627640  59.2981491  65.5271072  20.0046844  59.0584793  66.4216843
  19.5121479  58.4704323  65.1168442  12.9856386   0.6401880  37.0190163
  12.8608294   0.7639379  37.9599419  13.6626110  -0.0333690  36.9537468
  72.6516113  62.4167328  18.5978527  72.8773041  61.6184540  18.1203098
  72.5299606  63.0774269  17.9160042  33.0363655  32.8437386  86.3243942
  33.1452675  33.5945740  86.9080200  32.1937370  32.4654045  86.5755310
   1.8940908  13.7166977  67.3535919   2.3306084  14.5684891  67.3418808
   1.5113977  13.6556931  68.2288361  35.8274536  54.6176643  81.9738464
  35.7993584  54.5120773  82.9247894  35.7851143  53.7244644  81.6323318
  37.9512672  28.9793167  68.1672211  38.4142570  29.3663120  68.9102554
  38.6288376  28.5091496  67.6813507  48.5876007   5.3488135  36.0699120
  47.7980309   5.1939445  36.5883942  49.2620697   5.5560141  36.7167435
  -0.0447239  26.7756958  18.2853813  -0.2497935  27.6988068  18.4338589
   0.4960431  26.7745075  17.4955711  67.2932205  53.7879219  26.5647335
  68.1708527  53.8120880  26.9460449  67.0321808  52.8688164  26.6225395
  39.3621902  31.0027046  69.9424896  39.6462822  30.6070786  70.7665024
  38.8009033  31.7313328  70.2076035  54.1271744  13.8127394  80.4806595
  53.2888718  13.5147409  80.8337631  54.4496155  13.0700445  79.9701080
  56.9077034  68.6950073  28.3041077  57.5447006  69.3308029  27.9781761
  56.0572777  69.1032486  28.1417961  83.8566971  34.4475861  47.6389198
  84.5264206  34.8614616  48.1833534  83.5061417  33.7434235  48.1843491
  28.0664749   0.8905921   8.9507322  27.1247959   0.9291853   8.7834482
  28.1564426   1.1363400   9.8714628   0.8098707   8.0365248  69.2017670
   0.5612440   7.1133432  69.1553726   1.3183057   8.1073332  70.0096664
  47.0821686  61.4764099  14.5350142  46.8531914  60.5857697  14.8006430
  47.1334610  61.9655495  15.3561993  73.8654022  11.4335928  67.6936417
  74.2216797  11.1167183  68.5236282  73.1909409  12.0636063  67.9474640
  39.2729874  65.7490921  21.0039730  39.7843094  65.7523193  21.8131504
  39.5524406  64.9556656  20.5472279  48.4137077  71.3478775  58.9637756
  48.1363716  70.7172623  58.2992134  49.3691711  71.2902145  58.9647331
  16.9115238  65.2413940  13.7797508  17.7867737  65.5871658  13.6047869
  16.9850426  64.8273621  14.6396370  72.0831833  35.2681389  17.1707745
  72.2544022  35.5565834  18.0672779  71.1909790  35.5641098  16.9902210
  34.6607590  47.1035576  65.1692963  35.2524300  46.7188950  64.5226212
  34.3855896  46.3644371  65.7117081  21.1128712   2.4179254  82.8362503
  21.9705181   1.9976189  82.7728653  21.2643604   3.1903751  83.3808670
  73.2335587  36.1591263  52.6895485  72.4309311  35.8944511  53.1389618
  73.4127121  35.4444695  52.0784836  17.0482464  52.0565453  83.0500031
  17.4114628  52.7002602  82.4417801  17.1631966  52.4519768  83.9140930
  77.5227356  40.2153320  45.1957855  77.7233505  41.0953712  44.8771706
  77.7678528  39.6373444  44.4732361  27.8356915  33.3907547   2.8975811
  27.4256535  33.1621361   3.7317488  27.1312046  33.7874413   2.3851683
  27.0716171  37.2562370  67.8619843  26.8023853  37.5715904  68.7247162
  27.5380993  37.9953346  67.4716568  68.6809616   2.2390687  62.3603592
  68.9667892   1.3690405  62.0818100  67.9950867   2.0704195  63.0063934
  30.9250565  66.8933868  10.3850060  30.6215515  67.3419571  11.1742458
  31.3425426  66.0951767  10.7087364  44.8429337  62.3919296  80.9915924
  44.6673241  61.6324081  80.4361420  44.2435188  63.0662270  80.6718216
  52.6238632  37.7053642  74.2953110  53.1000519  37.7234459  75.1254654
  52.4278183  38.6240807  74.1115875  69.8848648  14.4223413  10.5565853
  70.1680756  13.5080013  10.5548983  70.0186539  14.7128582  11.4587669
  25.3387146  23.4699116   2.6195908  26.1206665  23.7518845   2.1449604
  24.9010315  22.8640461   2.0216010  68.1831741   1.8058507  50.7806206
  68.1203461   1.7076167  51.7306900  68.9619293   2.3460555  50.6466637
  35.1117325  43.5572586  68.6680145  35.2508888  44.3572197  69.1748962
  35.5489655  43.7237396  67.8329468  48.2407837  22.5783577  88.6886826
  47.7741356  23.2549877  88.1981277  48.0704956  21.7706947  88.2039948
  20.9340115  35.3303337  26.5104771  21.8514481  35.5889511  26.4229660
  20.7166233  35.5236015  27.4224091   1.6469228  46.1849060  10.1343374
   1.7759998  47.0097504  10.6025276   1.7171013  46.4210014   9.2093687
  69.9302521   6.9700942  57.4689369  70.0473938   7.7565956  56.9360924
  69.0630035   6.6444883  57.2279320  70.1123886  57.9363022  83.7373428
  70.9134598  57.6477776  84.1746902  70.1272964  57.4893951  82.8910065
  21.7570286  23.4786396  82.2462006  21.9118252  23.3086147  83.1753769
  20.9103279  23.9244518  82.2220993  54.5727692  48.8784828  26.0179081
  55.4355621  48.5540848  26.2759476  54.7140999  49.2786255  25.1599197
  18.5308781  49.4836922  40.4452209  18.4848385  49.8411522  39.5584641
  17.6247330  49.2648888  40.6626053  53.2222977  46.2621460  31.7977333
  52.4737625  45.6904106  31.9681606  53.0329285  47.0588188  32.2933998
  76.4705276  19.1898441   3.4092193  75.9299927  18.4316711   3.6310890
  76.5021744  19.7054825   4.2150407   3.6404490   8.5738707   8.7092581
   2.9197052   9.0022812   9.1710205   3.3644392   7.6608453   8.6290359
   2.2581851   0.8195108  57.3830414   2.0856550   1.6385756  56.9187126
   2.3492920   0.1657973  56.6897926  15.6871834  43.1679420  77.9943008
  15.4612103  42.9099884  77.1006470  16.3365555  43.8628044  77.8860703
  80.4973755  62.7492142  44.3656273  81.1957169  62.1088409  44.2296906
  80.2157059  62.6081848  45.2695084  17.7612610  46.0717888  83.2218094
  18.4545689  46.6141815  82.8458176  18.1744289  45.6388283  83.9688492
  28.4206963  55.6719894  29.0828171  29.3316059  55.6708794  28.7887516
  27.9919319  56.3268051  28.5318127  44.2979469  64.0129547  51.6905289
  43.5107841  64.4948425  51.4367714  44.1261482  63.1121292  51.4162521
  23.4726105  70.1549225  51.5318604  23.2328224  69.2303467  51.5942993
  23.3564548  70.3705215  50.6065216  42.5666924   9.5993938  46.6632156
  42.0032463   9.9957838  45.9986572  43.4537735   9.8506765  46.4059677
  45.3962440  42.1362228  58.4605904  44.8831444  41.3331375  58.3710861
  44.7788582  42.8388329  58.2570953  58.4999008  24.4058819   3.1985157
  58.4670982  23.7653980   3.9091036  59.3980675  24.7364101   3.2152648
  85.2052307  23.0103321   3.6085191  84.7104950  22.2131538   3.7981920
  85.2438126  23.0465813   2.6527839  50.9750786  46.2594452  11.1367798
  50.7192459  45.5415154  11.7158775  50.1547050  46.5492325  10.7377253
  29.0345383  71.4761429  29.9019852  28.1753750  71.5059280  30.3229141
  29.4466000  70.6872406  30.2542286  80.1796799  12.5834980  43.8869820
  79.5211792  11.9433756  44.1568871  80.1940918  12.5240498  42.9317398
  58.5424385  30.9368362  66.5094833  58.9942513  31.7806950  66.5081558
  59.0331573  30.4034042  67.1346893   5.5605621  55.5452766  13.0666847
   5.4950743  55.9856758  13.9140282   5.4090843  56.2384224  12.4241590
   9.7634611   0.2889581  10.6397591  10.7039824   0.2277782  10.8068132
   9.4338799   0.8613498  11.3325624  24.1091309  39.9554482  85.2346725
  23.2275085  39.8000870  85.5735474  24.5182724  40.5268631  85.8845291
  45.9365768  10.3841066  14.4914646  46.0831947  11.1755285  13.9734049
  46.7331886  10.2885590  15.0134888  57.7495995  46.0629463  25.5601025
  57.4206123  46.2138596  24.6739731  57.4528351  46.8242645  26.0586567
   5.0216575  34.0432892  82.7890778   5.5594492  33.8637238  82.0178604
   4.1291475  34.1071472  82.4491043  82.3416748  59.3812141  74.3617630
  82.7339096  59.9987450  73.7444763  82.1348343  59.9109688  75.1317062
  74.0433502  58.2986641  31.6881237  73.8923111  57.5880356  31.0648823
  74.5463333  57.8943634  32.3950768   2.0413010  51.3132858  58.9354897
   2.9211442  51.3119507  59.3124580   2.0799735  50.6623535  58.2347565
  23.9341526  18.8653507  51.2006874  23.9465542  18.0797749  50.6539268
  23.5233879  18.5821495  52.0175743  68.5263596  19.9389477  55.4143524
  68.2301102  19.2007122  55.9467773  69.1566696  20.3973446  55.9700623
  13.6281548   4.3641911  15.4980631  12.8101444   4.7825851  15.2296667
  14.1857538   5.0885510  15.7819958  70.6693115  57.9770737  36.2433128
  70.2140427  58.4822769  36.9169083  70.2345047  58.2209320  35.4261818
  21.0309296  33.8379402  24.2470531  21.7219276  33.1867104  24.3680992
  21.0368786  34.3469658  25.0576630  51.7738838   9.2232542  62.0210114
  50.9017944   9.6034079  62.1267204  52.1702538   9.7271223  61.3102112
  17.5655918  36.3936272  53.5458565  17.4213104  35.4473648  53.5453186
  16.9336739  36.7318993  54.1802750  61.2512360  54.7480545  62.4628487
  61.0397720  55.6809158  62.4986763  61.8857231  54.6190453  63.1678429
  13.9733458  44.1419296  57.0818939  13.1076231  43.8374557  57.3540192
  14.1988068  44.8215599  57.7171097  58.8675728  56.3476257  80.9364700
  58.0091553  55.9806175  81.1477890  58.7500496  57.2940826  81.0179138
  33.0088959  12.1117792  15.8893652  33.8972473  11.7565880  15.8593273
  32.9003944  12.5569410  15.0489540  27.4795704  61.3753433  72.0075455
  28.0662670  60.9606209  72.6400146  26.9586563  61.9862022  72.5288239
  38.2920341  15.2301788  79.5673370  37.5216217  15.7358952  79.3086014
  38.4601860  14.6522217  78.8230820  72.4485321  55.4560776  76.7389603
  72.5782547  55.4864082  75.7910767  71.7174988  56.0526772  76.8998642
  28.7292957  60.2716942  83.8579025  28.8143806  59.6480103  83.1367874
  27.8974361  60.0450554  84.2736893  41.9906464  69.6791458  33.3329353
  41.2054749  69.7295609  33.8780899  42.3411598  70.5698547  33.3348541
   2.9410841  39.5252571  72.9705048   3.7028604  39.8643761  72.5004730
   3.1864362  39.5783386  73.8941956  72.8690491  68.4642715  47.8737793
  73.1308975  68.9967041  48.6249008  72.6584167  67.6089325  48.2482910
  53.4274635   1.3552001  58.1510201  53.3515320   2.1954930  58.6030998
  53.4545135   1.5845683  57.2221031  48.6904793  37.5783005  80.6123276
  48.2399063  36.9050598  81.1221924  49.1119690  37.0973511  79.9001007
  35.1542854  69.1112366  73.3313599  35.5292358  69.9502945  73.5989914
  34.4007263  68.9904556  73.9091110  71.5076294  55.2291374  74.0512772
  71.5065155  55.1412048  73.0981216  70.9145432  55.9600792  74.2250595
  71.6942062  57.8647270  61.4481621  72.3259201  57.1686096  61.2676086
  72.0180359  58.6165962  60.9521179  34.5132713  56.1666603  27.5165997
  33.8723145  55.7729797  28.1085625  35.3573914  56.0125275  27.9407902
  33.5428925  67.4196167  39.9523849  33.1194992  66.7285538  40.4617004
  34.2227097  67.7624283  40.5325203  29.4984455  52.3100739  19.2178230
  30.2969990  52.1281929  18.7223778  28.8440456  51.7212410  18.8419666
  12.6467161  69.3030777  54.9401665  11.8990173  68.8741760  55.3563652
  13.4044065  69.0052490  55.4435921  38.5388603  38.0661621  23.7588634
  37.9025764  37.6203766  24.3180161  38.8846817  37.3763733  23.1924400
  77.9077530  69.8328552  65.3197098  78.6311951  70.4107513  65.5623779
  78.2267532  68.9528122  65.5197144  22.8275948   6.3024325  59.1230087
  22.7064381   6.4453368  58.1843224  23.7690182   6.1621537  59.2243805
  69.2178268  41.0259552  10.3121023  69.5311050  41.7831688   9.8174171
  69.9453201  40.4044724  10.2849627  65.6938171  64.7798615  66.9483109
  65.4858170  64.2999878  67.7499924  66.1960983  64.1587677  66.4208755
  54.2961426  36.4064865  49.1474609  53.5139084  36.4829216  49.6938133
  54.9838257  36.8414574  49.6515694   4.9188747  20.7134266  33.4430542
   5.4360070  20.2725620  34.1171799   5.3898616  21.5297165  33.2755051
  28.7433567  34.2209587  36.4138222  28.4933739  34.2863045  37.3354912
  29.2556267  33.4140854  36.3612251   2.4169223  33.5673828  83.3087234
   2.5800688  33.0244255  84.0799637   1.9583981  32.9877777  82.7004166
  35.4585800  62.2883492  84.9093933  36.1329460  62.8754005  84.5675888
  34.6324844  62.7204781  84.6924515  12.6433077  70.0507355  28.4688435
  13.2770977  69.3615189  28.6676464  13.1635380  70.7452011  28.0647278
  62.3977356  13.9967585  57.4630814  62.1875839  13.1889677  56.9945259
  61.7784348  14.6408291  57.1197586  48.1834602  16.9834747   2.0914841
  48.3912315  16.2650528   2.6889229  47.7678146  16.5584869   1.3412472
  51.3316727  46.1216164  48.9911728  50.3810654  46.0122108  49.0157433
  51.6769371  45.2902298  49.3164749  49.4226646  32.8162575  44.2501068
  48.8117752  32.2743759  43.7506943  48.9474754  33.0366898  45.0512543
   9.9089689   0.6078992  26.1184978   9.8692589   0.1459637  25.2810802
  10.3127632  -0.0188233  26.7188339  14.2067032  42.8278847  47.8250198
  13.3104391  43.1481972  47.9267235  14.3849268  42.3530807  48.6368256
  73.8844070   2.4030268  53.5372810  74.3954697   2.8469539  54.2140198
  74.3929214   2.5236480  52.7353554  67.0487976  14.3901358   3.0578148
  66.9769592  14.3566847   2.1039009  67.9104767  14.0183630   3.2462938
  63.4641838  47.0906677  32.3413048  63.3618774  47.9991226  32.6249886
  64.2700653  47.0903511  31.8247910  76.8062820  21.7121563  68.1921158
  76.7680435  21.8746738  67.2495880  77.6641846  22.0433807  68.4576645
  30.3865948   1.0717616  17.0812492  29.7258968   1.0791235  16.3886776
  30.2366810   0.2488034  17.5465431  73.7870941  45.5162582  74.9221115
  73.1985474  46.0621223  75.4435272  73.3760834  44.6517906  74.9235001
  56.4859581   3.7180502  49.0012283  55.6003685   3.7662668  49.3612823
  56.3995056   3.1630399  48.2261658  22.8853626  54.8877106  14.2681999
  23.5930977  55.1556244  14.8543425  23.2868099  54.2408180  13.6880245
  21.8169651  24.3733959  76.4616165  22.3322353  24.2947025  75.6587830
  22.4054451  24.8023701  77.0828323  27.4051762  23.6209450  66.2730637
  28.2144566  23.7726402  66.7612076  27.6897259  23.1970444  65.4633942
  13.8338795  40.3359566  53.7113762  12.9989023  40.7873993  53.8348541
  13.7486315  39.5307922  54.2219391  38.0971947  11.9203005  11.9478436
  38.5689659  11.1141844  12.1572285  38.2951164  12.5095940  12.6757126
  20.0184135  38.4170341  18.9208736  19.5240269  37.7211533  19.3539639
  20.9077091  38.0702171  18.8494186  74.4404984  61.3992004  69.8370056
  73.7446671  62.0559578  69.8638840  74.4034195  60.9757347  70.6946411
  51.3109474   3.9811125  86.2222900  51.9508705   3.8461325  86.9212265
  51.8077888   3.8518331  85.4144135  45.2402344  43.0821953  20.3172207
  45.2728386  43.4242783  19.4238300  46.1539612  42.9017868  20.5381050
   7.1553936  53.2449913  19.8924313   7.5887256  53.8313293  19.2722187
   6.8609123  52.5070152  19.3586636  35.9111176  26.1520233  88.3290329
  36.7383499  25.7207432  88.5433273  35.2899284  25.8121395  88.9731140
  29.3462315  59.2530403  32.0133018  29.4872017  58.6550293  31.2793121
  29.0757561  58.6861343  32.7355843  29.4530239  35.3859100   1.5229219
  30.0703869  36.0907097   1.7187601  29.0158253  35.2119675   2.3564887
  50.3767509  52.9529457  58.8166962  50.4669952  52.1782646  59.3716316
  51.2685928  53.1454086  58.5272102  40.3177986  60.4344177  39.1401939
  40.8171768  59.9570541  38.4776421  40.3074379  59.8508568  39.8988647
  58.3240433   2.4639416  59.3147659  58.8068352   3.1315501  59.8020515
  58.6143150   1.6341714  59.6935234   4.1683331   5.4531393  54.8454170
   3.6860597   4.6516914  54.6421280   3.5113800   6.1474380  54.7944908
  54.8604279  17.5799713  45.5905113  53.9551544  17.3134575  45.7507668
  55.3722801  17.0873260  46.2320213  60.5117073  34.0213814  53.7383194
  60.4847527  34.9552841  53.5301552  59.7230263  33.8691750  54.2589378
  64.7990570  30.9359493  17.7848473  65.3976212  30.8065758  17.0491753
  65.2906418  31.4790974  18.4009361  86.3720627  30.8559589  46.0615616
  87.0706558  31.4623699  45.8156662  86.2913818  30.9554863  47.0101509
  86.1906204  10.6706800  70.5001068  85.8716202  10.7132864  71.4015884
  85.4323273  10.3842611  69.9910049  82.1565628   7.1995840   0.4192547
  81.7182999   6.5353074  -0.1126188  83.0898895   7.0485845   0.2698175
  37.7628937  70.2373734  38.4679947  38.6147156  69.8132935  38.3641319
  37.9624786  71.1732483  38.4909325  69.2700729   1.8396535  23.2978401
  68.9059830   2.7187176  23.1933594  70.1028748   1.9774241  23.7491608
  30.8773327  54.1054573  86.0846252  30.7364864  54.9906464  86.4205399
  30.1498890  53.5954857  86.4409714  76.0368958  11.3882895  35.4320030
  75.9710846  12.3321209  35.5772018  75.1761551  11.1368904  35.0970993
  30.8914642  49.3660507  74.3997726  30.3904400  48.5897179  74.1497574
  31.6821575  49.0182571  74.8121796  42.6837845  17.8856945  85.3836517
  42.1569901  18.6798954  85.4728851  42.0649757  17.2204018  85.0825043
  70.0248871  29.1255550  51.7245674  69.1637497  29.0848923  52.1405106
  70.4770432  29.8364010  52.1789780  86.1574707  34.8868408  39.0513687
  85.7391586  34.0842934  38.7396545  85.9348145  35.5444870  38.3924599
  24.5361805  33.0349998  86.7585220  25.2456169  33.4676781  87.2336273
  24.1425133  33.7299194  86.2309418  61.0784149  43.1134644  46.7590904
  60.3625946  43.4034882  46.1936493  61.7536888  42.8083305  46.1531754
  55.3790398  32.5814781  46.8883095  55.9154625  32.7341461  47.6662407
  54.7161636  31.9528484  47.1740570  62.2421265  10.9483271  80.7111282
  63.0191154  10.3892918  80.7125244  62.5695648  11.8128996  80.4630661
  23.5559731  13.2060595  81.2510757  24.1063633  12.7212906  80.6360092
  24.1534538  13.4692020  81.9510727   9.3166456  67.9945297   9.9268236
   9.5286007  68.4635162  10.7338886   8.4006453  67.7376480  10.0325966
  35.3508301  43.4007912  13.3322077  34.9038696  42.7109032  12.8417845
  35.1308022  43.2252846  14.2470951  63.3869629  52.2913017  12.2851877
  63.0140305  53.1609192  12.4297991  62.6412201  51.7514191  12.0232315
  68.9754181   9.9218025   0.6529481  68.1544724   9.5095654   0.9218969
  68.9156342   9.9746819  -0.3009185  62.5359840  12.9450264  30.6251030
  62.2172470  12.4715080  29.8567181  62.1484985  13.8167963  30.5469761
  12.1008797  52.5361862  65.4812775  11.8170233  52.0870247  66.2774658
  12.4073133  53.3907509  65.7846756  34.8435478  23.9364185  11.9187260
  34.7374268  23.8566246  12.8666725  35.5917931  23.3758583  11.7134581
  66.2239838  41.9008446  13.7843494  66.2155075  42.0581703  14.7284937
  66.9402390  41.2799301  13.6514196  10.9448414  13.8485222   8.4423409
  10.8633814  14.3442163   9.2571316  11.4190378  14.4341621   7.8520904
  49.0203896  66.2115097  18.7074986  48.1422768  66.2424850  19.0872173
  49.2365646  65.2794571  18.6796741  36.3735924  53.6523628  84.3537521
  36.1807365  52.7909584  83.9835892  37.0529327  53.4856377  85.0071564
  49.4049263  37.1821899  10.1808376  48.9063187  36.9138107  10.9525852
  48.9885254  37.9962921   9.8978529  12.2169352  15.0087862  26.3123188
  12.6417360  14.2435627  26.6998863  12.0030174  15.5679159  27.0592079
  67.0046844  35.4131775  17.4077473  66.2753601  34.9519844  17.8220158
  67.1568375  36.1736412  17.9688015  11.7553444  42.7055206  49.0530167
  11.0211630  43.2768936  49.2782669  11.3688068  42.0247269  48.5022507
  86.0279999  20.7060490  44.4002686  85.2644424  21.2754326  44.4951897
  86.3528824  20.8861370  43.5180817  80.7713013  55.2302361  -0.0982920
  79.8792419  55.5751076  -0.0593268  81.1650391  55.4897957   0.7346761
  78.4625092   8.0060759  60.1863861  77.7328491   8.5588331  59.9065742
  79.2416229   8.4507914  59.8525696  35.8700638  59.4650879  86.1878510
  35.3847313  58.9395752  85.5518341  36.1197395  60.2536964  85.7061996
  62.4875870  50.5236969  29.2872143  62.6055756  50.4585648  30.2348785
  62.0812492  51.3801880  29.1547508  52.6294518   3.6981220   9.3267813
  51.7797585   3.6019702   8.8966599  53.1689796   4.1659632   8.6893892
  53.1499825   3.5027583  59.5119324  52.6659050   3.3724461  60.3273582
  53.3455124   4.4396486  59.4965782  58.0433350  49.8359451   5.2010036
  58.8758736  49.3655434   5.2438064  57.8115807  49.9963799   6.1157613
  69.5250931  22.3853092  67.6526260  69.4198990  22.8366661  66.8151016
  69.7073441  23.0845966  68.2803268  75.6129150  63.1505394  73.5656052
  75.5949860  63.9933701  73.1122360  76.5423050  62.9284172  73.6215973
  47.2279205   4.6957736  17.5243683  47.4337006   5.5027380  17.9962730
  46.2741470   4.7020669  17.4436913  25.1938210  56.6566162  45.0765533
  25.5986404  56.5023499  45.9301071  25.8120594  57.2252007  44.6175079
  51.6794586  60.7531319  62.1340294  52.4525566  61.2899246  61.9596558
  51.0572090  61.3549194  62.5425491  38.9368744  55.2035446  50.4600143
  38.1979103  54.6760941  50.1567688  39.3222466  54.6900978  51.1700096
  67.0675278  68.5084152  78.5947189  66.2932205  69.0435410  78.7688446
  67.6390305  69.0754242  78.0769119  29.1590233  55.4854622  81.1469116
  28.3202343  55.0784416  81.3636932  29.0624485  55.7624664  80.2357712
  44.4402618  24.6203957  82.4818268  43.8903465  24.5738258  81.6997375
  45.3357964  24.5632458  82.1486893  49.2419357  23.9972630  13.4725695
  49.9784279  24.0459194  14.0820332  49.5434036  24.4664917  12.6946411
  37.2249985  33.3377991  86.8435516  37.1915092  34.2861900  86.7183762
  37.6117439  33.0029449  86.0345154  40.3091698  54.0514717  18.3821735
  39.8548660  53.5992165  17.6713238  39.9361115  54.9329834  18.3822803
  49.2598534  71.2165756  55.7054863  48.4468880  71.0301132  55.2358589
  49.9049797  70.6306915  55.3095245  72.2606201  71.6149673  75.3772202
  72.9313278  71.4253998  74.7211380  72.6979904  71.4688187  76.2160110
  29.2253857  29.7378635  71.1293945  30.1341019  29.7562752  71.4296036
  29.0421543  30.6394138  70.8650665  10.0038939  13.0521193   2.3267574
   9.4086971  12.7015915   2.9894061  10.7277431  13.4264050   2.8289378
  44.2666702  49.6544304  25.4166946  43.7762527  48.9466324  24.9986668
  43.6652260  50.3990440  25.4099636  40.8889275   1.9643940  43.9387550
  39.9824600   2.2704787  43.9094200  40.8319778   1.0283386  43.7469482
  70.4214401  29.9461555  55.9850082  69.8399734  29.8378010  56.7375984
  71.2895737  29.7195244  56.3184853  66.2280273  29.3583431  32.0344315
  66.1695633  28.9654751  32.9053345  66.9176102  28.8620071  31.5935802
  48.4873734  43.2863998  21.6187630  49.1583176  43.8835678  21.2879219
  48.7381363  42.4295311  21.2736206  68.1512451  55.0663528  14.6920214
  68.9940948  55.0211067  15.1434488  67.6292343  54.3690643  15.0889120
  65.3215256   4.2792211  61.4396210  65.1788025   3.6217387  62.1204872
  65.5217133   5.0823426  61.9204025  14.6766109   6.0092573  85.4822693
  14.7193947   6.9593940  85.3743744  15.1038513   5.8441749  86.3227768
  86.2020950  27.0922585  39.8664551  86.3250885  26.2811775  39.3732452
  85.2544174  27.2267151  39.8738594  20.8975220  70.9456863  14.8125286
  20.9066753  70.9469604  13.8553734  21.5941753  70.3368378  15.0579023
   0.2475660  34.3865929  32.6873436  -0.3085809  34.0457458  33.3878860
   1.1298065  34.3828392  33.0586510   1.6631416  26.2914562  60.0179863
   1.2400312  26.3452263  60.8749084   0.9732223  25.9860191  59.4289627
  46.7457542   6.3746667  74.0226440  47.3418846   5.9818430  74.6602554
  45.8859062   6.3326869  74.4411316   8.8228312   3.9345770  21.6128750
   8.0729322   4.2312398  22.1285057   9.2933416   3.3384373  22.1955147
  74.8051910  37.9276428  38.0904541  75.0469742  37.0038528  38.0242500
  73.9678040  37.9895782  37.6309090  54.2395668  32.4441681  40.4279175
  54.9609985  31.8315315  40.2849312  53.5198669  32.0933113  39.9033623
  63.3086090  53.7237740   1.6302370  62.9583626  54.0304489   0.7938700
  64.0207672  53.1314583   1.3889338  58.9295158   9.7306576  67.0461349
  59.7279358   9.3813143  66.6502533  58.7403374   9.1339531  67.7702789
  29.3672714  63.1776466  14.9471197  28.5175304  63.1399574  14.5080853
  29.6739635  62.2709351  14.9535580  68.1603775  66.5947876  85.0300369
  68.0148468  66.9073334  84.1370850  68.9283676  66.0273895  84.9630127
  15.5902138  59.9923134  23.3993950  16.0320549  59.1562157  23.2512360
  15.1470089  59.8832054  24.2407627  54.3548965   6.8453078  76.3085632
  53.4595566   6.7525163  75.9829941  54.6968651   5.9514694  76.3270645
  83.1913452   5.3188300  37.4253006  82.9507599   5.4611998  38.3407669
  83.4611053   6.1819706  37.1115303  13.6202221  61.0686264   0.6366505
  13.3946371  61.9493256   0.9361748  12.8071623  60.7264175   0.2650889
  45.8026733   4.8387313   1.8849075  46.2488937   5.6156850   1.5480683
  46.3754654   4.5163703   2.5807693  43.4048386  48.8301392  80.5479126
  44.3042831  49.0526581  80.3076630  43.0197525  49.6600876  80.8292007
  59.3025360  20.5589237  21.7312737  59.0570488  20.1904850  20.8826141
  60.1594620  20.9578419  21.5803528   1.4552729  43.5852051  12.0491514
   1.3443696  44.1069756  11.2543621   2.1654584  42.9784203  11.8401604
  10.7096806  56.5307961  58.5351868  10.7962370  55.5903625  58.3792152
  11.5201817  56.7750702  58.9820099  55.6946335  59.8541489  69.4682159
  56.1014442  60.1182671  68.6430054  55.8457031  60.5934639  70.0571365
  75.1073532  25.3693867  80.2421341  74.2579880  24.9447498  80.1217194
  75.0243835  26.2053432  79.7833023  55.6895218  23.8842735   8.2425594
  55.6667099  23.4501553   7.3897681  56.5246277  23.6158695   8.6256876
  60.0524178   9.9327364   1.4493989  59.8318481  10.8628178   1.3990897
  59.2073364   9.4842110   1.4194398  58.7223930  30.6340981  60.3690300
  59.5188789  30.1719170  60.1078224  58.9849663  31.5530968  60.4212952
  75.0437851  35.2110939  58.7287178  74.9624863  36.1454430  58.9200821
  75.3782578  35.1783867  57.8324547  17.3798542  71.3208923  73.3156738
  16.8106918  72.0435410  73.5803833  17.4873943  70.7974396  74.1098175
  79.3801727  59.7308044  70.0753021  79.8381500  59.9508476  70.8865128
  79.6826096  58.8482018  69.8613510  38.7254829  46.8990440  63.5363731
  39.2586784  46.9763756  64.3275452  38.8866501  47.7125931  63.0584641
  72.8913269  40.3107300  33.0545616  72.8995361  40.4449844  32.1068611
  72.0152740  39.9731064  33.2410583   5.5774083  22.8815231  25.1709957
   5.2431402  22.8691368  26.0678482   6.0283518  23.7224236  25.0950527
  18.8782196  40.9272804  22.4540768  19.2476177  40.0493050  22.3595409
  18.3498116  41.0509834  21.6655884  49.6142616  41.0602989  60.5320129
  49.0074844  40.3476448  60.3315659  50.4815712  40.6591377  60.4765816
  69.0702362  68.9786835   5.9603906  68.3856812  68.5764999   5.4257298
  68.6383362  69.7202759   6.3843412   4.9844694  27.4493923   4.0711093
   5.1688910  28.3673458   4.2700596   5.5469952  27.2487469   3.3230863
  84.8541718  49.5073509  49.9322815  84.9477768  48.9161835  50.6792679
  84.8172531  48.9278221  49.1713524  69.0332870  67.8771667  50.4775429
  68.1176834  67.6342392  50.6149559  69.1172562  68.7372589  50.8891563
  51.3271484  14.1349325  19.2821102  51.6500435  14.8979959  18.8028355
  51.9576836  14.0135403  19.9919872  30.2886410   1.9128693  46.8247375
  29.3840771   2.2010961  46.7025833  30.6495247   2.5227411  47.4682045
  20.3518772  43.3408432  16.7997437  20.8808136  43.8048706  17.4486923
  20.0045223  42.5835838  17.2710571  78.3819656  67.3910980  41.0876579
  78.0757828  66.5301437  40.8026123  79.3131714  67.3995132  40.8662834
  27.3898354  37.1606407   1.0368394  28.0595570  36.4904099   0.9008319
  27.5785351  37.8256226   0.3747037   6.8459978  29.7194500  71.3157120
   6.0083055  29.2565269  71.3301086   7.4628048  29.1112022  71.7229156
  48.1849937  13.6961565  75.5550919  47.7463264  12.8524380  75.6643677
  49.1177292  13.4814415  75.5435638  56.6446114  29.4546757  47.3239174
  55.7401237  29.6866131  47.5344734  56.8241653  29.9121132  46.5024910
   7.0054097   6.4630251  14.6756287   6.4956841   7.0691004  14.1379623
   7.6523876   7.0166922  15.1127834  79.6803741  67.3289795   0.6646094
  80.1852112  66.6614380   1.1291215  79.7033920  68.0918350   1.2423210
  53.0549316  31.7621918  86.3819122  52.5026588  31.8499985  87.1587753
  53.8892403  31.4337826  86.7170334  19.4144516  18.4387531  85.5462570
  18.5069542  18.1665134  85.6825104  19.5540390  18.3440056  84.6040421
  66.3519669  -0.1513520  75.0762634  66.1839828   0.5796570  75.6709366
  67.0914536   0.1392202  74.5424423  56.0921402   1.1361063   8.0051146
  56.4103050   1.3705938   8.8769045  56.8182220   0.6567097   7.6060939
  78.4833984  12.5800648   4.3727350  77.6495361  12.5891218   3.9028172
  79.0955887  13.0198469   3.7827733  20.1914120  15.1042852  47.5973663
  19.2487030  15.0267811  47.4506645  20.4016647  14.3827925  48.1902199
  81.5109634  56.8463364  74.4066162  81.5912552  56.3354034  75.2120590
  81.8459625  57.7126083  74.6380997  84.7434311   6.2000117   0.1702643
  85.1172409   6.1574464  -0.7098985  85.4016953   6.6636815   0.6878842
  67.6724014  13.0587196  42.9259186  68.3056717  12.4139471  42.6105270
  66.8501587  12.8145599  42.5010185  45.0408325  25.4607162   5.3513389
  45.1396484  26.4024925   5.4910774  44.3499870  25.3874741   4.6928563
  56.7278633  68.5446396  75.9050446  57.2678604  67.8308868  76.2444382
  57.0667839  69.3281479  76.3380356  17.6577740  10.6392670  19.3137722
  18.1511154  11.4123917  19.0396824  17.4062119  10.8240528  20.2186489
  53.8281288  68.8793564   7.5721073  53.4372635  69.6730423   7.9375067
  53.7028275  68.2162628   8.2509594  63.9487305  52.4381371  26.9106140
  63.3489609  51.7907867  27.2813530  63.5131645  52.7391472  26.1131763
  72.2691803   8.2998915  52.4954338  72.4922409   7.4044313  52.7496567
  71.3200302   8.3514662  52.6080856  51.1566162  59.7844124  27.3453388
  50.3888626  59.2478943  27.5426464  50.9976730  60.1138725  26.4607906
  13.5823584  49.2002258  82.9962692  12.6877460  48.8755913  82.8937378
  13.4798288  50.0602913  83.4037094  46.9435844  34.3047943   6.7390995
  47.7826576  34.3390045   7.1984663  46.9519424  35.0726013   6.1675777
  15.2198896  69.9124374  30.6187267  16.1619301  69.7461319  30.5850830
  15.1454687  70.7969742  30.9769020  51.1766129  13.0802517  80.3099136
  50.5234184  12.3805819  80.3152313  51.4683342  13.1286650  79.3995361
   5.3508358   3.6331666  48.6718254   4.6809444   3.5167909  47.9980774
   4.9184518   3.3765588  49.4863358  13.8159094   6.7853904  30.6796188
  13.8699837   7.5424218  30.0963440  13.5466843   7.1510239  31.5222721
  56.1395111  12.2212353  65.4410095  56.3386879  11.3189850  65.6910172
  55.9428558  12.6611023  66.2681046  69.5263062   7.6687732  82.0627060
  70.1558456   7.5804672  82.7783279  70.0395203   7.5075374  81.2709656
  35.7117462  53.7122307  24.9331703  35.2956238  53.3607330  25.7202702
  36.5484962  54.0612907  25.2401505  71.0305099  24.8774071  87.8280182
  70.7718048  25.4879036  87.1376572  70.3244247  24.2316380  87.8536377
  83.5453796  10.0521812  47.2742119  83.4805298  10.3001347  46.3519630
  84.4156876   9.6623507  47.3567924  68.8937149  13.3930931  23.7055473
  68.0800018  13.7126846  23.3157196  68.8793793  12.4488163  23.5494442
  35.7839813  56.1032066  78.2535248  35.4259567  55.8606071  77.3995972
  35.1435814  56.7149467  78.6167068  45.2869110  40.5460167  47.1791039
  46.1170654  40.2251358  46.8268127  44.8693504  40.9903259  46.4412270
  43.4885979  67.6215515  38.6950798  44.3782043  67.3360214  38.9031677
  42.9262390  66.9382706  39.0599213  28.1765575  49.5114136  41.0312462
  28.2939014  50.4576187  41.1158485  28.1359234  49.3585701  40.0872040
  84.4934158  65.8536758  83.9987793  84.8059464  66.1568146  84.8512268
  83.5781479  65.6174011  84.1494141  44.8365898  66.1460419  56.5641060
  44.8191681  66.4572754  57.4691238  45.0069771  66.9313431  56.0440025
  15.8744764  56.2929535  10.1445541  14.9223166  56.3837852  10.1815996
  16.0407944  55.8522491   9.3112774  81.3072739   1.5796765  22.4092770
  80.6927872   1.5578668  21.6756821  80.8561096   2.0861902  23.0846481
  11.5126429  60.8764954  70.6570053  12.2166948  61.3564110  70.2208557
  10.7173967  61.3577156  70.4284363  57.8744583  62.3637657  82.1953354
  57.5914650  61.6668930  82.7873764  57.5731125  63.1703568  82.6134644
  48.9204216  66.6818771  72.1637192  49.8642578  66.5286636  72.1197815
  48.8132324  67.5946426  71.8961334  57.5056534  40.0037689  77.4062119
  57.8176308  39.8562660  78.2990417  56.5532990  39.9321251  77.4703751
  46.0440598  57.7721291  85.0991898  45.1247292  57.9364471  84.8892746
  46.3953362  58.6329689  85.3267593  67.3854752  20.2034302  24.8159885
  67.9492340  20.5649223  25.4998970  67.6549149  19.2878723  24.7425957
  31.3638325  15.8689260  84.4648819  31.1104355  14.9564638  84.3254700
  31.4312630  16.2361145  83.5834808  34.8641281  15.6854219  81.3787460
  34.9877739  16.6270580  81.4981842  34.1456947  15.6160393  80.7500305
  58.6647072  51.4286766   1.6274908  59.1264153  50.6194153   1.8469317
  58.6677437  51.9341240   2.4403536  63.1892052  67.0615158   8.0256643
  62.8726387  67.9604797   7.9368744  62.9047966  66.6269226   7.2216296
   0.2964925  35.9015312  41.5592842  -0.2824074  35.6000633  42.2594452
   0.0440729  35.3789062  40.7981148   2.6285417  27.4158878  15.1521473
   2.6263442  26.4885044  15.3891830   3.5043521  27.5705624  14.7982206
  53.1410255  51.6405258  74.7185135  52.5276184  51.0586586  74.2697449
  52.7174683  51.8365021  75.5542297  23.0456104  64.8384552  64.2210388
  23.0552387  64.2353897  63.4777641  23.0807743  65.7086639  63.8238831
  54.2494049  27.0544052  62.0217705  54.0168839  26.2356968  61.5837250
  55.2051468  27.0364132  62.0714455  44.9403000  70.3274307  29.5622921
  45.7577324  69.8358154  29.6419449  45.2170029  71.2394028  29.4730282
  12.6932545   6.8793807  58.6955566  13.0830336   7.2522798  57.9048271
  11.8885002   6.4600153  58.3910294   2.4374757  27.6815262  32.3512688
   2.8654888  28.4900513  32.6329155   3.0791128  27.2565708  31.7821045
  29.5961533  44.3246994  15.0094042  29.1719570  44.3006516  15.8671389
  28.8725567  44.3884239  14.3860445  26.5074253  28.9453526  33.3845749
  27.1823750  29.4891052  32.9783630  25.6814003  29.3336391  33.0962219
  39.6994972  46.5782967  32.4550400  40.4196243  46.0002518  32.7070618
  39.0525093  46.4730110  33.1525726  12.7741547  65.1341248  25.5169544
  13.1284342  65.1654358  26.4056263  12.4513025  64.2383270  25.4192467
  59.1625633  45.8486938  85.4008865  59.9277191  45.9285240  85.9704437
  59.1663818  46.6521492  84.8806229  20.9921055  66.4570694  31.7426968
  20.5179195  65.7491074  31.3065987  21.5428562  66.0142975  32.3883438
  72.3182373  68.0855637  88.7788620  71.9616776  68.6276932  88.0751648
  71.6702347  67.3912277  88.8980789  46.6243515  58.0484962   9.7327375
  47.4634056  57.5887032   9.7042408  46.8448906  58.9611168   9.5464144
   6.5098391  41.1423607  44.4227638   5.7644243  41.7182503  44.5928879
   6.2758718  40.6789970  43.6185341  14.3858175  22.1741142   9.2740021
  14.0296402  22.0535240  10.1542444  15.3029404  22.4081097   9.4167080
  76.9675827  35.8038826  67.1066132  77.9022522  35.6339111  66.9894180
  76.9276657  36.6965103  67.4499054  70.0780716  10.3961496  77.3712921
  70.8321762  10.9803047  77.2917709  69.3313980  10.9835243  77.4883194
  34.6794434  68.4266586  66.4083405  34.3238335  68.3719101  65.5213394
  35.0712547  67.5670853  66.5627823  21.6913834  -0.2306680  11.6434269
  21.0990887   0.4502635  11.9624109  21.9451408   0.0632245  10.7685175
  61.8571625  26.6356487  76.9372025  62.5562172  26.8168011  77.5654831
  62.1734085  25.8830223  76.4374313  20.5403881  39.9722061  12.4472446
  19.9943485  40.7324181  12.6476107  21.3707962  40.3450966  12.1512604
  56.8943100  19.0268192  51.8790550  56.6947441  18.6203499  51.0357361
  56.4762650  18.4568863  52.5245361   1.4012895  43.4825211  31.8124771
   1.4947788  43.9364777  32.6499825   2.1236861  43.8134193  31.2787361
  18.3929768  25.7072792  16.0809631  17.5933990  25.1837692  16.0276394
  18.1010246  26.5576763  16.4093266  55.8062057  52.2209015  31.5736866
  56.3579063  52.9664459  31.8103771  55.5313034  52.4021606  30.6749058
  65.6861801  53.1065712  88.7274628  65.1486053  52.3805046  88.4111252
  66.5874863  52.8113174  88.5982208  71.0942764  44.9957924  38.1966171
  71.4552460  44.1538200  38.4741364  71.8159943  45.4265175  37.7385521
  54.6007385  28.3401756  58.8357162  54.9765053  29.0350971  58.2952347
  54.0428352  27.8452644  58.2356834  20.1158104  62.0078773  65.0716934
  20.0677738  61.0520210  65.0554886  19.3034878  62.2813225  65.4978333
  69.4791336  50.6968079  42.0052872  69.0982513  50.5865555  42.8764954
  70.1386032  51.3815193  42.1170998  21.8424931  41.4535942  15.3688793
  21.4680328  42.1533508  15.9039993  22.4810638  41.8955879  14.8093243
  69.0544205  44.7083931   7.3049116  69.4965210  44.6151543   8.1487627
  68.7518158  45.6164131   7.2920961  44.2211952  44.3929901  15.2825623
  44.1737061  45.3236961  15.5011158  43.3236046  44.1555099  15.0498247
   5.0057287   6.8003893  73.1255951   5.2398915   7.4757814  73.7621841
   5.8403893   6.5365758  72.7383270  84.5041962  17.6685925  55.1037750
  83.6697235  17.2688465  54.8586502  84.7987442  18.1142788  54.3095207
  82.9781799   1.3085182  17.7119274  82.7624435   1.8030922  18.5025501
  82.1472626   1.2322857  17.2429008  27.1127300  59.8311462  13.3710108
  26.6295071  59.5677032  12.5878601  27.6077919  59.0509071  13.6207514
  30.4805222  38.9806938  85.8729935  29.7881336  38.5609703  85.3624496
  30.7591267  39.7217445  85.3349838  83.8334885  32.4064445  39.1089058
  84.4754562  32.2501183  39.8014870  83.0650024  32.7467308  39.5670128
  50.3340225  26.9744320  65.6787415  51.2436829  26.9965267  65.3816528
  49.8884010  27.6233997  65.1342239  49.8199158  45.3299980  55.3068695
  49.8997536  44.6303024  55.9551582  50.7042427  45.4327736  54.9552498
  79.6812820  48.8801270  10.9103203  79.2529068  48.2355309  11.4735470
  79.7354736  48.4528580  10.0554895  49.4197731  13.2793303  61.5148277
  49.7217102  13.1695652  60.6131516  48.6556702  12.7068405  61.5829124
  70.9674835  64.2465286   1.8480443  70.4799423  63.5767860   2.3275990
  71.8657455  63.9168015   1.8227049  18.7387657   4.0459056  35.6284332
  19.4967690   4.6230059  35.5356026  17.9875259   4.6022825  35.4227257
  42.6729546  28.2821560   5.4934945  43.4990616  27.8980656   5.1998076
  42.9267845  29.1042690   5.9129357  39.6693459  70.6385117  79.1120377
  40.1448822  71.2794418  79.6405334  39.6478920  69.8498230  79.6540222
  80.5933685  26.5066147  49.9462166  79.9345627  25.9504604  50.3620262
  80.1232986  27.3107281  49.7256050   1.9040455  52.1704178   9.3174276
   1.8645889  51.5545120  10.0490952   1.8254613  51.6211281   8.5374680
  43.0590019  -0.3733621  80.5480652  43.4827309   0.3896319  80.1549683
  42.3438263  -0.0082420  81.0690689  44.2795258  63.0569572  64.2848587
  44.7599983  63.1510773  63.4623451  43.5641441  62.4559402  64.0769196
  27.8784294  52.1793060  37.3484192  28.4813957  52.7069626  36.8247375
  27.0077915  52.4604378  37.0670204  53.6407013  67.3245697  34.9789124
  53.6189651  67.5874023  34.0587616  54.0629234  66.4655457  34.9727287
  12.7030802  30.3091888  15.2054453  13.4016657  30.8288841  14.8077927
  12.7541800  30.5137787  16.1391296   7.7272344  33.6727066  60.8534050
   8.5170403  33.3483315  60.4207153   7.8911133  33.5341835  61.7862396
  82.5670853  21.0418415  72.7753296  83.2560120  21.6819401  72.5967484
  82.9315567  20.4828625  73.4615784  53.4480705  12.7251348  73.5511703
  52.8215675  13.4462519  73.6121445  53.1845169  12.2445831  72.7664185
  67.8921585  15.2272358  65.8724442  68.1313095  15.2894526  64.9476929
  67.5337524  16.0888157  66.0856400   1.5559415   6.9732189  65.7848816
   1.1453030   7.4941573  66.4749756   1.8537166   6.1793604  66.2291260
   7.4922390   2.5959611  55.3470688   8.1624260   2.8541551  55.9798508
   7.0549173   1.8476415  55.7532692  69.9704437  28.9615173  58.4278488
  69.5411987  28.2604599  58.9182587  70.7817383  29.1276131  58.9079018
   0.9250420   2.0644894  64.4211960   1.0292544   1.1989989  64.8165436
   0.0280689   2.3198423  64.6367569  19.8950653  61.3522339  11.6785288
  20.3374214  60.9915504  10.9101143  19.1047897  61.7637749  11.3287716
  43.3855324  23.7443237  47.9893608  43.6916504  24.1203842  48.8146477
  43.5989532  22.8136387  48.0564880  78.4629440  68.0564957  17.2226048
  77.8459549  67.4812775  16.7701874  78.6702194  68.7367020  16.5818367
  45.5458641  40.8999557   7.0429387  46.3077583  41.1901550   7.5444689
  45.0488091  40.3571968   7.6549687  14.7296534  17.0819721   4.5834022
  15.3382730  17.8198185   4.6207728  15.2491398  16.3285427   4.8639545
  79.5421143  42.6248894   8.0256882  80.0739136  42.0996399   8.6236286
  80.0311050  43.4415474   7.9247460  68.6127243  21.0497589   1.8914781
  69.2925262  21.1539135   2.5572519  68.7284470  21.8022079   1.3112520
  83.4601288   4.1471376  44.3284798  82.5649033   4.0834441  43.9956932
  83.8829651   3.3403437  44.0343323   7.1814675  15.1749535  28.8315125
   7.7710228  15.6402893  29.4249096   7.1615009  15.7150249  28.0414772
  75.4174500  67.8431854  36.0532303  75.0620422  68.3047333  35.2936935
  74.8925629  67.0451813  36.1157532   5.2051606  51.7506981  30.3419437
   4.3253174  51.9021378  30.6871586   5.1214705  51.8981018  29.3998718
   6.3787627  58.9343643  41.9304314   7.0138092  59.3493538  42.5141525
   5.6967812  59.5951195  41.8098640  58.8211823  14.4703941   6.4505520
  58.9342422  15.0881767   5.7281990  57.8786736  14.4670877   6.6175871
  81.8667068  69.2528305   8.7516909  81.3355484  68.4683380   8.8883619
  82.7476273  68.9190598   8.5819511  41.5205116  66.2287903  22.9247532
  42.2988281  65.9832458  23.4249191  41.7477188  67.0682983  22.5249653
  60.6974945  57.7151947  76.0894318  61.1326103  57.2839470  76.8249207
  59.7715797  57.7261238  76.3319016  76.6299515  45.0495911  16.2078266
  77.0537338  45.8469772  16.5253334  76.9031677  44.3710403  16.8252068
  66.5205383  23.1055698  42.6565018  67.1413879  23.8041859  42.4498100
  65.7825317  23.5550690  43.0682373  16.2388268  47.6437950  71.5179138
  16.4366646  48.4291039  71.0076294  16.2530003  46.9323120  70.8777313
  22.3566685  68.6110992  15.6992025  23.1372375  68.7975235  15.1774845
  22.3780098  67.6633835  15.8319235  22.0959873  10.0368633  21.4485378
  22.4505386  10.2582169  22.3096581  21.4649563  10.7323713  21.2633362
  26.7388973  54.7553406  82.2071457  26.2451649  53.9406052  82.3002167
  26.0795860  55.4450302  82.2837524  51.8097343  69.0190125   1.3628986
  51.3719177  68.5727539   0.6380515  52.1710510  69.8142319   0.9713600
   4.9961944  49.7929802  87.5600967   5.2218280  49.7940941  88.4903259
   5.5943332  49.1559906  87.1693268  30.7352448  50.3135490  82.6326828
  31.0334682  50.6263618  81.7786102  29.9084148  50.7725945  82.7805405
  61.4666138  64.1346970  35.3548737  60.8194962  64.4022217  36.0074844
  62.3075256  64.2126389  35.8054543  80.6978226  10.0432358  37.7234535
  79.8723602  10.4026527  37.3983879  80.4694901   9.6372757  38.5596886
  62.6853104  15.6706676  15.3025789  62.7320251  16.4074402  14.6933050
  61.7741928  15.3806143  15.2582569  69.3900375  28.5651188  35.8924637
  70.2189102  28.9740238  36.1414604  69.4068375  28.5531311  34.9354858
  36.1067467   9.1946726   5.0256834  35.6546364  10.0126705   4.8190241
  37.0361977   9.4223270   5.0027847  37.2821693  51.5292015  55.7091942
  37.5080376  51.2387772  56.5928650  38.0582314  51.3293839  55.1857147
  40.6594086  23.3082142  15.6119328  40.1887207  23.9037285  15.0287971
  41.2737312  23.8706684  16.0836163  25.7962341  12.5747690   5.0396228
  25.6327534  12.4923620   5.9791522  24.9240074  12.6087542   4.6468177
  71.9989243  38.0026665  71.0060806  71.2350998  37.7412987  70.4917908
  72.4142151  38.6903076  70.4855881   5.7028141   6.8622723  20.1558056
   6.2234488   6.1979518  19.7043095   5.7387848   6.6087322  21.0781155
  46.6387939  68.3765564  80.3183746  46.8962402  69.0061340  79.6448898
  46.7234154  67.5230942  79.8933182  75.8887024  57.2910194   3.4023709
  76.2923889  56.7480583   4.0794692  74.9709244  57.3591309   3.6655781
  26.0329666  52.1238937  50.5134621  26.0060387  51.1982689  50.2711296
  25.8077812  52.1345749  51.4437332  45.0145493  42.5115738  30.1231842
  45.0180740  43.1925735  29.4505329  44.6275558  41.7501450  29.6911068
  73.5582657   1.6240613  47.8484688  73.4167709   2.4727464  48.2679253
  74.4864197   1.4383129  47.9908142  52.8962669  56.2095985  41.7814369
  52.2055969  55.5469475  41.7913017  52.5035477  56.9712524  42.2079201
  48.0533485  44.0955315  11.3609209  47.3175621  44.4374962  11.8687706
  48.3536720  44.8417740  10.8421144  76.9785461  55.3256302  86.6622620
  76.3042374  55.6079330  86.0443268  77.6229401  54.8689804  86.1214676
  48.8032608  62.8451538  71.7069092  48.0017586  62.5719795  71.2605820
  48.5035820  63.1881866  72.5487823  10.8258228  63.3804092   9.3912106
  10.2594595  63.4850731  10.1557426  11.0773039  64.2733688   9.1553898
   9.8748665  39.7883873  36.6863594   9.1835279  39.5917740  37.3185158
   9.8844643  40.7439613  36.6313972  60.2933311  39.0238380   0.6274721
  60.1743813  39.9199638   0.3127695  61.2425270  38.9029961   0.6531014
  15.3549204  53.9157410  64.9632111  15.0481348  54.7900429  65.2034454
  16.2947502  54.0234489  64.8170929  58.3082390   2.9458282  27.5405178
  58.3631477   3.3340783  26.6673183  57.4729843   3.2574115  27.8890858
  58.1567497  63.2984428  77.5716934  57.7882843  62.6254311  76.9993973
  57.7163544  64.1058350  77.3063507  33.4873085  40.8981171  47.4336319
  32.5413437  40.9906921  47.3204422  33.8169441  40.7144012  46.5539627
  56.8113976  15.3734322  22.4852047  56.0524178  15.9195108  22.6900959
  57.3241425  15.3630056  23.2934227  45.7824516  68.6096344  60.8034859
  45.9062462  68.2981949  61.7000961  45.2231102  67.9486771  60.3954315
  42.5446129  43.4351540  88.7412720  43.3150940  43.7838745  88.2929611
  42.4042511  44.0324020  89.4759979  58.0302505  20.5283337   7.2916226
  57.2858009  20.0852261   6.8845811  58.7340088  19.8797684   7.2737689
  25.3539524  11.5891457  79.6213379  24.6075497  11.7079220  79.0339661
  25.8839264  10.9117594  79.2012177  60.2845306  46.3764915  58.6690750
  61.2173042  46.2203102  58.8166466  60.2581596  47.1314316  58.0811958
  79.9890213   8.2593555  23.0109730  80.0276642   7.3048639  22.9502716
  79.9030533   8.4364939  23.9477043  60.8943138  53.3357162  40.5818291
  60.0227776  53.2144585  40.9585953  61.4457512  53.5762825  41.3263283
  71.7223358  34.3428268  42.3996964  71.6419983  34.6743279  41.5053329
  71.8300018  33.3973770  42.2959290  53.2801590  66.7780228  69.4414520
  52.7881584  67.3791046  68.8821030  53.3620911  65.9790726  68.9206924
   8.4405251  29.3846970   2.7763095   7.8209457  29.4562569   3.5024168
   8.8732576  28.5418911   2.9128764  25.7461510  19.1638203  77.4538498
  26.0537472  18.5610619  76.7768784  25.1092587  18.6553192  77.9558716
  66.5278931  68.8876801  58.8014603  65.7273560  69.1772919  58.3638535
  66.2292862  68.2491760  59.4490509  55.0422363  40.1328812  32.0439644
  55.6380310  40.8609047  31.8672104  54.1687469  40.4994659  31.9066086
  66.5713348  28.2150402  19.5408287  66.2560196  28.7571831  20.2639408
  66.9279251  28.8406658  18.9102192   2.5578837  61.4026909  54.7126427
   2.8182235  61.1220818  55.5899773   3.2078435  62.0619087  54.4693069
  75.2318649  58.3204079  81.0426712  75.1294327  59.1412201  80.5609970
  74.4063644  58.2156982  81.5157623  61.1165581   2.9319890  12.1501760
  61.9550018   3.0404072  12.5990534  60.5554428   3.6117902  12.5233345
  46.5886955  13.2526121  64.4987183  45.8687592  13.3099127  65.1269226
  46.5303688  14.0632105  63.9929924  77.8831406  69.8014526  39.9971085
  77.9600143  68.9452820  40.4181786  78.4720383  69.7517929  39.2441406
  58.4757652   0.2485622   6.9641714  58.7529640  -0.5800584   7.3550425
  59.1769524   0.8626179   7.1821184   9.1960316  21.0084229  46.8982468
   8.2923317  21.2080498  47.1425972   9.2981520  21.3896828  46.0262108
  30.1368599  43.1067429  62.0772972  30.9904232  43.5181580  62.2129440
  29.5742702  43.8178329  61.7705727  67.4940186  24.8338108  87.0809174
  66.6283875  24.8634338  87.4883804  68.0823669  25.1992722  87.7416077
  39.2434502  38.9418030  69.4428177  40.1862717  38.8823547  69.2885971
  38.8768349  38.1895866  68.9780655  76.0179749  54.0375023  14.9713564
  76.3241196  53.8216858  14.0904884  75.6338959  54.9099426  14.8843832
  41.8607597  12.7256899  11.0067692  41.8388977  12.0340872  11.6681614
  41.9019241  12.2581100  10.1725597   6.9457350  70.8417282  31.3481445
   6.0602827  70.8266068  30.9848576   6.9361186  70.1706009  32.0305862
  35.1589813  46.7277985  11.5240049  35.2490692  47.4213219  10.8704453
  36.0584641  46.4677315  11.7228146  35.4434395   3.4913545  30.1384811
  35.2812614   3.7179942  31.0542126  34.6471939   3.0396280  29.8589039
  46.2853546  58.0649910  23.6528587  45.5439644  57.8118973  23.1028461
  46.0758820  57.7084351  24.5161190  43.8778191  60.1450195  40.0046310
  44.3917046  59.3727570  40.2407799  43.3799477  59.8746643  39.2331009
  26.7583351  63.0273323  54.5784187  26.5118084  63.8974953  54.8919067
  26.2195282  62.4259949  55.0925369  81.9001770   5.6238580  53.2565460
  81.8684692   5.6315174  54.2131882  82.6091003   6.2278571  53.0355530
  29.1983776  68.9630280  57.3333206  29.0565243  69.8180771  57.7395210
  29.5587368  69.1649017  56.4698257  48.4509735   0.8289093  35.0803223
  48.0603714   1.2547270  35.8434372  48.5703583  -0.0819428  35.3492584
  84.0003891   1.1000369  21.8155308  83.9250946   0.1941344  21.5156918
  83.1427002   1.3003453  22.1903362  38.1539993   2.8239574  87.2998428
  37.6374893   3.4337766  86.7729950  37.9144478   1.9585907  86.9681931
  85.0079193  56.3922005  38.3963623  85.0278854  55.7218590  37.7133675
  84.3262024  57.0018158  38.1137810  24.7180519  14.7819681  78.3092651
  25.2219753  14.3161154  77.6419754  23.8799572  14.3207064  78.3419418
  72.8125305  64.7413254  32.0782585  73.5365372  65.0264893  32.6356926
  72.3524857  65.5494080  31.8511143  82.2501373  32.8963013  60.9900360
  82.3095856  32.6334801  61.9085274  81.3217773  32.8064728  60.7748184
  82.7852249  33.6928635  36.8902321  83.3073120  33.1487770  37.4798317
  82.7115402  34.5333786  37.3422661  35.6974602  34.2778969  18.2506027
  35.1839294  34.9160194  17.7553043  35.8834648  34.7138100  19.0822372
  22.1834888  13.6047325  16.7471085  22.4343929  13.1125593  15.9654160
  22.3754101  13.0129747  17.4745846   9.0237265  33.8593102  36.0895538
   9.2198601  33.7515564  37.0202255   9.1066875  34.8002472  35.9346733
  11.2087135  35.6395454  63.4281654  11.0915565  35.0443687  62.6877136
  10.4609909  35.4620056  63.9987984   6.2811103  27.3899822  25.8394585
   5.3423839  27.3165646  25.6673126   6.3348079  27.7596817  26.7207470
  24.5081787   3.6055021  67.4774551  24.4177017   3.8256412  66.5503159
  23.6188641   3.3938205  67.7612534   5.4245744  52.4779892  65.2011185
   6.1008816  51.8032570  65.2609558   5.5463686  52.8628731  64.3332138
  48.9916840   9.3783503  -0.2788243  48.3977089   9.0139580   0.3774105
  49.8370018   9.4324512   0.1669791  54.0614510  71.1904755  50.0467415
  53.6815567  70.3120575  50.0636368  54.9861565  71.0555420  50.2539635
  17.6705704  18.7360058  18.2724876  18.2549686  18.8706837  19.0185261
  17.6052799  17.7847748  18.1880493  82.7415466  48.6212921  66.3158569
  82.9979248  48.8947105  67.1966248  83.1836243  49.2402382  65.7347412
   4.1505842  19.7784882  62.9638290   3.6211064  18.9826584  63.0142326
   3.8309374  20.2297497  62.1825371  54.6335526  44.2261925  26.8773174
  54.6097527  45.0248680  26.3502655  54.4684448  44.5244637  27.7717495
  33.8329697  56.2425117  11.2954559  33.9008293  55.7288094  12.1002798
  34.3230133  57.0436363  11.4806175  29.5469151  67.9585724  38.4650078
  29.1237850  68.7586212  38.1533737  29.5029068  67.3586960  37.7203941
  66.3871994  33.1828651  56.9218674  67.1651306  32.6970863  56.6478653
  65.8435440  32.5329971  57.3672218  81.9403152  65.4275894   1.3625897
  82.0969086  65.6966019   2.2677634  82.8000336  65.4799728   0.9450104
  79.0977097  31.2952328  16.0892220  80.0420609  31.3327866  16.2409458
  78.8028030  32.2003136  16.1896801  58.1558952  64.3502808  63.0263863
  57.2438545  64.3296432  63.3161926  58.3952560  65.2766418  63.0545540
  40.4042931  34.7911186  77.7421112  40.7401695  34.2421150  77.0335770
  41.0985260  35.4312134  77.8988037  40.7485161  27.7061787   3.2055187
  41.3082123  27.8068714   3.9754770  39.9142380  27.3931751   3.5551445
  48.5351181  71.6293716   2.5291610  48.5197716  70.8293304   3.0544529
  47.6408539  71.9668274   2.5805554  74.4347000  44.3084450  40.1346512
  74.9269562  43.8776207  40.8334465  74.9487000  45.0883179  39.9253006
  19.6496124  53.2093201  87.4829178  20.5071945  52.8846703  87.7574844
  19.0554218  52.4744186  87.6348724  16.4432144  38.1436539  78.2840118
  16.9056396  38.9348183  78.0075073  16.7957325  37.4520874  77.7239227
  50.4872360  17.5250492  30.1534138  50.5680122  16.6235867  30.4649792
  50.3395424  18.0402451  30.9465046  46.6203613  22.6923656  18.6110706
  47.0451736  23.5500736  18.6213264  47.3444405  22.0667076  18.5889549
  33.4120064  70.0761795  34.0007515  34.0559120  69.3892212  33.8283920
  33.9101448  70.8914566  33.9424362  57.4300117   3.9893711  21.2097225
  57.8684845   4.8143768  21.0015469  57.3691101   3.5322011  20.3709621
  55.9138184  39.1228905  36.6634331  56.7293663  39.6130562  36.5592651
  55.9992485  38.3847847  36.0599976   8.6263676  24.2925491  72.3295288
   8.0386343  24.3580990  73.0821915   9.1274929  23.4921513  72.4859467
  36.1339340  71.1242371  33.0375557  36.8461647  71.6875916  32.7349243
  36.5262260  70.2531281  33.0967674  56.5775375  42.6059227  17.8881512
  55.9109192  41.9521103  17.6774769  57.3184509  42.0957489  18.2152557
  43.5509338  66.8784561  76.9629517  44.2710266  67.5054321  77.0307693
  43.9485321  66.0978699  76.5771713  19.5667629  14.8375912   7.0818272
  19.0799465  15.0771761   7.8703957  19.4504871  15.5830946   6.4928141
  84.1534271  65.4320374  68.9652634  84.7207108  64.6882172  68.7624130
  84.6902847  66.2014542  68.7754974  54.6087341  23.4902172  18.7862396
  53.9868355  22.7915192  18.9894505  54.1427383  24.0533714  18.1682281
  79.5005951   6.5769892  42.6347237  80.1273956   6.6338010  41.9135246
  79.8537598   7.1613259  43.3055840  33.5925102  11.2447691  73.9081802
  32.7782211  11.5138245  74.3333511  33.5412254  10.2895117  73.8752365
  71.3852463  63.7881584  51.3082962  72.1138153  63.2692375  50.9675026
  71.4073639  63.6401176  52.2537193  67.1197586  20.2493973  58.5829468
  67.3717804  19.6542435  59.2889977  67.3673935  19.7885418  57.7813759
  56.5954666  46.9560432  72.6668549  56.2360191  47.8371544  72.5635452
  57.5050812  47.0976715  72.9291077  59.9452972  17.5013657  13.7634354
  59.2632561  18.1529045  13.6005087  60.7659416  17.9723778  13.6187782
  83.6802979  68.6220779  14.6948452  84.3255768  68.8009720  14.0108519
  83.1114883  67.9508438  14.3178473  74.5084076  66.9658585  23.4887810
  74.7673264  66.1040955  23.1623478  74.7481461  67.5700760  22.7861595
  25.6847095  29.9684410  71.5116501  26.5649757  29.6646233  71.2901611
  25.3779774  29.3505573  72.1752472   5.0972466  51.3885117  37.0100327
   5.3126731  50.4559784  37.0243912   4.1808853  51.4268875  37.2839661
  57.9605751  63.8906708  45.2839622  57.1136093  64.3280487  45.1968956
  57.9572792  63.2234840  44.5976105   8.5027447  70.7332916  82.4003067
   7.7368994  71.1857986  82.0468216   9.0009079  71.4182053  82.8463593
  30.0848560  21.6195202  88.6054764  29.5753212  21.7822876  87.8116760
  29.4299870  21.5474701  89.2998734  23.4041958  46.3968582  46.1715775
  22.8438473  45.8778610  46.7485352  23.6071968  47.1829987  46.6785355
  15.8162632   1.6726587  74.5036774  15.5445576   1.8936237  73.6128464
  14.9997530   1.6410000  75.0022202  30.2155304  57.0886078  71.0089417
  30.6144600  57.4362640  71.8065796  30.2763195  56.1382179  71.1053467
  64.3669968  20.0417957   5.6347985  64.6367188  20.8805599   5.2606955
  64.6409912  19.3917751   4.9877815  33.3058090  31.8744717  88.7731171
  33.1377831  31.8460312  87.8312073  33.5469017  30.9765034  89.0006256
  81.0894852  33.2148590  53.4032707  81.8943787  33.2891922  52.8905869
  80.8181076  34.1200523  53.5556412  73.6635895  62.8089180  81.0704956
  73.4518433  62.1182594  81.6984940  73.4304810  62.4383430  80.2192841
  75.6432648  57.9894104   8.2027330  75.0491943  58.2474861   8.9075098
  76.5182266  58.1497040   8.5562611  21.2825222  57.4623528   8.6531610
  22.1191406  57.3834343   9.1114988  21.5234642  57.6247864   7.7411337
  77.4032135  60.9724121  11.5408239  77.3386917  61.9238129  11.4577379
  76.8895035  60.7647629  12.3213472   9.0713654  66.8711624  15.3195009
   9.0232372  66.1180191  15.9083033   8.2056551  67.2755356  15.3766079
  50.0178719  36.7833557  78.0576935  50.1558952  36.6537170  77.1194153
  50.8046913  36.4238510  78.4674530   2.5457454  19.9071922  24.7014027
   1.9750128  19.9752274  25.4668236   2.5244758  20.7797623  24.3084621
  11.7921715  49.1882324  85.4483643  11.3399134  49.1924210  86.2919693
  12.1938725  48.3209648  85.3962555  84.6837616  36.0649185  72.6633835
  84.6621475  35.9195023  73.6092224  85.3665924  36.7238846  72.5379105
   7.8948064  29.0704823  67.4600067   8.6038685  28.4657726  67.6786194
   7.9479795  29.7535934  68.1284103   6.7116928  30.2760086   4.5443439
   7.3170137  30.5675411   5.2261262   5.9366379  30.8254147   4.6612825
  23.4832535  51.9108353  13.1261740  23.9325333  52.1323624  13.9418364
  22.8873234  51.2012253  13.3660746  25.8903542  29.8379364  26.3304367
  25.9099731  30.3340130  25.5120525  26.7069645  29.3385677  26.3274536
  57.7826767  35.1717949  22.7405396  57.9353752  34.2328148  22.6345673
  58.6281395  35.5755615  22.5445805   6.5762463  12.1928663  71.8972855
   5.9470725  11.8661785  71.2541275   6.0923595  12.8551445  72.3907166
  15.0211210  36.6304779  88.6261368  14.5685921  36.3055344  89.4045105
  14.3474083  36.6459007  87.9463501  81.9436417   4.9293313  55.8863182
  82.7368774   4.4927430  56.1968117  81.2313232   4.4919572  56.3527336
  68.9701614   2.1488433  55.3490829  68.5843048   1.8177798  54.5380707
  68.2193909   2.3356309  55.9127197  13.5951424  32.7299614   2.6045845
  13.9638472  31.9501934   2.1895523  13.1905985  32.4046478   3.4087903
  30.4008732  62.0011902  46.3966484  30.2705536  61.5574532  45.5585861
  31.1125927  61.5173721  46.8157043  81.7311020  39.7631340  47.2104683
  80.9876938  39.3424797  47.6424713  82.0629959  39.1000099  46.6052017
  68.5522232  32.1556625  26.0285492  68.4269714  31.2263432  26.2206650
  69.4525299  32.3368225  26.2984695  66.4609146   8.0084934  23.0359745
  67.3284531   8.1010990  22.6422386  65.8539963   8.2624903  22.3407269
  77.3808746  44.1402397  52.7177315  77.9555664  44.0325775  51.9598618
  77.5742493  45.0198631  53.0419197  14.7831450   7.6942754  12.6897202
  13.8558311   7.4928732  12.8152514  15.2193584   6.8427725  12.7196035
  48.1563721  37.1045532  68.9143448  47.7287331  37.8769417  69.2841721
  48.7924080  37.4577293  68.2922821  16.7341461  51.8096390  47.8271675
  16.2659664  51.4795227  47.0603142  17.6274509  51.4823761  47.7216301
   4.5872521  39.4239006  70.7984619   5.5140476  39.2951279  70.5967255
   4.3111095  40.1307526  70.2150803  13.5355358  42.6137505  -0.0522222
  13.6323977  43.4630890  -0.4828888  13.0545368  42.8067360   0.7525315
  20.7028637   2.6387653  18.8965816  21.2379761   3.2670794  19.3814621
  20.3374138   2.0652702  19.5702152  62.3077965   2.2013206   3.1861901
  61.4104004   2.5343568   3.1877060  62.8544922   2.9858534   3.2293336
   6.1132398  53.8792419  68.9075928   5.1749439  53.8367920  68.7231140
   6.2595205  54.7791138  69.1992569  24.6261349  30.6347866  32.8365326
  23.7041912  30.8885555  32.7934570  25.1024151  31.4122086  32.5449715
  72.4130859  31.5724201  71.6900940  72.9804611  31.2565479  70.9868546
  72.9495087  32.2085800  72.1631470   9.7806196  26.8988228   2.5023077
  10.5419855  26.3234196   2.5762420   9.9145746  27.3687458   1.6792275
  62.8097763  20.0083485  10.6221294  61.8527298  20.0253716  10.6205673
  63.0577965  20.4079227   9.7884274  85.6667633  44.6408157  51.9091263
  85.3371201  45.4143486  51.4517250  84.8795166  44.1596222  52.1639404
  62.6092072   4.6296730  37.1105461  63.2566948   4.5120153  36.4154549
  61.9061508   5.1332417  36.7002258  71.6223602  38.1601753  82.8779297
  71.2523117  37.3382416  83.1999893  71.8431168  38.6501007  83.6700592
  38.3970642  51.5628204   2.4538710  37.8095016  51.8945961   3.1327853
  37.9316673  51.7262383   1.6335469   7.0976062  62.1237373   9.4561491
   7.4074979  62.7577057  10.1028967   7.8333259  61.5228920   9.3381195
   5.4621105  47.5736809   6.2254782   5.1490097  46.6783104   6.3539786
   6.0976901  47.7083588   6.9284229   3.9675238  38.8189583  27.3044529
   4.8579764  38.6836128  26.9804039   4.0696812  39.4219017  28.0408306
  36.0097656  63.0783005  14.4539099  36.6406174  63.6307869  13.9923763
  36.3814507  62.9702568  15.3293571  11.0235271  63.2193413  39.0545959
  11.4481964  63.1918106  39.9119911  10.3207731  62.5722084  39.1145020
  22.8888245  46.2912102  84.7136993  22.5023098  46.0535812  85.5565338
  22.4824543  45.6929512  84.0866547  61.7806396  17.5536766  38.2498627
  60.9635468  17.0572891  38.2966614  62.2203674  17.2180576  37.4686890
  50.9517021  62.2006836  42.4242401  50.3935165  62.9781418  42.4389420
  51.4073677  62.2170372  43.2658653  50.5264854  71.5356598  38.8713379
  51.2318001  71.0320587  39.2777176  50.4486694  71.1706467  37.9898949
  18.5702648  71.1397552   8.6238680  18.9753647  70.8532944   9.4424438
  18.9527454  70.5711823   7.9555387  55.1098557  59.0934906  73.5440445
  55.5299454  59.8519211  73.1383972  54.1720238  59.2647858  73.4582520
  55.3543663  60.0890541  17.2715034  56.1068459  59.6166534  17.6276512
  55.1397629  60.7378426  17.9417648  63.8592644  45.0235634  43.7279930
  64.6768951  44.8528442  44.1955032  63.2808075  44.3063889  43.9873886
  83.3715057   7.6580029  36.2262726  83.3496933   8.5631418  36.5368843
  83.5586777   7.7304029  35.2903481  79.5637131  23.6396465  77.5394745
  79.1397705  23.5966606  78.3965912  79.1244583  22.9655533  77.0209274
  48.2852058  57.7312126   4.7175426  48.7540970  56.9305382   4.9526834
  48.4232559  57.8214874   3.7746618  22.8677559   6.6717396  72.8756485
  22.8422394   7.1508064  72.0473480  21.9492817   6.4929590  73.0773239
  38.7282944  52.1876945  28.0975666  38.7876053  51.6767807  28.9048347
  38.2217674  51.6359253  27.5015736  27.3784580  51.7700806  24.1280766
  27.4738159  52.6882553  23.8749084  27.5840454  51.2795944  23.3322182
   4.5081029  62.7053108  64.6696625   4.4024138  63.6263199  64.9079971
   4.4591780  62.2353516  65.5021133  85.2662277  69.5717621   4.5078144
  85.8306732  69.4715118   5.2743573  85.8163300  70.0144577   3.8615639
   9.8097315  41.5524445  78.9979401   8.8834915  41.4039345  79.1883469
   9.8807802  41.4380074  78.0502625  17.6240082  44.4712105  18.2505417
  18.0699711  44.5910225  17.4120941  17.9947224  45.1472740  18.8177643
  12.8854313  42.1574478  74.0339661  12.4820776  42.9927979  74.2700348
  12.1553431  41.5391808  74.0031433  45.1308365  14.9557047   5.9987245
  44.7570763  14.0745001   6.0023251  44.6001892  15.4435186   6.6285524
  68.0671539  49.4215240  31.4941006  67.6729355  49.2648964  30.6360264
  68.4914703  48.5931168  31.7175503  29.4850502  64.3504257  17.3966427
  29.3192730  64.0479279  16.5037556  29.0373573  65.1947632  17.4504795
  27.8582211  53.8985939  73.2464066  27.3576965  54.7136726  73.2096405
  27.2761192  53.2425690  72.8629761  37.8524399  58.5079689  62.1164322
  38.7813873  58.6705132  61.9525261  37.5313911  59.3224945  62.5033569
  18.2686329  12.0021629  -0.1240190  19.0302219  11.4978437   0.1621230
  17.6226349  11.8754826   0.5708699  22.0459290  13.6885071   7.0401483
  21.1387234  13.9153023   7.2445312  22.5571213  14.0884533   7.7436810
  43.7433472  13.9905519  74.2294617  44.1085243  14.7234449  74.7251892
  43.0206947  13.6719809  74.7703094   2.9783583   1.0649240  41.7649803
   3.2521124   1.4924409  40.9534874   2.4137201   1.7069964  42.1952820
  66.0910263  37.3050003  68.6057510  66.4904709  38.1725159  68.5418015
  65.3217087  37.3531151  68.0382385  58.7633934  41.6926498  19.8775043
  59.0324020  42.5196762  20.2773743  59.5503845  41.3726883  19.4364796
  25.4552746  51.4154205  34.2847939  25.1144276  51.8473282  33.5015259
  26.0284863  50.7266541  33.9482536  55.9147072  20.0026245  44.6704369
  55.5825195  19.1609993  44.9827690  56.6038361  20.2341137  45.2931290
  47.9762001  61.1763840  47.3451500  48.4979362  60.3847580  47.4768600
  47.1325798  60.9775734  47.7513733  10.7596712  42.2685814  36.2690735
  10.4544182  43.0928764  36.6480103  10.7307291  42.4144249  35.3234940
   8.0676746  35.1457024  31.3467960   8.9934816  35.2785072  31.5504570
   7.9965796  35.3462143  30.4135361  30.3136749  29.4015999  80.3248367
  29.9708214  28.8799610  81.0504913  31.1644230  29.7125034  80.6343460
  48.0367012  22.4937801   2.3519893  48.4692841  22.6541328   1.5133051
  47.7428093  23.3583317   2.6390598  51.3123360  50.4644890  36.0902519
  51.7596893  49.9216118  36.7393990  50.9107437  49.8370972  35.4891434
  86.1774902  34.9171333  16.0193119  86.6889572  34.5959549  15.2766962
  85.9200897  35.8039360  15.7672129  50.0137558  16.4487629  12.4413929
  49.9657974  17.0779972  11.7216730  49.9690552  16.9858341  13.2324610
  57.6621246  49.8585663   7.8194046  57.3954430  50.5956955   8.3687258
  58.5803528  49.7109528   8.0459061   9.4333849  13.7545805  87.1636124
  10.0077648  14.2307911  86.5639954   9.1520786  14.4127226  87.7991791
  78.1311111  35.0806580  36.8196335  77.2977982  35.4247742  37.1411896
  78.6212463  35.8562698  36.5468178  51.5699577   3.9874303  25.3757858
  51.5903511   4.8430681  24.9471836  52.3162270   4.0018826  25.9750443
  51.8191185  41.3170013  77.1809998  51.7042961  40.5905685  77.7936478
  51.3367271  42.0427780  77.5769501  24.7946377  49.9688339  36.9227180
  24.8507996  50.3234062  36.0353851  25.0556183  49.0524330  36.8314171
  56.9194641  17.5292606  81.7876511  56.4624786  17.7279911  80.9703979
  56.5837898  16.6712570  82.0472336   8.5856266  50.7870903  42.8260384
   7.6684937  51.0172806  42.6773415   8.5783434  50.2908325  43.6445198
  47.1069260  60.3398705   6.9705563  46.9150505  59.4508553   6.6721210
  46.8842812  60.8963394   6.2242308  80.0764694  54.1827812  56.9282112
  80.0580750  53.2545624  56.6951714  79.5756073  54.2353325  57.7422180
  54.3814316  47.3755074   4.0770569  53.8692703  47.2547836   4.8766513
  53.8684196  46.9404373   3.3960533  83.5696716  69.3170853   1.3653517
  83.9383545  68.8976974   2.1427925  84.2844696  69.8518982   1.0199901
  22.3155479  66.1707230  59.8798752  23.1345215  65.9411774  60.3189888
  22.5903416  66.5888138  59.0638351  78.0164261  39.0236511  87.7204819
  78.7886734  38.4658852  87.6268997  78.1631470  39.7412262  87.1042099
  33.2816315   1.6944871  33.6057281  33.7783585   1.2488352  34.2919388
  33.7167587   2.5412865  33.5065994  53.9984322  49.8017273  11.7294216
  53.9120255  48.9518814  12.1613121  53.5577850  50.4151382  12.3174582
  24.2194519  25.5115719  17.9889641  23.6695995  24.7284546  18.0138988
  23.7851009  26.0893173  17.3614464   1.8387735  38.0581856  57.3752174
   1.7778497  37.1563034  57.0603638   0.9327413  38.3662338  57.3963013
   5.4294276  49.7031631  83.0139160   6.3636403  49.4950485  83.0268173
   5.0841384  49.2087212  82.2705917   6.1445036  54.8384209  40.6348457
   6.8383994  54.9281654  41.2880554   6.3920293  54.0656662  40.1270943
  56.0932045  43.9576874  83.9781418  56.1014748  43.4892731  84.8128586
  55.9466324  44.8725891  84.2183456  32.8878403  63.6031265  77.8181686
  33.0785294  64.1182709  77.0342712  33.1283531  64.1764832  78.5459290
  17.7561436   2.8128774  66.8334045  18.6390610   2.9130843  66.4775314
  17.1880074   2.7956541  66.0632401  80.3473053  30.3838348  88.8940735
  80.3081207  31.0234261  89.6051407  79.7680206  30.7392597  88.2200317
  66.4291840  39.9417076  68.3571701  67.0564499  40.1525917  67.6655731
  65.8805237  40.7227402  68.4291992  12.8522825  50.4707222   4.2925072
  13.7621317  50.4509468   4.5891819  12.5191240  51.3145714   4.5977192
  19.3640175  39.6432457  73.1455917  19.0388088  39.8218460  72.2632294
  19.3998127  40.5023766  73.5661240  31.3124561  46.8239250  71.7906113
  30.9770775  47.1514664  70.9560699  30.5444355  46.7907181  72.3609390
   5.4848223  64.9580917  78.1551208   6.4200339  64.9831848  77.9526749
   5.1643867  64.1735840  77.7100296  80.5546112  68.3042908  21.4189987
  81.5041046  68.4069901  21.3545723  80.4194489  67.3585052  21.4778309
  20.9473782  56.2477798  53.9993057  21.3798752  55.4655800  54.3418503
  20.0124054  56.0606537  54.0832100  39.6820107  10.6793890  74.7434387
  38.7882156  10.9534569  74.9489746  39.7112160   9.7544966  74.9882965
  80.2676086  69.1286240  52.1263885  79.4225159  69.5539322  52.2718697
  80.0444794  68.2651138  51.7788315   4.7674680  59.3836899  13.4480515
   5.5950646  59.8456230  13.5819683   4.9070115  58.8675499  12.6541023
   3.0023956  20.5551090  17.2867508   2.8306811  20.4230595  18.2191162
   3.3586440  19.7184200  16.9879704  20.1288719  46.6227112  61.0039558
  19.7322464  47.0497589  61.7632637  19.9054451  47.1901512  60.2661743
  47.8865356  46.8932304  61.2231865  47.8923149  46.9977264  60.2717247
  48.8101425  46.9219360  61.4729004  40.6689682  59.6724167  44.6839294
  39.8073196  59.2825012  44.8314362  41.0538902  59.1449966  43.9840088
  70.8833160  38.8731308  42.7056465  70.7766724  38.3538170  43.5026245
  70.1050949  39.4296837  42.6764984  63.0083160  44.1931381  62.0659637
  62.2874146  44.7805672  62.2928162  63.4560356  44.0315971  62.8964348
  32.1753845  44.6347237  69.0232620  31.5363598  44.8190041  69.7116776
  31.9032230  43.7904434  68.6636047  39.7488136  51.2726898   7.8663998
  40.0090485  50.6969986   7.1473122  38.8442268  51.0242538   8.0567484
   7.2365074  59.8335762  14.5577469   8.0095215  60.1924057  14.1219482
   7.4051290  59.9646263  15.4908199  21.9328289  41.8950462  47.1711578
  22.6166534  41.2744827  47.4231796  21.9621353  41.9082642  46.2144966
  10.6595430  70.7137222  79.2546692   9.7598028  71.0390472  79.2252960
  10.6352482  69.8968201  78.7563629  79.0702286  45.6956940  37.0667114
  79.8500443  45.4717827  36.5587997  79.3510971  45.6277847  37.9792557
  48.0287361  28.1291504  12.2762527  47.6040573  27.5285244  11.6637735
  48.4692535  27.5578480  12.9053688  65.1646881  15.3645573  77.8538666
  65.0081482  14.5660362  78.3579407  64.2970123  15.6285563  77.5477982
  53.6739693   0.7394841  35.1111107  53.1896973  -0.0321100  35.4049683
  53.9250183   0.5359124  34.2101288  72.4869156  13.3345070   4.4174552
  73.2048874  13.4087763   3.7887802  72.7611618  12.6370668   5.0129361
  50.4354057  38.5345268  84.7693253  50.4864273  39.4098778  85.1532364
  50.3552551  37.9475517  85.5211639  34.5859528  46.5906448  45.6932106
  34.8988800  47.0241089  44.8992233  34.6418190  47.2637711  46.3714561
  73.7098541  69.6196365  19.7745934  73.7154388  70.3217545  20.4251537
  72.8284225  69.6451492  19.4022198   5.4837766  57.8201103  11.2292433
   4.6230378  57.5343170  10.9231653   6.0136719  57.8778687  10.4341917
  51.1355667  63.0506172  23.1908264  50.4596405  63.0323486  22.5133152
  50.6717377  62.8278656  23.9979668  18.9466057  64.4596252  45.7608643
  18.6684475  65.2614822  46.2034492  19.8201046  64.6617508  45.4256401
  11.4862089  56.7402992  51.6364899  11.5183058  56.0591698  52.3082542
  11.8375053  56.3195190  50.8517799   2.3424776  31.8326168  40.7843399
   1.8140345  31.0724945  40.5410461   3.0189838  31.4790573  41.3618927
   1.7298113  71.1082458   8.6172161   1.6884489  71.5778122   9.4502974
   1.6618091  70.1846466   8.8592348  25.4640942  63.9270515  86.5967026
  26.3651314  63.6781845  86.8026886  25.5109138  64.2835388  85.7095947
  11.2690096  58.6392326  60.6197510  10.5577679  58.9263916  60.0471153
  11.9223394  59.3360748  60.5580864  46.2073975   9.5225811  67.0711823
  45.7015495   8.9282713  67.6253967  46.2551193   9.0783224  66.2246704
  65.4384003  35.7486076  21.4245892  64.5825653  35.9425468  21.0422745
  65.2507858  35.5447006  22.3408070  85.4374542  53.1404800  39.5282249
  84.6971207  52.7394333  39.9835243  86.0905304  53.2841034  40.2131310
  18.3403797  11.6042194  75.9852295  19.0898914  11.9435778  75.4960403
  17.6467552  11.5179110  75.3312607  31.5902309  30.6386871  77.6775360
  30.9438095  31.3234882  77.8490601  32.1689835  30.6593266  78.4396667
  26.9792805  56.9959679  61.3997421  26.3972282  57.6610794  61.0322189
  27.7821407  57.4716148  61.6128273  28.8767567  65.7630768  60.9541893
  28.6561184  65.0287399  61.5271683  29.7935085  65.9543381  61.1522141
  62.5228844  44.4965096  84.7492523  62.3281441  44.1955872  83.8617020
  62.9539871  45.3422318  84.6262283  44.8062744  18.9578190  46.8866539
  44.2539864  18.3038139  47.3150024  44.9806328  18.5929050  46.0190887
  83.1044464  40.8626213  82.0936050  82.1593323  40.8648415  82.2452011
  83.2643585  41.6456070  81.5667343  11.8020296  68.3738480  15.3794613
  11.7820854  69.2287292  14.9493380  10.8806343  68.1348648  15.4802198
  13.7327194  56.2446976  71.0964355  13.9062681  55.9347191  70.2075958
  13.8081923  57.1970634  71.0369720   5.2239676  39.9957275  63.1613007
   5.5116448  40.7964745  63.5997887   5.8980365  39.8278770  62.5027466
  23.9198265  10.4186478  87.9509659  24.7445850  10.8999653  87.8850784
  24.1780720   9.4971485  87.9314651   6.3042827  67.3544312  18.6392059
   6.6734924  66.4943619  18.4387245   6.2559056  67.3774567  19.5949059
  86.4797668  30.3244152  61.2713127  85.7966385  30.6104450  60.6648827
  87.1478271  29.9298763  60.7107239  34.0310287  51.1069260   2.1645386
  34.0949402  50.9624329   3.1086094  33.8094482  50.2478447   1.8052133
  55.3601112  31.9452000   3.8698583  54.7772675  32.4930305   3.3441124
  55.0980415  31.0483608   3.6619425  25.9512959  55.7524681  38.0883369
  26.1932926  54.8272705  38.0474091  25.0858955  55.7919197  37.6812019
  84.5901642  56.4998169   5.1761665  84.4199371  56.6760254   4.2508535
  83.8067169  56.0419922   5.4808745  55.0921860  57.3606644  34.5124207
  55.4351349  58.2334175  34.7045631  55.5895004  56.7765312  35.0848656
  56.9810638  44.7664871  20.4884090  57.2829018  44.8799629  19.5871601
  56.1611786  44.2792816  20.4068546  69.1129761  53.4594154  32.2806740
  68.6586227  52.8768463  32.8892899  70.0359039  53.3874702  32.5241089
  47.8516922  54.0301323  52.2779999  48.2358208  54.1980896  51.4174957
  46.9067230  54.0603294  52.1284866  62.2500496  63.5845680  25.6714706
  61.3149567  63.4253807  25.5430298  62.6814842  62.8774300  25.1918392
  16.8748989  55.9090652   4.6767707  17.0814304  55.0732918   4.2583733
  16.5796890  56.4696312   3.9592383  29.4128494  51.6457977   1.3314390
  30.1607609  52.0371017   1.7828153  29.6130104  50.7101898   1.3029627
   6.2326894  56.2960663  53.1362114   7.0831904  56.7305412  53.2003403
   5.8905482  56.5640335  52.2833557  39.7685699   4.9782658  16.4722900
  39.2787971   4.1581159  16.4113693  40.5414276   4.8368855  15.9255400
  77.0913391  62.1094093  42.6062584  77.7642288  62.4050522  43.2194824
  76.3737259  62.7326775  42.7193489  82.5318756  68.9108124   4.7299180
  82.3889847  68.6142654   5.6287346  83.4062424  69.3001251   4.7423005
  57.4561539  11.5452490  88.3194275  57.5173035  12.3851328  87.8643646
  58.2998886  11.1231680  88.1576080  65.0030899  34.5139503  43.8038902
  65.0910721  33.5991173  43.5363541  64.4888763  34.9192924  43.1056709
  20.7389488  62.3136902  15.9049139  20.7826729  61.3738518  16.0810509
  21.4542656  62.6873665  16.4196186  56.2448006  71.1782990  79.7131805
  55.6185265  71.3881989  79.0203934  56.1853142  71.9152298  80.3211517
  77.7196808  30.1033306  18.7493439  77.1663208  30.8843651  18.7462120
  78.1811447  30.1333771  17.9112606  67.8039398  71.7336121  18.7656212
  67.9606323  71.6023178  19.7007351  67.2416992  71.0016708  18.5118942
  48.2012062  42.9994278   0.7394244  47.2750473  43.0026550   0.9811944
  48.2477608  43.5560112  -0.0379280  11.2152996  25.2625256  81.6418228
  11.9913902  25.2893677  82.2014618  11.2389717  26.0890980  81.1596909
  33.5506630   8.9437780  81.1523438  33.7986069   9.8261385  80.8763046
  32.7335548   9.0648584  81.6359787  50.5861168  53.3954010  44.3168488
  50.2340736  54.0707092  44.8967285  51.4767914  53.2473259  44.6346664
  67.1298294  19.0002384  17.8288708  67.5292664  19.7764931  17.4363041
  67.7732162  18.6980305  18.4699345   2.4845839  41.4666100   2.0715916
   2.7130234  42.1470795   2.7048464   1.5368998  41.5477943   1.9641856
  64.8241501  31.2647018  61.1476402  64.7723007  32.1638603  60.8235207
  64.2584076  30.7649460  60.5590744  76.9975662  49.5857849  18.9172974
  76.0478821  49.5306129  19.0235538  77.3439789  49.4860115  19.8040180
  63.9462013  69.5599213  57.6529655  63.6452866  68.7752075  57.1948090
  63.6011314  70.2869644  57.1347389  67.7232666  22.7585411  51.4898033
  68.4299393  22.1571655  51.7247238  68.0856934  23.2882462  50.7796669
  59.0025558  10.5869436  70.3336716  58.4452057  10.0206947  69.7998581
  59.8885765  10.4253139  70.0095139  49.9103012  18.0040054  85.1841202
  49.7593002  18.8184261  84.7043839  50.8397598  18.0288048  85.4115524
  20.3010063  39.1195946   6.8645558  21.0709724  39.1558800   6.2970467
  19.8152561  38.3529053   6.5604739  11.6839886  62.2876816   7.0054874
  11.5573397  61.3402023   6.9557738  11.3355484  62.5312271   7.8631043
  57.5494194  33.0003586  42.1451683  56.8197670  32.4985924  42.5085793
  57.3029213  33.1553001  41.2333221  84.6206055  37.9849129  20.0708923
  85.4059296  38.4913139  19.8634109  84.5871658  37.9759598  21.0274658
  20.6664371  54.6818924  81.0340347  20.3733521  53.9636726  80.4732361
  20.9153919  54.2581482  81.8554382  79.9397964  48.5033417  81.1060486
  80.8154678  48.1256905  81.0235138  79.6436844  48.6210709  80.2034454
   6.6708770  15.6105824  55.8523331   6.0952730  15.3054457  55.1510468
   7.1389127  16.3537617  55.4717293  51.8553963  27.8838062  87.3882980
  52.4675255  28.6144466  87.3005753  51.4275742  27.8258801  86.5339890
  17.3242245  69.5479660   4.6042967  17.3572140  68.8046112   4.0021644
  17.1973133  69.1522751   5.4665914  84.7950058  63.9386559  42.0684280
  85.0436783  64.0993729  42.9786835  84.7496567  62.9851799  41.9973030
  45.9451675  45.2565422  83.4720306  46.4510193  45.5617828  82.7189178
  46.3637352  44.4334030  83.7239685  22.3835392   9.7301664  13.9073896
  22.1477184   8.8191128  13.7324562  23.3350925   9.7157679  14.0101976
  44.3597298  10.3124294  40.0706215  44.8065910  10.2778139  40.9164047
  44.1949615   9.3959074  39.8491020   4.5082068  59.1813011  46.4985619
   5.0146108  59.2242126  47.3097000   5.0781393  59.5770416  45.8391685
   6.2549019  28.0776768  60.2307205   6.9172053  27.6144886  59.7178459
   6.7582703  28.6248550  60.8335876  79.6442184  19.9255505   1.6558546
  80.2833328  19.6197033   2.2994585  79.9162216  19.5156441   0.8347440
  31.1182156   4.6479297   6.5117302  30.4214764   4.0185647   6.6979742
  30.6998653   5.3138652   5.9660707  84.3657761  29.7796803  56.8863182
  85.0286407  30.0031567  56.2329407  83.7936783  29.1535187  56.4426308
  61.9131737  29.3025761  34.5099945  62.5746880  28.6607132  34.7681389
  62.2755623  29.7186737  33.7278366   1.2754004  52.5335808  17.6662483
   0.5642338  52.4729767  18.3040581   0.8330489  52.6122704  16.8210487
  62.0636940  26.1117878  64.0001984  62.3260231  25.3716526  63.4528236
  62.4620819  25.9328213  64.8519516  84.0402222  53.0312004  72.7605515
  83.8279648  52.8458023  71.8457794  83.2950668  52.6879196  73.2536469
  63.0789299  61.9213181   5.5277090  63.0271225  62.8753891   5.5850706
  64.0147400  61.7283974   5.5849209   2.7338340  13.2131414  83.1909409
   3.6707547  13.1638966  83.3806458   2.6758204  13.7676477  82.4128723
  19.1977749  29.6804161  78.2647400  18.2437592  29.7538509  78.2384109
  19.3720341  28.7570019  78.0826035  18.1049461  39.5275192  35.6513023
  17.7213345  39.9109879  36.4399872  18.3565006  38.6419754  35.9135323
  50.6199722  44.3740921  46.9184265  50.0024719  43.8299294  47.4071121
  50.8777657  45.0579758  47.5365524  40.9392548  35.8573227   1.3334757
  40.0718117  35.5250587   1.5645040  41.3298149  35.1607552   0.8057544
  15.5223770   5.4345155  88.8077164  14.8332863   6.0907726  88.7042160
  15.0721817   4.6686587  89.1641083  59.9352646  39.7106857  45.5995064
  59.9264832  40.6590538  45.7289391  60.5623741  39.5716057  44.8898430
  79.0395813  67.9477081  60.1551056  78.2875519  67.8160629  59.5777359
  79.1558685  67.1044998  60.5929642  59.0509682  65.2794113   9.8588753
  58.1434784  65.5335846  10.0264864  59.5610619  66.0626984  10.0650358
  55.4882431  18.8042812  63.0418396  56.2118607  19.4172459  63.1717911
  55.1364403  18.6593609  63.9201698  79.8484955  52.1176949  46.7351494
  80.6442947  51.9901352  46.2187653  79.6393356  51.2464790  47.0720024
  81.5639801  58.6088486   6.0688972  80.8776550  59.2700081   5.9791050
  81.1306381  57.7830009   5.8534303  74.8139648  16.1353989  43.9214516
  75.2211533  16.9638309  44.1746902  75.4589310  15.4691086  44.1587486
   0.9979256  18.5733223  30.6457405   1.5863509  18.4315548  31.3872871
   1.5811691  18.6827774  29.8946896  54.1872253  57.7289276  11.9436016
  55.0102425  57.6321068  11.4645395  54.4388542  57.6741943  12.8655128
  32.1561356  52.3237724  67.6478271  31.6170845  52.3694763  66.8581619
  32.2552185  53.2351189  67.9232635  32.6307297  68.5854797  52.0384140
  32.3046036  67.7438049  52.3569450  32.6636086  68.4850845  51.0870590
  10.1901331  16.1673088  65.5541534  10.8786592  16.2309952  66.2160492
   9.4375153  16.6083145  65.9482498  70.3846970  33.6846848  31.5953922
  70.2341309  32.8172226  31.2198009  71.3369141  33.7822189  31.5987949
  15.9592209   6.8557734  61.7421837  16.4652538   7.6093736  61.4384537
  16.5765591   6.3500404  62.2707253  63.5799332  25.4565697  33.1961784
  63.1739159  24.8383160  33.8037529  64.1993942  24.9270992  32.6940231
  39.9942284  51.7018967  76.3783340  40.1621590  50.7849007  76.1612015
  40.7509995  51.9666824  76.9012299  85.4988098  62.8457298  68.6094666
  85.9879532  62.1500626  69.0488052  85.1654434  62.4365692  67.8109131
   3.1106288  54.7577248  33.2727966   2.8018577  55.6552658  33.3965416
   2.6086826  54.2425385  33.9043541  62.0169716   2.5346682  15.9577837
  62.4498940   2.5576096  16.8111801  61.6792564   3.4220772  15.8366032
  74.5060043  48.9349823  62.1302147  73.7924118  48.3489609  61.8780289
  75.1641235  48.8197784  61.4447670  22.4241753  30.8628445  57.9960289
  22.7808743  30.1925526  58.5788727  22.1693153  31.5771027  58.5800781
  60.2534828  67.8873596  51.5862808  60.6406670  67.1963120  51.0489044
  59.7942429  68.4480438  50.9610062   4.4479556   0.9193281  86.2563553
   3.8748236   0.5653167  86.9363785   4.3427930   1.8682829  86.3246002
  23.1749897  67.1508331  62.5045166  22.2227917  67.2377853  62.5491142
  23.4421291  67.7821960  61.8364983  34.8349266  59.0921478   9.0631599
  34.9551735  58.5717010   9.8574562  34.1675262  58.6194267   8.5658216
  65.3171234   8.2551861  46.5023460  65.8481598   8.8847761  46.0146523
  65.5349274   8.4182177  47.4200668  47.5895004  39.6713982  46.2307549
  47.4994812  40.4494514  45.6805191  47.4157066  38.9387207  45.6398163
  77.0839386  53.5851212  71.9774017  76.5303802  53.1366997  71.3380814
  77.9732437  53.3023415  71.7643433  78.7118149  18.0976830  58.5316544
  78.4107666  17.8298187  57.6634102  78.8975830  19.0324783  58.4428978
  68.5162201  18.8124695  80.2119980  69.1533890  19.5259953  80.1785355
  69.0142136  18.0616131  80.5351868  69.9603806  60.3937149  31.5647564
  69.6094666  61.2363739  31.2766247  70.5804367  60.6172066  32.2588844
   9.7329159  41.2347298   5.7181454  10.4704075  41.7391739   6.0614734
   9.0249557  41.8732872   5.6329107   3.2445133  17.5406628  53.8556824
   2.3659773  17.8727570  54.0403938   3.6867979  18.2658176  53.4143600
  37.4040260  36.5150948  87.2545547  36.5397797  36.8795700  87.0635834
  37.8695602  37.2231750  87.6996689  70.4052811  26.8684750  86.1692810
  69.5699921  27.1696548  85.8117676  71.0660858  27.3552647  85.6767273
  58.4582710  42.0791359  51.5512466  59.0256958  42.5333290  52.1741180
  58.9925117  41.9891167  50.7621269  17.2018204  55.7084579  29.7124405
  17.4881268  55.4684525  30.5937214  17.4279785  54.9510841  29.1725616
  47.5224228  50.8316536  39.7073746  47.7594147  50.0422516  39.2206383
  47.2167931  50.5078621  40.5547142  66.7627335  14.2517252  84.0924454
  66.3506470  14.0013828  84.9193344  67.6780548  14.4141798  84.3205338
  18.8026962   3.2583673  25.1517754  18.9911156   3.5642917  24.2645664
  17.8871803   2.9807808  25.1200352  84.0177078  51.1381912   9.3200617
  84.1966629  51.9040375   8.7744541  83.2372513  51.3773575   9.8199825
  77.5116653  32.7463722  57.2863884  78.2515717  32.9149284  56.7029877
  76.7486649  33.0638847  56.8034210  46.9681892  36.2828865  61.1167870
  46.1509094  36.1819878  60.6288261  46.7083092  36.7082977  61.9339294
  58.2794380  26.6003265  87.8767929  57.7857513  26.0140991  88.4502335
  58.8666229  27.0735512  88.4662857  26.2193871  40.2962036   7.1493816
  25.6653576  39.6274948   7.5520134  25.8171368  40.4585571   6.2961130
  41.2029419  24.4242191   5.0209036  41.8237686  24.6476402   4.3274436
  41.3864517  25.0534210   5.7185154  82.1736603  19.3540535  66.9429016
  81.3426056  18.8914242  67.0504303  81.9387970  20.2810783  66.9840622
  51.6059265  45.1976776   7.3338280  51.5095367  44.6739845   8.1292448
  52.1924171  45.9108200   7.5861959  33.8939400  54.5940552  14.1485348
  34.3025017  53.7437668  14.3107777  33.0655785  54.5569000  14.6267281
  78.5633698  24.0947037  72.0464935  79.3622208  23.5717258  71.9789963
  77.8600388  23.4888802  71.8129425  70.2736435  63.5461197  86.2629547
  69.7838745  63.1533012  85.5404282  69.7294083  64.2791061  86.5506592
   4.1320081  69.1693497  75.5330124   3.4135160  68.7163925  75.9744110
   4.7991972  68.4946136  75.4072342  52.8009872   3.9772327  29.0374317
  52.8244057   3.4468546  29.8339138  52.0573997   4.5665693  29.1638966
  14.1644802  25.6106853   8.1004639  14.8439903  25.1787796   7.5828195
  14.6325026  26.2807713   8.5986309  44.4455643   3.8873055  18.1632862
  43.7369728   4.5079050  17.9930363  44.8522072   4.2035103  18.9700623
  21.5876770  65.8786545  21.2848492  22.1038094  65.7184906  22.0749035
  20.9385719  65.1752167  21.2761135  81.9137039  40.5715866  38.1079521
  81.0717545  40.9802170  38.3088722  82.5648193  41.2182198  38.3802528
  54.4702911   7.3362327  49.0679817  54.0330505   6.8664880  48.3577766
  54.3298302   6.7879443  49.8399162  24.0404415   3.5967627  23.1156254
  24.5205879   2.7700326  23.1626339  23.4030972   3.4640174  22.4139118
  12.1104574  50.0578232  66.7636490  12.1548100  49.3456383  66.1256409
  11.3277264  49.8677216  67.2807770  68.0180359  65.2122116  11.5623407
  68.6508942  64.9319000  10.9011707  67.9846420  66.1646729  11.4733171
  43.3063240  14.1908875   8.4410181  43.2979774  14.7638683   9.2077351
  43.8181496  13.4302111   8.7160406  50.5722656  52.7915459   0.4478082
  50.5158386  53.2172852   1.3032576  49.8847923  53.2073669  -0.0724841
  55.7762756  58.7252350  42.8351669  55.3075066  59.4913979  42.5042839
  56.6488037  59.0535889  43.0522194  13.3977165   0.3377877  56.7672844
  12.8058786   1.0585151  56.9829521  12.9560480  -0.4429561  57.1013489
  11.6231842  59.2307472  29.6328812  11.0620251  58.7080460  29.0600662
  11.9410152  58.6098137  30.2883625  32.3601379  49.3846893  33.4372482
  33.2910843  49.3042603  33.6448479  31.9120522  49.0264473  34.2034836
  26.3322830  40.3597908  40.9005203  25.6258411  39.7157936  40.9499321
  27.0075035  40.0201569  41.4878502  44.7590408  50.9666672  81.8654327
  44.6352539  51.0683899  82.8091354  45.6946754  51.1158028  81.7291489
  68.2675552  15.4941998  30.0736542  68.0700760  14.6053009  29.7785397
  69.1107941  15.4166164  30.5199280  50.6680489  11.6937466   2.5977616
  51.1153755  10.9146099   2.2674932  49.7439079  11.5409679   2.4006588
   5.7686439  32.5458298  71.5771561   6.1423960  31.6650105  71.6035538
   4.9208903  32.4594574  72.0131378  59.5724945  49.6507645  46.8110313
  60.4990845  49.4440727  46.9332771  59.5333900  50.0788078  45.9557648
  18.6926727  62.4524689  47.7837219  18.5474987  63.1267281  47.1199989
  17.8914165  62.4554024  48.3073730  34.6923790  30.8860703  67.1077423
  33.7919312  30.6953182  67.3704987  35.0140533  30.0629482  66.7400131
  50.8707504  41.0207481  16.3380680  50.2130394  41.1035576  15.6475697
  51.0881004  40.0886459  16.3512783   7.1234355  57.1414146  85.8429642
   6.7274132  56.2727280  85.7738266   6.5312366  57.6297951  86.4148178
  22.5176334  10.0973415  59.7977867  22.0844803  10.9423771  59.9183044
  22.3806782   9.6376953  60.6261597  34.2533417  57.4102554  14.6036301
  34.1312943  57.5676613  13.6673832  34.4166565  56.4693604  14.6690245
  39.4304314  31.3892059  58.3398361  39.2035370  32.2208214  57.9237061
  40.1311340  31.6114712  58.9528961  84.0191116  58.5161285  68.9013062
  83.2342529  59.0610847  68.9582367  83.8790283  57.8259468  69.5495758
  51.8258705   1.6953363  66.0944519  51.3326797   2.1189973  65.3919525
  52.7435188   1.8297210  65.8576050  19.2631416  18.0878582  82.9682922
  19.4942093  17.5724163  82.1955338  19.0258427  18.9475269  82.6206055
  34.4763451  57.3353310  19.1813507  35.1207657  57.9787254  18.8863945
  34.9708519  56.7437134  19.7485218   6.4862781  43.8374290   1.4990518
   7.2423143  44.1009941   2.0236230   6.3083487  42.9370384   1.7708391
  61.0869064  29.1508045  60.6337776  61.6300278  29.2384968  61.4170799
  60.6109047  28.3304615  60.7629814  29.1349201  66.0180511  68.3196564
  28.7327461  66.6657028  67.7408371  28.6089706  66.0515976  69.1187134
  78.9010696   4.5339584  61.6816902  79.2193298   4.6581526  62.5758476
  79.6190567   4.0888515  61.2315636  26.9543037   8.5383711  39.7573013
  27.2387829   9.4205236  39.5183258  26.4101200   8.6645412  40.5345879
  79.8472900  16.6813240  10.4005671  79.3570480  17.3476162   9.9189510
  80.1088028  17.1162853  11.2121401  79.6613235  54.3801651  67.8398438
  79.5440903  53.5353432  67.4053726  80.5108948  54.6933174  67.5293503
  67.8537598  32.0242729  34.9031029  68.2422714  32.3567047  35.7122879
  68.5301056  31.4614429  34.5262680  77.3661880   6.5359135  40.0325623
  77.5114975   5.6794224  40.4344864  76.8685684   6.3459525  39.2372513
  18.0330658  39.6502037  31.1492596  18.9631615  39.8737183  31.1147003
  17.5838795  40.4525452  30.8833504  31.5786324  24.0936413  88.8315430
  31.3132935  23.1752205  88.7832794  31.1601868  24.5039291  88.0747070
  65.2165756  51.3395157  20.7008667  65.4711227  52.1520576  21.1381474
  65.1665573  50.6937447  21.4056454  44.5444946  50.9227180  77.8857040
  43.5895195  50.8597107  77.8688126  44.8259544  50.1599388  78.3908615
   0.1595708  35.3720589   0.5100365  -0.5562125  35.8329315   0.9476244
   0.5334921  34.8105774   1.1891179  45.2001343  58.9883957  37.2453575
  45.5423164  59.1890869  38.1164856  45.9309540  59.1677742  36.6537857
  43.3651428  65.2639999  73.6181641  43.7941971  66.1109543  73.4964752
  42.4853020  65.4831009  73.9249344  64.0318146  35.6684189  70.1902313
  64.6499481  36.1018410  69.6017685  63.1871948  35.7403908  69.7456284
  13.2718582   4.3070083  30.0409737  12.8205147   4.7410021  29.3169765
  13.6895952   5.0197330  30.5244503  80.1861038  20.3272572  13.2955265
  79.9212265  21.0549488  12.7329140  80.4065552  20.7385902  14.1312542
  10.6523075  59.5528831  41.3404770  10.8789701  58.8487625  40.7329636
  10.1335783  60.1634369  40.8166695  70.2855911  28.3216076  41.5638733
  69.5809860  28.4000454  40.9207497  69.8349075  28.1918945  42.3983116
   4.1722856  47.5278664  79.9928360   4.6184273  46.6867485  80.0913773
   4.8662691  48.1799202  80.0900345  36.3712006  45.7070465  63.6147346
  37.2219658  46.1456528  63.6072807  36.5725937  44.7974358  63.8344727
   8.0994205  18.3452892  16.0694370   8.7022610  18.0726929  15.3776951
   7.2853689  18.5516300  15.6101170  62.2868538  11.1303005  50.2925110
  62.7193909  11.0139637  49.4465752  62.7968407  11.8116493  50.7305870
  68.1009903  56.5480194  55.1232910  68.2383957  57.1444588  55.8592300
  67.6736069  55.7841301  55.5106544  84.8587189  24.5071430  44.6066093
  84.1806717  24.8958607  44.0539970  85.6793060  24.7106781  44.1577911
  83.5871124  53.2823563  30.8707008  83.7428970  53.9348602  31.5534878
  83.7990036  53.7347832  30.0542202  20.2041149  42.6707115  71.1180954
  20.0279427  42.6744347  72.0589371  19.7570324  41.8889351  70.7938004
  32.3343735  41.3723145  75.8344345  33.1779976  40.9249611  75.9007950
  31.7991982  40.9776955  76.5229874  19.8001804  49.0766487  30.0445518
  19.5074005  48.2790070  30.4853230  19.4021320  49.7876930  30.5467548
  52.8005219  15.6398020  57.4627724  52.8541527  16.5928936  57.5332909
  53.2971077  15.4298334  56.6718597  43.6056900  40.6429367  61.7664337
  44.1628647  41.3684158  61.4845314  43.7713013  39.9509392  61.1261673
   5.6772733  23.2998066  30.0817661   5.2082214  22.5184460  29.7890205
   5.3235350  24.0074482  29.5429287   7.8205194  65.6036301  51.8281212
   7.3102937  65.5403442  52.6355209   8.7002316  65.3209076  52.0779305
  81.0521698  66.0912628  10.2704287  81.8853455  66.5581131  10.3344240
  81.2819824  65.2416077   9.8942699   0.7305371  42.7745972  63.5486221
   1.3261011  42.8770103  64.2909470   1.3043522  42.7493057  62.7829018
  44.8051834  26.5487289  21.3221283  45.4435349  25.8988228  21.0282574
  44.5162277  26.2308826  22.1775303  64.2532501  15.4675970  83.7907639
  63.9432983  14.5707178  83.9163437  65.1998062  15.3803501  83.6782913
  73.7928696  27.3386955  45.5810089  73.4414978  27.9126987  44.9003563
  74.7394867  27.4759979  45.5449486  60.8292999  37.3163528   2.9929988
  60.3158226  37.5633316   3.7621381  60.4447403  37.8208656   2.2761898
  85.8975067  49.9068642  45.0509300  85.2397003  50.1790543  45.6907959
  85.8017426  50.5287819  44.3296280   8.0588217  32.0546608  26.5183392
   7.6544747  31.9147987  27.3745956   8.4816141  31.2205601  26.3140030
  64.5493546  65.8884277  19.0574570  63.9121590  65.2362671  18.7660751
  65.0737839  65.4332275  19.7162380   6.1626592  52.3398247  27.6521015
   6.0540624  53.2814560  27.5187874   6.3361607  51.9924927  26.7771778
  60.9880638  35.6806030   7.9052835  61.0177002  34.8379478   8.3583632
  60.7402000  35.4610634   7.0071774  35.7175713  19.1529617  69.5153122
  35.1093712  19.4729328  70.1816025  35.9779778  19.9372520  69.0322876
   0.4052081  22.9985046  42.0342903   1.3476571  23.0523129  41.8757782
   0.1955126  23.8038521  42.5072327  47.4498100  34.5665131  69.8421402
  47.0227776  34.3452301  70.6697311  47.5865211  35.5127563  69.8886719
  70.9825668  17.8916969  64.5325317  71.4324799  18.4475346  63.8962440
  70.2362137  18.4159031  64.8230286  53.4260826  54.4126625  71.6062698
  54.2834511  54.1406746  71.9336472  53.2767754  53.8608475  70.8385239
  47.0933838  39.4630928  70.1067886  47.1462517  39.8321991  70.9883804
  47.1224174  40.2237892  69.5265045  38.5978813  37.6905861  13.8269196
  39.2169762  36.9623070  13.7763166  38.2281570  37.6298866  14.7077446
  20.4057159  55.6528053  67.5521088  20.5713997  56.3549919  66.9230499
  21.2384892  55.1848946  67.6135941  75.0279999  71.1175537   6.6873183
  74.9999313  71.1952972   7.6409431  75.8995361  70.7683334   6.5010338
  79.4860077  59.8732452   0.5732495  80.0286560  59.4575310   1.2432804
  79.9630432  59.7299843  -0.2441497  75.4638138   4.2679849  59.8525810
  75.5895767   3.5452285  60.4674301  75.9640045   4.9922338  60.2287598
  11.6933355  15.4174833  88.7412491  11.6197186  15.8595257  87.8954315
  11.4457664  16.0839500  89.3821564  63.5028763  18.7756672  29.8697720
  64.1982193  18.1298370  29.7447395  62.7127113  18.2532558  30.0074444
  38.6755295   4.7319226  46.4805183  38.0023117   4.3298192  47.0294495
  39.4996758   4.5217443  46.9196548  72.9729996  10.3107395  73.3191147
  73.5371475   9.6504402  73.7215729  73.5801620  10.9569778  72.9586182
  82.6921616  35.8129387  21.1670265  82.5827103  35.1443291  21.8432045
  82.9990616  36.5855026  21.6415672  14.7761164  55.8967209  30.9265995
  15.5595102  55.8729210  30.3770905  14.6472960  54.9883347  31.1994972
   3.8537726  35.5202179  32.7119637   3.2038882  35.7389259  32.0440941
   4.6013641  36.0836601  32.5122833  57.4361191  28.1024017  19.6953259
  56.7949715  27.4835339  20.0448513  57.9929886  28.3183842  20.4433079
  43.4445190  52.8597870  61.5159721  43.4157944  53.3859634  60.7168808
  43.4490585  53.5020981  62.2256508   9.9369135  25.4202576  86.2197342
   9.7245893  24.7025642  86.8164444   9.2410879  26.0623760  86.3602448
  82.4603424  13.4533167  12.2233706  82.0606613  13.8273554  13.0085993
  83.2547913  13.9702005  12.0895643  63.4589882  71.0294266  66.9754562
  64.1364899  70.4401932  66.6437607  63.9143105  71.5867920  67.6065292
  36.0010834   8.7563295  45.9468765  36.2514534   8.8767452  45.0308800
  35.0914955   9.0516958  45.9873695  50.9932518   9.6001825  24.6190338
  51.6180000   9.6961260  23.9002018  50.4450798   8.8585892  24.3625622
  58.8119507  21.8621902  77.7136230  59.6013718  22.2010899  77.2914886
  58.1051254  22.4130001  77.3771057  59.6230812   9.6566133  24.5676804
  60.5446472   9.6678638  24.8261833  59.3543892   8.7445946  24.6783905
  74.4634399  55.8696251  52.8684196  74.0818481  56.5676041  52.3360252
  74.9741974  55.3481102  52.2492447  69.8383713   9.8701172  84.1542664
  70.3707886  10.6606092  84.2430954  69.9413986   9.6136808  83.2378311
  48.1593132  28.9347115  75.7288666  49.0032997  28.5903282  75.4367752
  47.7030182  29.1679058  74.9203796  29.8790150   4.5027704  71.5264435
  29.8613682   4.1856670  72.4294205  30.7559643   4.2824860  71.2123260
  56.3932762   7.1175694  39.0778503  57.1123466   7.7289109  39.2373238
  55.9962578   7.4223704  38.2619400  63.5129395  21.8467236  62.3110046
  62.7194138  21.7693977  62.8406906  63.8074532  20.9443493  62.1876564
  47.2874794  22.0499916   5.2543988  47.4557648  22.1181049   4.3145733
  47.9044609  21.3853283   5.5606456  50.3320808   7.2238684  27.6611519
  49.6238976   7.3320608  27.0263271  49.9203339   6.7881136  28.4073524
  37.5492516  53.6758995  73.2635803  37.7542534  52.7618637  73.4604034
  36.8316193  53.8938446  73.8583374  86.1916046  36.1143990  48.6719818
  86.9153214  35.7043762  49.1456299  86.4824142  37.0139923  48.5223465
  27.5832710  41.0826416   9.3442144  26.9613552  41.0269699   8.6187124
  27.7767563  40.1713982   9.5642824  41.1594315  38.4718742   0.5552502
  40.9502068  37.6468163   0.9931287  41.9133110  38.2653542   0.0027617
  57.1029892  68.2081146   7.7983227  58.0238037  68.3685379   7.5919223
  56.7039719  67.9867477   6.9568887  74.8583755  61.0993996  46.8897934
  74.5562668  61.8568649  47.3909988  74.4146042  61.1784744  46.0453720
  55.6152992  56.8762321   6.8007369  56.0841637  56.1621323   6.3689303
  56.1661339  57.6457748   6.6571479  16.6734390   1.8033395  23.6506119
  16.2130661   2.4456649  24.1907120  16.2676983   1.8816129  22.7871990
  17.7971611  21.3748169  86.3765335  18.4530106  21.3078747  85.6825485
  16.9632912  21.4460316  85.9119720  23.7971935  16.8075962  15.2535925
  24.0034218  16.3364029  16.0608597  24.5505638  16.6492825  14.6847315
   3.0330818  60.2065048  36.9997635   3.8619485  59.8927307  37.3613701
   3.0337505  59.8956108  36.0944595   3.5716739  14.4814072  86.5256195
   3.2044938  13.7565517  87.0315781   4.0564237  15.0002203  87.1675568
  47.9609261  50.7288170  70.5187149  48.8279190  51.0227814  70.7982483
  47.9058342  50.9864807  69.5984879  19.4618187  36.3973923   6.1926637
  18.7524776  35.9311562   5.7502961  20.2613220  35.9981003   5.8497486
  37.1619759  24.6547222  69.9378967  37.3980904  23.7318764  69.8438873
  37.0203857  24.9582615  69.0412064  30.2346096  19.0843887  87.0441132
  30.8807049  18.4051056  87.2374191  30.7114868  19.9069405  87.1547012
  11.0973101  62.1951828  19.5166969  11.3831549  62.9952354  19.9576530
  10.1415014  62.2463264  19.5235806  16.9523869  66.8325806  23.8616543
  16.6278629  67.5658112  24.3844261  17.7035599  66.5014191  24.3538971
  51.6009789  64.0320511  50.9900627  50.8634453  63.4306183  51.0927925
  52.3740730  63.4678535  51.0056038  75.1481094  38.5076103  41.4587746
  74.5722351  38.1013794  42.1065178  74.6561050  38.4622154  40.6389542
  68.0333557  46.7246933  50.7194443  67.4938583  46.3135338  51.3948174
  68.8834152  46.8565140  51.1392708  27.0071735  53.1285744   0.8655282
  26.8121777  52.3249588   1.3476187  27.9476604  53.0824585   0.6935124
  38.5689774  43.9860611  82.7524719  38.5338593  44.8516159  83.1596756
  39.3332100  43.5663643  83.1474838  64.7928238  15.1765738  53.1214561
  64.4398880  16.0464382  53.3085480  64.0380402  14.5919504  53.1903534
  80.5223007   7.2230544  18.1959820  79.5865860   7.1239514  18.0203285
  80.9291077   7.2310514  17.3295670  58.2137871  12.1436291  37.7822914
  58.3648758  12.8172913  37.1192780  57.9324722  11.3761749  37.2841873
   5.8459272  56.5162811  76.7419968   6.3072348  57.3244247  76.9663467
   6.5414672  55.8716316  76.6120682  85.4512405   4.6398349  55.1587029
  84.9115219   3.9461448  54.7795830  85.3114548   4.5632524  56.1025429
   3.9273722  21.5857067  74.0318298   4.1041417  21.0043564  74.7714386
   4.4617152  22.3610802  74.2036057  43.0833702  48.4466858   4.0761819
  43.5784378  48.0262032   3.3730931  43.0107956  49.3615112   3.8040431
  74.1749725  41.3699913  27.5571938  74.5030289  40.5656052  27.9591579
  73.4399185  41.0841599  27.0147667  11.0926352   2.7411847  80.8785782
  10.7802734   1.9364948  81.2922668  10.9539518   3.4196484  81.5393982
  56.3605499  20.3542156  76.3341446  56.1872177  19.6446228  75.7155457
  55.9871597  21.1312084  75.9180984   9.7093649  56.5372696  46.5150528
  10.1138210  57.3468742  46.8268051   8.8384790  56.5362053  46.9122810
  59.2666893  51.6946220  84.9161987  58.8234062  52.0651855  84.1530380
  58.7464027  51.9912949  85.6628723  42.9923325  71.2639694  16.1410694
  43.1276588  70.4355850  15.6809626  42.5330544  71.8168259  15.5088940
  86.0767288  11.4933624  10.2165966  85.7145081  11.0895147  11.0052252
  85.7965546  10.9196749   9.5034237  81.7565536  15.3288155   6.7360563
  81.6939697  15.7088661   5.8597708  82.6796188  15.0934134   6.8296618
  49.6386757  52.3477440  37.2640724  48.7306480  52.1028404  37.0859261
  50.1522865  51.5977936  36.9640465  34.0641899  32.4350395   7.3073339
  34.7600708  32.9852753   6.9478588  33.4851379  33.0472870   7.7612982
  82.0454483  62.5741806  21.6430492  81.8787918  63.2258263  22.3240891
  82.0934525  63.0814819  20.8327579  19.5770969  56.1889420  84.1169128
  19.5137939  56.9310837  83.5157089  18.6865025  56.0719910  84.4476624
  64.7949448  29.9009876  63.6767082  63.9146690  29.6667137  63.3826637
  65.1904297  30.3392849  62.9232330  71.3255997   7.8990793  39.5129852
  71.4726562   7.5553484  40.3941498  72.1520386   7.7456951  39.0550499
  37.3784523  40.3184547  70.8175507  37.9099426  40.5547256  71.5777588
  37.9822960  39.8536682  70.2382584  77.5404205  29.0012703  32.9205360
  77.6736832  29.3357449  32.0336304  78.1804962  29.4732704  33.4532127
  31.7875061  43.9486160  55.6606979  30.9944000  43.4671593  55.4252892
  32.2277489  44.1078110  54.8257866  49.1454735   2.3015466  12.5316057
  48.8969612   2.9299898  13.2094936  48.8945312   1.4503913  12.8904829
  37.1605453  68.6107178  24.8544960  36.2262917  68.5036621  24.6757812
  37.5079041  67.7187653  24.8557663   5.7737556  42.5874939  51.1596260
   5.6587782  42.0062218  51.9113808   5.7145782  42.0096588  50.3988113
   2.5723946  25.9818611  82.0603790   1.6541513  25.8529167  81.8228226
   2.5576358  26.1201763  83.0074158   9.1208153  26.6164188  27.8152294
  10.0069189  26.8687248  28.0748310   8.9502239  27.1235332  27.0215263
  26.1493359  50.3077965  88.1479111  25.3755474  50.3584099  88.7090912
  26.5764675  49.4897652  88.4021149  14.4333134  38.2498131  37.5140419
  13.6718769  37.6713257  37.5564651  14.5956802  38.3637314  36.5776176
  64.2859573  47.2233849  23.8915081  63.9874153  47.1867485  24.8002243
  64.8951721  46.4896164  23.8097801  33.2564011  57.8551559   5.3648663
  32.5261459  57.5953255   4.8032174  33.8835678  58.2640457   4.7684565
  28.2644215  71.2603836  75.0247269  28.0704956  72.1889343  74.8966217
  28.5715580  70.9596329  74.1694794  75.8220291  34.5044365  47.1513100
  76.4434204  34.5062943  46.4232292  75.1343307  35.1128235  46.8808212
  56.1345940  15.2932701  30.4593391  56.2684479  14.4448118  30.0369244
  55.1854744  15.3624582  30.5623608  81.2325363  28.3778610  37.3727798
  81.2203217  27.7066479  38.0550957  80.7402039  29.1085835  37.7467918
  29.2893600  27.2224884   6.7867150  28.7553253  28.0167713   6.7743845
  30.1774483  27.5280857   6.6019349  83.1619186  14.7848949  62.8634033
  83.0565262  15.4927130  62.2276993  83.8682556  14.2460957  62.5070152
  86.2929306  46.8767967  27.2017689  85.3467407  46.9985390  27.1233788
  86.6133423  46.9033966  26.3001823   1.5730449   3.1366816  56.2831268
   0.9106498   3.3437984  55.6239090   1.5653758   3.8889480  56.8749619
  73.2251129  25.2402325  57.2694359  73.3684006  26.0747070  57.7159271
  74.0663147  24.7877560  57.3316727   2.3552701   5.4576426  52.0517807
   1.9575328   4.6999631  52.4806862   2.6542037   5.1243744  51.2057304
  40.8640823  56.8994980  67.8867035  40.6447868  56.9067345  66.9549866
  40.9547653  57.8237457  68.1185989  75.6954117  35.9819221  73.7506866
  76.3025513  35.2546234  73.8872528  74.8595505  35.6633492  74.0913849
  42.7908783  15.3969469  20.0520496  42.9326439  14.8874979  20.8499184
  43.4727898  16.0683784  20.0722637  59.4813652  59.8752441  24.9203300
  59.0163193  60.2293167  25.6783504  60.3728981  59.7253418  25.2348595
  85.8129883  10.3755093  26.8677807  86.7639542  10.4442625  26.9524517
  85.4837494  10.4984398  27.7581291  65.8135681  12.9189596  49.8575020
  65.1363678  12.8412466  50.5295105  66.6364517  12.8003674  50.3318710
  64.7691879  50.8387299   8.8674755  64.2494812  50.0820084   9.1385956
  64.1306534  51.5450172   8.7691612  36.6416359  43.8351860  74.2337875
  36.4469185  43.2481499  73.5032349  36.4264565  44.7076073  73.9039230
  43.1708031  57.3463593  25.4438934  43.4823456  56.4420280  25.4807510
  42.2403336  57.2881699  25.6608448  79.5344238  54.8882980  14.2000389
  80.0659485  55.6788292  14.2936878  79.1390152  54.9669952  13.3318863
  24.4590626  44.6024857  11.9413052  25.3898697  44.4630051  11.7670212
  24.0512867  44.6069832  11.0753202  27.6856689  17.6971245   5.0871868
  27.2922592  17.3123016   5.8703675  28.1542053  18.4675446   5.4083676
  51.3487358  26.5958099  50.1608734  50.5616341  26.0590267  50.0683060
  51.0451241  27.4924946  50.0194283  18.4153156  68.5172577  36.8462181
  17.5777378  68.1402206  36.5768852  18.2023048  69.4139862  37.1045418
  80.9571533  42.8301277  40.5584068  81.7505341  42.2957878  40.5938110
  80.2401657  42.1969070  40.5930023  15.2264500  61.9887962  35.6826591
  14.9910707  61.8989449  36.6061058  16.0657673  61.5353394  35.6042061
  39.0840530  41.2151070  33.8663864  39.9136848  41.5948601  33.5770264
  38.4977226  41.9655800  33.9625130  50.4334641  47.0715446  65.4485016
  51.2988129  46.7667503  65.1755524  49.8257713  46.6291313  64.8558731
   3.4407599  45.3388443  48.7481995   2.8784430  44.9341202  48.0877228
   3.4541976  44.7096558  49.4694290  75.3746872  33.1833000   1.1647160
  75.3246460  34.0635796   0.7921106  74.8172607  32.6509438   0.5971755
  30.1389523  49.6636353  21.0936890  30.4992733  50.4298782  20.6472931
  30.7850456  49.4534111  21.7679310  59.1827965  30.2431564  71.5519714
  59.8010216  29.5825119  71.8643494  58.6166916  30.4161053  72.3041992
  48.3397064  66.5623550  40.5614777  48.9749947  66.7142181  39.8617783
  48.8497810  66.6355515  41.3681374  38.5885277  52.4088249  34.4581566
  39.3143806  52.9449921  34.7773552  39.0109444  51.6623192  34.0332718
  80.3978043  34.6400528  58.6685944  81.1383591  34.2221146  58.2291183
  80.0013885  35.1936378  57.9958153  60.2365379  52.5894508  24.4087563
  59.7730064  53.3643494  24.0911045  59.8581047  51.8637505  23.9123898
  56.1315269  41.5602951   4.3465786  57.0397148  41.3899307   4.0967774
  55.7817001  40.7001839   4.5790973  70.7614746  35.4261513  84.0610962
  70.8498077  34.5446434  83.6986389  70.4592133  35.2869148  84.9585800
  38.7030296  47.9568253  52.9201012  39.2375412  48.1609535  52.1527328
  39.3107109  47.5406189  53.5314331  66.5023651  29.3767586  80.1208267
  65.7802887  29.7329693  79.6031799  66.2455063  28.4721470  80.2995224
  33.1993294   5.8040323  71.7470093  33.9204979   5.1839366  71.8548508
  32.6993217   5.7336669  72.5601959  12.9274454   7.3095250  62.6062279
  12.7092600   6.4228039  62.3192558  12.0973759   7.6722178  62.9155350
  43.9499359   0.4389366  47.7538872  43.1697731   0.8270289  47.3577080
  44.6686478   1.0044315  47.4712181  28.7709446  68.5208664  25.6173210
  29.3464565  69.2856674  25.6074181  27.8874302  68.8852539  25.5638733
  15.3322372  52.6761246  28.8583794  15.8422565  52.6297989  28.0496960
  15.5051041  51.8439140  29.2985744  16.3638821  15.7343321  21.7129898
  15.8516626  15.0841532  22.1937485  17.0589504  15.2282667  21.2922649
  12.9333668  46.1935768  60.1299629  13.8896923  46.2198067  60.1613731
  12.6612196  47.0767059  60.3794708  12.7676172  55.9650879  15.8299103
  11.8120480  55.9237061  15.8674154  12.9675846  56.9010506  15.8446398
  78.9745560  18.2617321  28.8979492  78.5233688  17.7790394  28.2053661
  79.4191513  17.5862598  29.4101086  70.9553299  68.7003174  75.4269028
  71.6936798  69.3027725  75.3367996  71.3557663  67.8651505  75.6685333
  80.4686584  60.7840843  41.8147316  80.3776703  59.8315582  41.7893639
  79.7778244  61.0749092  42.4100494   8.9970102  71.0485687  14.1777496
   8.3779163  71.2218399  14.8869257   8.9841642  71.8459930  13.6484251
  32.5784760  46.7564812  11.8571024  33.4845619  46.9186554  11.5945349
  32.6502190  46.2183609  12.6454611  37.7770996  62.4007187  78.8985825
  37.6606140  61.4771843  79.1216202  38.4839478  62.6981468  79.4714127
  39.7895012  65.7830276   8.0976534  39.7258759  66.2176514   7.2471924
  39.2096481  65.0250931   8.0232677  82.9517899  17.4629955  73.2320251
  83.2185135  18.1655617  72.6391602  82.0246429  17.6309452  73.4006271
  47.8650894   1.2914784  16.5229034  46.9373589   1.1177099  16.3636799
  48.0766106   2.0183160  15.9370737  77.9552841  15.6420574  71.3049698
  77.8192139  15.0050383  72.0063400  78.3506241  15.1359882  70.5951614
  83.1046906  41.2878227   5.8436303  82.8360062  40.3825569   6.0002546
  82.2840195  41.7796516   5.8147173   3.8905971  41.8529434  36.7140579
   3.5721047  41.2591019  36.0342407   3.5000389  42.6989975  36.4952202
  73.6946487  54.8897476   5.5350084  73.5937881  53.9819298   5.2487836
  73.4677582  55.4104195   4.7645183  27.9288673  47.9749603  54.0583839
  27.3563290  47.7125740  53.3375587  28.7048264  48.3351555  53.6289940
  44.6716156  41.1248856  15.1290550  45.4722481  41.0509605  15.6484327
  44.7928619  41.9227295  14.6142969   2.0109210   6.4010053   7.7434354
   2.3614073   5.7174072   7.1723971   1.9087882   5.9736471   8.5938272
  61.6929550  56.1333885  82.5810089  61.0870628  55.7459030  81.9493637
  61.6389275  55.5614510  83.3466492  62.8802109  49.3062401  41.7803574
  62.8455200  49.7138786  40.9149895  62.0585098  49.5626717  42.1990242
  86.4360580  25.9998970  21.9141598  87.0548019  26.4096146  22.5187435
  85.9086990  25.4223728  22.4660511  83.4983444  27.1855316  14.9981527
  83.9132538  26.5753689  15.6078892  82.7631836  27.5522385  15.4893780
  71.8781281   6.9438667  14.0423450  72.5940399   7.1762986  14.6336823
  71.0895996   7.0189466  14.5797710   0.2369822  62.9087982  47.2917595
   0.5378781  63.5622940  47.9231377   1.0369651  62.6018639  46.8650856
  59.4579010   0.4319515  69.7701721  59.6938171   0.4860775  70.6962662
  59.1939888   1.3222272  69.5378113  17.8971977  51.8437386  27.9579868
  17.6154709  51.8353653  28.8727493  18.8437538  51.7070160  27.9976292
  77.7487793   0.3969924  34.5294266  76.8041763   0.3343828  34.6710167
  78.0169983  -0.4941761  34.3055801  51.0867691  50.1212807  29.7937927
  51.1249580  50.5175705  30.6642685  50.8012695  49.2215500  29.9525547
  43.2030334  67.7580643  28.4447002  42.5877533  67.6785583  27.7157669
  42.7519455  68.3149567  29.0792255  30.4849873  26.1955509  86.5635529
  30.5277805  27.1167316  86.3069839  31.2076950  25.7816830  86.0917053
  66.1770020  46.1287880  10.1827250  66.8852005  46.6588364   9.8170233
  66.4712906  45.9137230  11.0678101  47.9044418  23.4619179  83.1771927
  48.0500984  24.3668003  82.9011383  47.4083519  23.0692806  82.4588852
  16.1806812  39.0976906  85.9005432  16.6214218  38.6232109  86.6054153
  15.3607664  39.3997917  86.2913208  54.2591438  11.1042576  44.3822174
  54.4600906  12.0160418  44.1712646  55.0844955  10.7466488  44.7095413
  55.8841171  63.7619705   3.7008359  56.5915718  63.9787560   4.3080807
  55.0848427  64.0073242   4.1668749   4.6094675  52.4790535  89.0086365
   4.7631993  53.3263741  88.5907288   5.4856668  52.1291199  89.1700516
  65.9672241  53.3148308  10.8270054  65.6275253  53.0990982  11.6955090
  65.3196335  52.9556198  10.2205162  55.7284660  71.1779099  37.2852821
  55.4628716  70.6034393  38.0033875  56.1190872  71.9371796  37.7178993
  17.6033421  32.7150192  71.9168930  18.1908779  33.4441566  71.7184219
  18.0670128  31.9403839  71.5988083  23.3981266  40.5260849  81.9761353
  22.8411961  40.7828293  82.7110825  23.5120316  39.5814362  82.0805054
  51.1807594  52.0404701  65.9853210  50.6759796  51.6501846  66.6988373
  51.4712830  51.2940331  65.4612427  24.5469341  64.6455307  82.7612534
  24.5408535  65.1741486  81.9632797  24.0333977  63.8691635  82.5381622
  44.8840408  70.1783905  87.1590958  45.2633591  69.2995529  87.1590195
  44.7108345  70.3644180  88.0819321   3.5644948  32.0699081  75.4631119
   2.9995737  31.4362564  75.9053574   4.0088286  32.5317802  76.1740799
  31.8960705  62.6348267  53.7815704  32.5668144  63.2702484  53.5314255
  32.3872223  61.9010773  54.1511841  31.4366722  57.2277489  39.2823296
  30.8779278  56.4867249  39.0479774  30.8775482  57.7887306  39.8198318
  26.8719730   0.2048600  42.0127296  26.5117798   0.9695300  41.5635414
  27.5225906  -0.1457933  41.4044800  41.9033852   7.0066328  61.3471260
  42.6586189   7.5916748  61.4069443  41.6430244   7.0449634  60.4268150
   8.7583771  31.8748684  31.8642616   8.8455038  32.5623398  31.2039413
   9.3154192  31.1646786  31.5455627  29.8978806  43.7252541  74.7818985
  30.6842709  44.1011658  75.1775208  30.2294827  43.1061859  74.1314926
  33.7611504  64.1321564  52.4527168  33.9643402  63.2818451  52.0629578
  34.5762329  64.6290054  52.3819160   9.7169914   6.3736191  67.7037735
   9.3565321   7.1369386  68.1550446  10.4997492   6.7036905  67.2626724
  67.9615479  28.2944393  30.0696335  68.0256348  27.7082462  29.3156433
  68.8634872  28.3910618  30.3752422  19.6751556  13.4381523  64.2504196
  19.8171387  13.7834768  65.1317978  18.7332268  13.2736168  64.2065048
  58.5252800  45.1249428  53.9921188  58.4211006  44.8452454  54.9015923
  57.6647224  44.9829063  53.5977783   8.1002111   4.7124395  73.2241898
   7.9286499   5.5143762  72.7305374   7.9286246   4.0063167  72.6011505
  51.7643433   7.6826215  54.4137459  52.1810188   6.8246503  54.3331223
  50.8343391   7.4873786  54.5286522  72.9001770  20.9696598  80.9611206
  73.5452652  20.7638149  81.6376648  72.4832153  20.1307602  80.7645798
  72.9134140  65.6861801  35.7544479  73.3325653  65.6465149  34.8948135
  72.0853882  65.2200775  35.6389122  66.7517929  42.5198212  85.2833862
  67.3495102  41.8035965  85.4978180  65.8851547  42.1861267  85.5153580
  50.8249702  45.1831932  32.4107475  50.3951149  45.9187317  32.8471375
  50.3840179  45.1162910  31.5638008  42.4125748  12.5955267  83.7558212
  42.7819901  11.8529263  84.2336426  41.6971931  12.9056377  84.3110657
  26.3599186  46.1798439  13.1430531  26.1635246  47.1164894  13.1619816
  26.1034336  45.8637886  14.0094004  30.0631256  44.4613647  58.8087349
  29.4078159  44.9150696  59.3387871  30.8809242  44.9241486  58.9911423
  63.3964424  37.7212067  34.8303833  63.1426506  37.2386093  35.6170998
  64.3313599  37.5418129  34.7305260  74.2842102  25.5800076  17.4693146
  73.5750809  26.2027283  17.3093319  75.0037537  26.1166344  17.8017559
  49.3750610   9.8595028  11.6289463  49.6400261   9.1465931  12.2101402
  49.7265434  10.6483145  12.0418224  42.5147705  55.5604477  10.1534252
  42.0663719  56.2001076   9.6002502  43.4445419  55.6954079   9.9702654
  71.6009293   7.4761353  48.3497620  72.4794388   7.1325517  48.1872902
  71.5431137   8.2563620  47.7982750  62.8582764   4.4679322  41.2343674
  62.4024963   3.7277696  41.6351891  63.3303871   4.8790751  41.9584579
  23.4178257  44.4084511  73.5225296  22.8594875  43.8521461  74.0656815
  23.9009476  43.7950668  72.9688263  25.4069633  38.9106102  74.6646576
  25.6316643  38.0050774  74.8785477  26.1137390  39.4297829  75.0482712
  35.4177742  28.3136444  66.8869934  36.2451782  28.7516251  67.0865250
  35.5768967  27.3935890  67.0977325  16.7461128  63.3014374  31.0939903
  17.2272243  63.7882767  31.7631321  16.8740292  62.3821907  31.3282051
  56.3167763  32.2975616  86.8600769  56.6418686  31.9064636  86.0491562
  56.3552895  33.2410316  86.7032089   7.5526457   3.8630726  80.1435318
   7.8902116   3.3058078  79.4422913   8.2496281   3.8711491  80.7995682
  62.0261230  44.0588150  34.7428818  62.4360199  44.9236641  34.7269516
  62.0552750  43.7968597  35.6630783  11.5751925  12.1881790  10.9874878
  11.9649458  12.4398975  10.1502523  10.7411499  12.6571140  11.0140400
   7.0223150   4.9424067  58.8141975   7.1094632   5.8954964  58.8302345
   6.1443462   4.7880087  58.4655380  67.2190018  47.8564377  22.1899681
  67.6956024  47.6674500  22.9982815  67.3214417  48.8001060  22.0665741
  28.0995922  60.0541573  77.7267609  27.6998119  59.6200142  78.4803696
  27.3609810  60.2830772  77.1625977  52.5065575  49.0469666  58.9222069
  52.7541847  49.1160583  58.0001793  51.7770462  48.4272842  58.9284973
   8.8275146  60.8090935  73.8845749   8.7477531  59.9221115  74.2354813
   8.2817907  61.3445091  74.4605560  11.9929676  34.5188904  76.2810516
  11.8943682  34.2873268  75.3575287  12.6618042  33.9175911  76.6086578
   9.7387428  63.1469688  35.8635445  10.6740961  63.1590843  35.6605682
   9.3542118  63.7816429  35.2589302  70.0324707  14.4218845   4.4330611
  69.9194641  13.9266462   5.2443566  70.8922729  14.1553869   4.1075625
  48.5451965  60.5893173  56.8868217  48.1170349  61.1813126  56.2683983
  49.0849876  61.1618385  57.4318733   5.5834727  35.2823486  38.5455132
   6.0649676  34.4690704  38.3939362   4.8810892  35.0362206  39.1474342
  81.5795593  26.2951508  11.3252869  82.4251633  26.2351151  11.7697935
  81.0342865  25.6382027  11.7580948  38.7371330  46.4855690   7.0184841
  38.4862595  46.3877373   7.9370289  39.2523918  47.2919235   6.9955034
  53.5324593  35.8968506  43.1850357  53.0580215  36.6132889  43.6067696
  54.3501053  35.8281517  43.6779556  74.2087326  47.6154976  16.5054283
  74.9235992  47.3987923  15.9068966  73.5587692  46.9277725  16.3611679
  64.8492966  19.2340164  42.4692650  65.5922012  19.1524982  41.8712082
  64.1170959  18.8375397  41.9971123   4.4373994   9.6720676  61.8365402
   4.5920844  10.6127920  61.7508545   4.4626484   9.5101051  62.7795982
  81.4127960  43.2275620  15.9932518  81.0285492  44.0859413  15.8150053
  80.6601486  42.6475563  16.1088009  74.6791916  22.0584564   3.5699658
  75.4241562  22.6462402   3.6955814  74.8754425  21.5935097   2.7566137
  20.1980782  67.9475021  76.3658600  20.3148937  67.5360031  77.2221603
  20.9048729  67.5886841  75.8292694  22.9019833  21.0857105  47.8638420
  22.9494629  20.2006626  48.2253227  23.8152790  21.3604107  47.7822304
  52.4691162  25.7408848  32.8244743  52.8137207  25.7400112  33.7174911
  51.9608307  26.5497742  32.7646828  76.1693573  67.3232269  28.2552090
  75.7885361  66.5144882  28.5974789  76.5665054  67.0673676  27.4227142
   1.3508132  26.1534309  73.7129517   2.1203201  26.3811646  74.2347107
   0.9443811  25.4292889  74.1890488  84.4063110   0.2482304  87.6122818
  83.5247879  -0.1224460  87.5705185  84.4132156   0.7591031  88.4217224
  68.2636795  47.1554413  24.5024357  68.9645767  47.7372017  24.7966042
  67.7643280  46.9618149  25.2957745  37.2984314  49.0398750  88.0786133
  37.3804398  48.9057198  89.0228119  36.3610497  48.9538231  87.9049911
  53.2626610  43.0866089   7.0796075  52.7954903  43.8858261   6.8362269
  53.5086212  43.2221832   7.9946780  52.5064240  55.1300354  82.1121674
  51.5924530  55.3605080  82.2788010  52.8918762  55.9270096  81.7481842
  59.6631317  35.9784126  72.8020554  60.2623253  36.7243614  72.7744293
  60.0286064  35.3542824  72.1750565  11.5478172  20.8938293  31.6269474
  11.6791935  21.8254375  31.4506550  10.8274841  20.6401234  31.0498981
   8.4886332  42.1999359  52.3085899   7.6881599  41.6756859  52.3338127
   8.9976158  41.8962517  53.0602188  26.0602455  53.6388817   4.0412946
  25.8398781  54.3676605   3.4611638  26.2267246  52.9043694   3.4505258
  82.4369812  18.1691017  78.5188141  82.1346664  17.2609005  78.5161743
  81.9455032  18.5871887  77.8117828  63.1712837  35.7486610  84.1597137
  64.0554504  35.3847198  84.2048035  63.2967415  36.6938438  84.2441025
   0.8004983  68.3486252  22.7114105   0.7847014  68.1429138  23.6461124
   1.4599369  69.0375061  22.6288891   4.2222571  40.7936897  56.7776947
   3.4470937  41.3552437  56.7744484   4.3807354  40.6095428  57.7035522
  83.9450150  42.4524841  85.3418808  84.3216400  43.3055229  85.5579987
  83.0024948  42.6122093  85.2931442  66.5130844   0.6348193  31.3948727
  67.1698303   1.2976900  31.1815186  66.9858322  -0.1959130  31.3436298
  12.1597252  16.3943348   3.6173995  11.8841934  16.7321987   2.7652488
  13.0267611  16.7750931   3.7570570  57.2961655  67.7920761  35.4085007
  58.1855164  67.7778091  35.0548325  56.9727135  68.6703644  35.2079430
  71.2979279  60.7802696  46.4790840  72.0870285  60.9896698  45.9793854
  70.6814423  60.4495697  45.8257675  74.2680283  44.4587440  62.5813599
  75.1833420  44.2687263  62.3756180  74.2410889  44.5004730  63.5372696
   6.7733250  46.6848145  76.5745926   7.7221818  46.7637634  76.4762573
   6.4684863  47.5851402  76.6873856  64.1493225  57.7573395  87.3039398
  63.2093544  57.9242516  87.2344208  64.2535324  56.8505554  87.0156403
  20.2822208  66.1529083  41.1443329  19.7640991  66.5913162  40.4693680
  20.2482414  66.7457047  41.8951149  75.4262619  21.9438610  36.2061539
  74.6012802  21.7975559  36.6690025  75.3023071  22.7781715  35.7536125
  57.3897820  18.7473888  14.0509338  57.4513550  17.8132133  13.8515453
  56.6038094  19.0395355  13.5892744   1.8910333  63.8090096  81.4270401
   0.9610154  63.9071579  81.2229233   2.2963324  64.6067886  81.0871735
  28.7514725  34.6327324  79.9977188  29.4653282  35.2398834  80.1926804
  28.5836201  34.1860352  80.8274918  63.2585869   0.2864757  74.1577606
  63.0806160   0.6659461  75.0183182  63.7888832   0.9458423  73.7102661
  32.8116264  33.2299309   9.6730537  33.7036285  33.0155640   9.9462032
  32.3742599  33.5058517  10.4785414  24.2164021  67.9406281  19.5414047
  23.2660732  68.0151672  19.4545097  24.4531345  67.2128677  18.9664726
   5.2291164  40.6374779  17.1222725   5.8840609  40.9080048  17.7657738
   4.3933554  40.9065285  17.5035152  29.7129002  67.6189575  46.0428581
  29.2832966  66.8809738  46.4753609  30.0885868  67.2440643  45.2462730
   8.5418291  65.7417297  68.4770432   7.8971939  65.0832062  68.2181473
   9.1413717  65.7955627  67.7328033  35.2130280  67.3171692  47.6245499
  35.1106644  67.4060593  46.6770020  34.5021210  66.7330627  47.8885002
  43.7234421  70.1643677  67.6737289  43.6233330  69.5030823  66.9889603
  43.7206421  69.6655350  68.4906616  85.4583969  58.8255806  21.1050224
  84.6665421  59.3577080  21.1826992  86.0660934  59.2065163  21.7389164
  67.4729156   5.6008077   6.7355876  66.9173889   5.2695456   7.4411960
  67.3764877   4.9579649   6.0329599  13.3073425  59.2884483  77.7035217
  12.4936476  59.4347801  77.2211075  13.3956261  60.0595398  78.2637482
  40.2614861   9.6133661   9.8621044  40.2482414  10.5243893   9.5686865
  40.6168365   9.1272354   9.1180382  77.2591782  53.7709808  61.9417152
  77.4271164  52.9376564  62.3817139  76.5853882  53.5677452  61.2929230
  78.5018997  11.7730818   7.2188687  78.7656784  11.8778172   6.3047118
  77.6986694  12.2878332   7.2968616   6.8691425  69.2210770  49.1111488
   5.9837446  69.1185303  48.7621689   7.1608043  68.3272552  49.2907562
  79.3983536  22.4903507  62.4649086  78.5209122  22.1835155  62.6933403
  79.3607941  23.4385185  62.5906067  77.6245499  34.9893723  62.8623009
  77.7425537  35.8791122  62.5296249  76.6836395  34.9162903  63.0222397
  82.6367798  47.6436577  45.2650261  81.8474350  47.5386162  45.7961884
  82.8303299  46.7619438  44.9466591  76.4377670  16.3794823  46.2126846
  76.6443481  17.3005810  46.0541458  76.9980698  15.8998995  45.6025276
  73.7492371   9.3832846  76.7781372  73.7708740   8.7717152  76.0420990
  74.3598328   9.0127831  77.4154205  19.1441898  37.8888512  79.9923935
  19.7481956  38.2621880  79.3504944  18.9699306  37.0042000  79.6710510
  84.3896027  65.0503922   0.3737158  84.4719849  65.5079346  -0.4630044
  85.2322998  65.1884537   0.8061836  12.4776688  60.1486435   2.8886333
  12.3461571  61.0182991   3.2663054  13.2130899  60.2580376   2.2857890
  62.3259010  21.6052952  79.8933868  63.0328178  21.7866554  80.5127487
  61.5245705  21.7836361  80.3856201  12.0805006  69.5776367  34.6652679
  12.1873569  69.6169662  33.7148628  11.4489613  70.2689133  34.8640900
  83.9562836  30.9562492  28.5642014  83.6814880  30.2976685  29.2021599
  83.7751083  30.5561161  27.7137299  72.5145798  21.7924976  30.3804016
  72.6852341  20.8593292  30.2527065  73.2608032  22.1046009  30.8922329
  64.2166824   8.1785965  30.0586948  63.7013321   8.8532181  30.5008812
  65.0109177   8.6313677  29.7751102  24.0221367  40.7913857  19.0933609
  23.3497086  40.2170601  18.7269917  23.5327644  41.4442635  19.5938549
  10.2802429  41.3479767  19.4723854  11.1675997  41.4391861  19.1252403
  10.0671453  42.2155685  19.8160515  52.3316841  46.4074020   2.1573968
  51.4474030  46.6248283   1.8624319  52.5881729  45.6611328   1.6156187
   6.5234895  43.8351746  20.3443909   7.2938166  44.1698761  19.8852577
   6.3486671  42.9886169  19.9332829  84.6914673   1.2528887  45.2051506
  85.2705231   1.4955277  45.9276810  85.1737289   0.5775222  44.7281456
  69.4921494   0.8176003  33.2302513  69.8477249   1.2033752  32.4296455
  68.6802063   1.2993330  33.3881264   0.4071622  59.3502426  73.6346512
   1.1487236  59.7861137  74.0545807   0.8066508  58.7614822  72.9943390
  25.5877762  53.2263603  36.3725548  24.9200611  52.9633827  37.0059814
  25.6467133  52.4880371  35.7662201  84.7987976  44.5201416  39.9873505
  84.8747787  45.4616814  39.8325500  85.6653442  44.1721420  39.7770500
  36.6873093  59.0770950  18.5177975  36.8891106  60.0101089  18.4471569
  37.2069016  58.7754097  19.2629414  56.5064659  44.2989426  52.1246948
  56.9563141  43.5916824  51.6624718  55.5872307  44.2005653  51.8765907
  76.2608414  53.0370674  12.3547544  76.0068817  53.4724579  11.5410147
  77.0195999  52.5050468  12.1150351  25.5449619  55.4286766   0.3120054
  25.9635506  54.5876846   0.4957102  25.0728874  55.6421318   1.1168741
   8.0060091  22.3988857  70.0646133   7.7249646  23.3137550  70.0807114
   8.6781797  22.3428288  70.7437820  51.0691490  33.7373505  81.5119629
  50.9232864  34.6055298  81.8877563  51.5785141  33.2717400  82.1752777
   6.1861925   0.6837754  81.5450668   5.2390394   0.6664858  81.4078293
   6.2900972   0.6998616  82.4964752  13.4072390  39.0311737  87.4063263
  13.4239626  39.6786995  86.7015839  13.2003860  38.2056427  86.9682159
  56.8189697  20.9291496  40.4633026  56.4653206  21.4230614  39.7235641
  57.1083107  21.5993919  41.0824051  58.2557564  64.1539001  20.8152103
  58.5541840  63.9109344  21.6916466  58.5237961  63.4220848  20.2594833
  10.1026115  32.6218033  12.3641758  10.6378317  33.1906204  12.9175472
   9.6096830  32.0816727  12.9818420  55.6841850  67.0113678  41.5842934
  56.2448273  67.1945953  40.8304100  54.9485893  67.6162872  41.4883728
  81.2189178  52.2381706  84.2730026  81.2617035  52.0274506  83.3402634
  82.0360565  52.7037964  84.4510803  52.0674782  22.7099514  24.8893070
  51.8905602  23.0190125  25.7777977  52.8843384  22.2168274  24.9654617
  23.8825245  32.4818764   2.2644577  23.4356995  31.6473274   2.1226580
  23.1805382  33.0957603   2.4803138  52.4089470  12.6003704  84.0101318
  52.6687698  13.1245413  84.7677383  51.9496613  13.2160988  83.4390259
  81.5569763  44.8774910  67.1038666  81.5517578  45.4824333  67.8456497
  82.1643982  45.2714958  66.4777451  25.2445946  35.8173141  73.8848724
  26.1241131  35.4483948  73.8037796  24.9035683  35.4467812  74.6988983
  32.9326591   4.3922138  15.4287901  33.1386070   3.4583077  15.4692469
  31.9856148   4.4229798  15.2931728  85.7165909  46.0336838  62.5285606
  86.0517960  45.5725632  63.2974777  85.8862534  46.9579506  62.7107239
  35.9452934  60.3301964  29.5466061  35.4649506  60.5180931  30.3529549
  35.4702072  59.6003265  29.1493492  40.6580429  70.8392563  43.4365158
  41.0329094  70.0722656  43.8694534  41.0953102  70.8715973  42.5856438
  71.9869614  37.8512001  30.0056362  72.4177399  38.6891441  30.1744747
  71.1769028  37.8916206  30.5139694  31.8670197  67.4081726  34.2973938
  32.5289230  67.7607880  34.8921852  31.4378452  68.1814117  33.9311371
  71.9903717  20.0698948  67.3146210  72.9033966  20.1894951  67.0532532
  71.4869156  20.5326157  66.6448059  76.4461441  59.0168533  87.3669739
  76.7955170  58.3028870  87.9002914  76.0662689  59.6254272  88.0006638
  25.5345936   9.2460451  67.8554688  25.5952587   8.5094700  68.4637527
  26.4085751   9.6363220  67.8639984  73.8890381  20.8783989  50.2267036
  74.8443756  20.8834534  50.1672897  73.5969086  20.5860920  49.3633118
   5.2027559  41.9955025  14.6467085   4.6983266  42.7751617  14.8789034
   5.1413383  41.4320068  15.4180260  46.4218369   7.9430523   5.2746520
  47.2571144   8.2000961   4.8841786  46.6487808   7.2423301   5.8859758
  10.7995520   6.2847257  50.0055885  11.1480646   5.4902811  49.6010780
  11.0992937   6.2424321  50.9136620  35.2073631  46.3142967  14.2538710
  34.7909088  46.5272331  13.4187336  35.7877731  45.5804443  14.0518456
  54.7865601  12.5748510   2.3574998  55.6349258  13.0150785   2.3054302
  54.5301132  12.4403629   1.4451516   4.2293959   9.8758535  27.4979534
   4.9666181   9.3276405  27.2292576   4.2380686   9.8369637  28.4543247
  42.3563347  64.1898041  82.2176208  42.4428177  63.9813995  83.1478500
  43.1561661  64.6705093  82.0045013  55.8455124  23.8285313  62.8436623
  56.5116463  24.2761097  62.3219604  55.0161057  24.1990623  62.5419655
   4.3266702   7.9876027   0.8092032   4.6277785   7.9393544  -0.0981213
   3.3958762   8.2004242   0.7416666  40.5679131  70.9147873  22.0892410
  41.0257835  70.5933685  22.8659496  40.2327423  70.1250000  21.6648254
  67.4770889  17.8052349  56.6000519  67.4444656  16.8690090  56.7966423
  66.5693817  18.0416870  56.4093018  49.9626923  62.4393654  28.4715271
  50.0540390  62.1201744  29.3693047  49.8654747  61.6464844  27.9441586
   3.0050395  50.8427696  42.4556656   2.6644120  50.4457703  43.2572899
   2.9067349  51.7847481  42.5944061  47.2123909  58.2587852  68.6072540
  47.8900337  58.9342003  68.6363831  47.1711311  58.0004539  67.6864929
  63.8777046   3.5273306  75.6689377  63.3521957   4.1400557  75.1545029
  64.3997269   3.0558479  75.0197678  25.1775589  59.1235123  17.5224552
  25.0216084  58.7746849  18.4000835  26.1284389  59.0914268  17.4174423
  63.5894852  46.0073318   9.4409208  64.4928741  46.3070793   9.5422506
  63.4385338  45.4414787  10.1980572  49.4483910  58.5579071  21.9533978
  48.8048172  57.9691086  22.3475513  50.2334595  58.0200882  21.8501892
  63.2184677   3.5772886  66.5587692  63.1005707   3.4317431  67.4974670
  62.9079628   2.7692490  66.1502533  62.4038811  55.3830338  88.4870987
  62.4622688  56.0359650  89.1846008  62.0520401  55.8637505  87.7378693
  38.6204071   1.3180757   9.3381996  37.7086182   1.3307500   9.0471497
  38.6310005   0.6960096  10.0656290  10.1690941  52.8192406  28.0005322
   9.8361034  52.1032333  28.5415344  11.0511026  52.5419846  27.7527008
  48.5378342  22.1864281  78.5428543  49.4006386  21.7750034  78.5931625
  48.0640106  21.6702557  77.8907089  45.2064743   1.1354012  64.7838058
  45.9361420   1.5620414  64.3345871  44.5319252   1.0432527  64.1109543
   6.6062274  26.5470238  46.4822350   6.2210217  26.6820793  45.6164360
   7.5400105  26.4230061  46.3122330  51.1015816  30.7632675  29.8082371
  51.4110413  30.0981655  29.1933346  50.6943512  31.4299030  29.2550735
  73.3624573  58.0919800   4.7586236  74.0119171  58.7131882   5.0880651
  72.9657593  57.7199364   5.5463080  26.4579659  19.8670635  82.3383102
  26.0300045  20.5792007  81.8629837  25.8573151  19.1267586  82.2523041
  37.2879372  22.5747719  11.1398497  36.8172531  21.7425556  11.1856880
  37.7647285  22.5349255  10.3108053  74.2292328  19.4558372   6.4880853
  73.5880737  18.9368763   6.9737115  74.5689697  20.0789242   7.1303997
  78.2048721  38.9820328  12.5759954  78.1435089  38.6717911  11.6725473
  78.2012787  39.9363823  12.5022802   2.1806815  63.8632240  15.6088562
   2.8828421  64.4682312  15.8479586   2.6053367  63.2122192  15.0502033
  38.1483345  63.3523331  35.5400696  38.6019173  63.8562393  36.2157707
  37.9102707  62.5321121  35.9722672  81.3021851  30.5122108  54.5939598
  81.8355789  29.7588501  54.8472824  81.9193802  31.1132145  54.1767159
  63.9466209   5.5786242  23.9849567  63.9891434   6.4962540  23.7159233
  63.3655891   5.1679783  23.3446426  83.1844254  35.8009872  34.4002800
  82.7385254  35.9048309  33.5596733  82.7802887  36.4568405  34.9684029
  68.9272995  67.3601456  25.4028912  68.2799683  66.6608887  25.4936352
  68.4095001  68.1429977  25.2151108  73.7166367  22.7784691  73.1371460
  73.3921280  23.2627811  73.8963318  73.6690063  21.8595848  73.4009933
  78.5758896  55.2998695  47.2981339  78.9595795  55.9751968  47.8575554
  79.2479172  55.1241302  46.6395531  37.2570152  57.8958206  38.3666916
  37.7951355  58.6707458  38.2049751  36.9933701  57.6011353  37.4949799
  40.2445793  49.8866692  78.9286499  40.7613678  49.1918869  78.5206757
  40.8562584  50.6170387  79.0215988  62.8686485  60.8345070  37.8970032
  61.9424515  60.8886452  38.1324959  63.3229218  60.7331696  38.7334251
  84.4975739  54.8985863  15.4651623  85.1312332  54.2860870  15.0916023
  84.9666367  55.7318611  15.5082874  76.2260590   0.4727216  53.7260818
  76.6740417   1.2749038  53.9944954  75.3767700   0.7703429  53.3999329
  10.4618263  12.1858902  56.9243927  10.8108902  12.8214302  56.2995148
   9.5256329  12.3808117  56.9665604  35.3162460   0.4906747  14.9618816
  35.7144089   1.1828357  14.4340458  34.5072670   0.8789303  15.2951097
  11.7029305   4.2045274  43.9713707  12.6524944   4.3244758  43.9844589
  11.5764999   3.2739062  44.1562805  39.3516388  21.0621014  16.6560707
  38.7594223  21.4486866  17.3011036  39.9143562  21.7866879  16.3830223
  59.7727051  41.7459793  83.6534729  59.6001701  42.4506340  83.0290375
  60.6989326  41.5382423  83.5302734  47.6070366  38.9136543   5.8983450
  46.9963264  39.4635963   6.3890891  48.4491158  39.0423393   6.3348989
  10.1805925  62.0212326   0.9152926  10.6715317  61.3172379   0.4914948
   9.4409981  62.1836166   0.3297471  68.0746002  31.6273594  51.7514610
  67.1995087  31.3492508  51.4810867  68.0064392  32.5777893  51.8423958
  61.0854225  57.2149124  47.5857925  60.4892311  56.6904678  47.0512390
  61.4954567  56.5834618  48.1768684  70.7143173   5.2256012  31.0909081
  71.2179794   4.4771504  30.7709465  71.0558701   5.9721589  30.5987434
  67.1573181   6.7672582   2.7524664  67.4056091   7.2651711   3.5313554
  66.2704010   7.0651965   2.5503883  20.2586403  38.5144691  22.5250931
  20.1345329  38.0513840  23.3535748  20.2168541  37.8285828  21.8587284
  26.8861732  34.4469147  71.3089676  26.0602322  33.9786911  71.4306946
  27.2046680  34.6057549  72.1975403  36.7479935  65.2366333  62.5775261
  35.9323845  64.7569427  62.4329185  36.5276642  65.8886490  63.2427711
  17.2155724  43.9044533   2.8759305  17.1058350  44.8439484   2.7291753
  16.9626408  43.7736359   3.7897928  40.3701096  17.9315338  74.4466400
  40.2330971  17.6976891  73.5286102  40.2491112  17.1104813  74.9235687
  45.7437248  52.2322044  88.3476257  45.6543427  53.0987663  87.9509964
  45.1632805  51.6719551  87.8324127  48.6825905  41.2936134  10.9642944
  48.2949181  42.1681099  10.9988794  49.5739746  41.4391441  10.6472902
  76.2824860  12.9761820  80.9119263  75.7351074  12.2436991  80.6289368
  76.4038696  12.8356810  81.8509445  53.0003433  41.0186234  63.2679253
  52.5962486  40.3460007  62.7197304  52.9161072  41.8248978  62.7589493
  22.0979996  62.3809395  45.0054054  23.0006485  62.5013695  44.7105293
  21.5752792  62.9012871  44.3952942  80.1395493   5.6691003  22.2784424
  80.8655777   5.6888480  21.6549625  80.5329590   5.3599916  23.0944786
  38.7678833  47.9908791  29.9311314  37.8691597  47.8179626  30.2115364
  39.3073730  47.4539108  30.5115147  81.0863113  21.8252392  46.6705399
  81.5388870  21.0826073  47.0704079  81.0285339  22.4756222  47.3704643
  32.1134987  32.5260696  20.9255104  32.4355774  32.2443314  20.0692844
  31.1603394  32.5149574  20.8383846  73.1417618   5.5374312  32.9530602
  72.9586258   4.6974492  32.5321999  73.8063812   5.3354878  33.6116486
  56.1844406  67.6548233  81.9336853  56.6481018  68.1247864  82.6267853
  55.3531609  68.1206665  81.8431396  71.9194489  32.4085197  15.3363676
  72.8227081  32.2365799  15.0703011  71.4637909  32.6121140  14.5195704
  70.5871506  48.3777618  25.0255299  70.8996658  48.0860863  24.1690865
  71.2496490  48.0648842  25.6415157  45.9013748  59.0018806  15.9439411
  46.4338226  59.1446648  16.7264671  45.5344238  58.1255341  16.0605526
  63.6678772  18.7334900  32.6428528  63.5681000  19.1631584  31.7933483
  64.4675293  19.1107044  33.0095978  14.1536350   4.0238471  33.3058510
  13.3604593   4.5331435  33.4723511  14.3392277   4.1661816  32.3776665
  64.5851517  14.7970371  80.6098633  64.3627319  15.6676846  80.2801132
  65.4932556  14.8763237  80.9019318  21.0979290  10.0343428  88.1767120
  21.0589466   9.8360243  89.1123276  22.0125694  10.2687416  88.0194702
  50.3124847  38.8085365  70.6756592  49.9621277  38.7113457  69.7902069
  51.1757278  38.3966599  70.6382217  81.8957062   0.1301905  85.0759430
  81.4811554   0.9724954  85.2627487  82.7135086   0.3585156  84.6340027
  63.1213455  26.7706070  73.6031494  62.9071655  25.9707890  74.0834045
  63.9038963  27.1089783  74.0382919  61.1018028  55.0430870  58.4750862
  61.2788048  54.3826447  59.1449471  61.8406906  54.9749489  57.8704109
  59.5194054  42.8415565  16.7408142  59.0139618  42.2609940  16.1718597
  59.8156776  42.2780304  17.4555836  68.7497482  10.6396875  23.1968479
  69.5199890  10.1534376  23.4910011  68.6428909  10.3871260  22.2797737
  29.7426510  63.1339874  28.5961857  30.5347290  62.6319847  28.4042549
  29.5484390  63.5960350  27.7806950  39.8022766  14.9399490   2.3987932
  38.9282722  14.8427773   2.0207684  39.8800201  14.2100401   3.0131390
  13.5239592  56.6214409  59.0880356  14.4743538  56.5095749  59.0663910
  13.1853285  55.7523384  59.3030281  72.1133499  32.2230453  18.0554638
  71.9616699  32.2647705  17.1112785  71.4368515  32.7860184  18.4318295
  63.5866661  33.8823662  46.0157623  62.6977386  33.7160301  45.7021217
  64.0133896  34.3427544  45.2931404  67.7092285  18.4299278  60.5435410
  67.7004700  17.5134735  60.8197060  67.8849106  18.9203854  61.3465462
  75.1574249  10.6387320  69.8531876  75.2464142   9.9850121  70.5467072
  75.8204727  10.3946218  69.2074280   3.3054938  61.9532928  13.8348122
   3.7424669  61.1318703  13.6099777   2.3843186  61.7998505  13.6247549
   2.8749809  45.3850021  75.6332016   1.9910733  45.0326805  75.5292358
   3.2378416  45.3867378  74.7474442  17.0233288  33.2016792  74.5834351
  17.8468456  33.1280861  75.0657578  17.2384319  32.9124031  73.6967087
  64.6009827  22.4743919  75.0210419  64.5423813  21.7077255  74.4509354
  64.6369553  23.2180405  74.4194412  63.0508423  71.0923080  55.5506744
  63.7382164  71.6500092  55.1863556  62.3507385  71.1180344  54.8984299
  38.1491814  45.5312729   1.3261017  37.8710899  45.5298042   2.2420144
  37.7302551  44.7584305   0.9473591  38.2083969  19.9985714  25.4455261
  38.7748108  20.1717281  26.1974735  38.8062286  19.9612598  24.6989079
  19.5195599  28.5643921  22.7932644  19.5449829  29.1570663  23.5444775
  19.2656212  27.7190552  23.1636066  17.0967159  54.2544365  55.5646400
  17.6343708  54.7587509  54.9540482  17.4499722  53.3660583  55.5174217
   1.9436078   9.5653496  80.8347702   2.7433197   9.2886267  81.2821121
   2.2432058   9.8821068  79.9826355  59.3573952  60.7433662   2.4056964
  58.5918198  61.1909485   2.7659681  59.9429207  61.4505577   2.1350083
  82.7616959  25.4608173  43.2511978  82.6711731  24.7987328  42.5658684
  82.1123352  26.1275158  43.0274086  79.3326950  40.5436897  64.6676102
  80.1062088  40.8480148  64.1929474  79.5156097  39.6238098  64.8589096
  70.0559845  42.5267563  84.1655045  70.4056015  41.6644173  83.9410706
  69.3215714  42.6513100  83.5643845  25.2881470  48.2363510  33.8829002
  25.2266102  47.3168983  33.6239586  25.5347214  48.6953316  33.0799217
  71.7925491  15.7121096   1.3042487  71.9150620  16.3136234   0.5698072
  71.8143082  14.8415051   0.9070007  79.9056549  41.5831528  33.6952782
  79.8209381  41.5309067  34.6472893  79.8455353  40.6748581  33.3992691
  36.2629051  38.2957649  12.6951580  37.1591301  38.2991829  13.0313139
  35.7518387  37.8645973  13.3800945  24.2824326  24.0900993  82.2765656
  24.3607960  24.1621437  83.2278290  23.3798866  23.8062515  82.1314087
  38.2259979  59.4360123  20.8202267  38.5328674  60.2783165  21.1557655
  38.8664856  58.8019981  21.1427708  52.4064789  29.5125217  84.1355820
  53.1450500  28.9645119  84.4009628  51.8745766  28.9442310  83.5784912
   1.6452110  53.3497658  35.2402840   0.8381664  53.8598976  35.1719055
   1.8225199  53.3068161  36.1799393  36.1074371  38.2558365  79.9973984
  35.3221054  37.7293549  80.1467285  36.7725296  37.8586922  80.5596771
  13.8201561  58.4129105  48.7216835  14.2022333  58.8200836  47.9442139
  14.5249796  57.8738060  49.0806007  55.5077858   7.9636130  36.7054863
  54.7669411   8.5411644  36.5215874  55.8121147   7.6823006  35.8426514
  46.8359642   0.7452770  27.1121445  46.8279114   0.4751333  26.1938915
  47.7645836   0.7966937  27.3385429  68.3309174  62.2975235  30.2812233
  67.7322388  62.9226189  30.6899662  68.4317932  62.6143112  29.3836136
   5.0984955  26.4283962  34.1162567   4.6127086  26.4224415  33.2915077
   6.0176187  26.3810043  33.8531990  72.2458649  11.9297819  76.2721786
  72.9579086  11.2962093  76.1838226  72.5255203  12.6792364  75.7464905
  86.3119965  44.4870529  60.3673706  85.4121246  44.3018303  60.0987549
  86.2214584  45.0546265  61.1328087  61.6764717   0.0509420  19.7462959
  61.0231018   0.5904135  20.1916142  62.2291412  -0.2865514  20.4511986
  34.8563271  22.7018585  14.4068737  34.7653847  21.7915573  14.1252470
  33.9712944  22.9635849  14.6607456  72.5719757  27.3879166  79.5420761
  71.9309921  28.0163651  79.2097702  73.1146622  27.8956242  80.1453705
  74.8797989  46.6870842  51.2290497  75.7469788  46.7865829  50.8361931
  74.7700500  47.4700279  51.7686691  34.1964035  16.7199936   3.4863675
  33.8375320  16.6970654   4.3734503  35.1222496  16.9303970   3.6079175
  79.7081833  29.5759296  43.5670052  79.4267273  29.3824215  44.4611893
  79.9936142  30.4890537  43.5980644  83.8795013  10.4617424  69.0758667
  83.6734543   9.7101288  68.5201187  83.7188110  11.2230473  68.5183487
  46.1713409  34.2861176  28.7467995  46.3019867  33.4320450  29.1587753
  45.6060524  34.1057701  27.9956970  24.0193119  23.9375572   5.2844696
  24.1526985  23.6421299   4.3838234  23.4297066  23.2866802   5.6651974
  29.6191540  13.9853058   1.4740943  29.4391117  13.8655176   2.4065466
  28.7779217  13.8275414   1.0455285  52.0459404   6.5589409   6.9191766
  52.8696213   6.0731854   6.9619355  52.2337646   7.3881083   7.3589902
  70.3174286   7.8553405  60.8857155  70.8408432   7.3080978  61.4711952
  70.9613724   8.3034887  60.3373299   5.9942856  39.9336700  41.8264618
   5.2208052  40.2339821  41.3492088   6.0357218  38.9940834  41.6484413
  58.0172195   2.8271761  41.8736458  58.6861916   2.7917590  41.1899414
  58.4802589   3.1537740  42.6451111  20.7905521  42.8277130  51.0006447
  20.5281467  43.7140961  51.2490349  19.9961243  42.4353867  50.6384315
  19.7601280  26.1306286  74.7650452  19.2462234  26.6341629  75.3963776
  19.1789417  25.4191303  74.4962921  68.8665848   3.5741069   8.7231026
  69.3587494   4.3881745   8.8293781  69.3877945   3.0576127   8.1084442
  81.1318970  48.5846138  83.6732254  80.7172775  48.8970566  82.8690491
  81.9283295  48.1442413  83.3765869  51.1040688  59.1381111  50.5298462
  52.0020599  59.3449211  50.2708549  51.1666183  58.9235764  51.4605980
  10.7209349  46.6000404  42.8546791  11.1036844  46.0742836  42.1523170
  11.2120419  46.3486633  43.6368904   0.9230649  30.5847015  76.2511292
   0.6018329  31.3904362  75.8463669   0.4301630  29.8868427  75.8195343
  37.6155586  64.5947418  65.4810333  37.2785721  63.7019768  65.4059219
  38.3379898  64.5263290  66.1052475  41.5095749  33.6529350  22.2616520
  41.3501701  34.3132629  21.5872726  42.4217758  33.7880592  22.5182991
  33.7104454  25.9731007  68.5350494  34.2777481  26.6355953  68.9293900
  32.8241920  26.3138638  68.6561584  12.3286886   6.4324970  12.3566828
  11.4377794   6.7661920  12.2510395  12.3832531   5.6977000  11.7456770
  44.5241318  44.0314026  72.4282684  44.8591728  44.9280128  72.4368744
  45.0919838  43.5576782  73.0360184  65.2893219  68.2230911  31.5486393
  65.9587631  68.8091049  31.9017258  64.9471359  67.7615128  32.3141975
  36.9589233  65.2888107  45.7738037  36.7233849  64.6493073  46.4459496
  37.5669899  65.8840714  46.2121544  75.8701248  45.9916840  28.9217720
  75.4769592  46.5666351  29.5783443  75.2923737  45.2289963  28.8945065
  54.7030220   9.6629858  39.3173103  54.7894974   9.9420404  38.4057846
  55.5006714   9.9794607  39.7413826  67.1488571  17.0739136  83.4533081
  66.8994904  16.9630394  84.3707809  66.3563919  17.4009647  83.0275497
  28.7870216  53.4445305  50.4829102  27.8995266  53.2345772  50.7736015
  28.7140465  53.5286598  49.5322113  58.4026871   3.9129364  44.6170311
  58.8768806   4.5446868  45.1576462  58.7902336   3.0669937  44.8415756
  47.4443550  29.3543415  70.9999313  48.3231010  29.5050888  70.6516418
  47.0116730  30.2056961  70.9350052  27.0264034  58.4259834  49.2386436
  27.5946426  59.0724258  48.8197746  26.5745316  57.9975090  48.5116959
   9.5637722  71.0791245  43.9803963  10.3633032  71.1738205  43.4626961
   8.9373980  71.6712952  43.5641899  46.2215652  36.4004822  26.6256199
  46.9051666  35.8531609  26.2391491  45.4272881  35.8696671  26.5656433
  44.5775452  29.3485470  69.6437073  44.2906799  28.8739510  70.4238968
  44.5036469  28.7101383  68.9343338  39.8728333  62.3817787  56.4885864
  40.4656105  61.7082520  56.1551056  39.8543930  63.0467224  55.8002968
  83.8896637  55.7790718  73.8714600  84.2197800  54.8847923  73.7847366
  82.9373322  55.6830597  73.8800507  64.1840820  22.6111088  45.7905655
  65.0530396  22.4843388  46.1714554  64.3190460  23.2546158  45.0949249
  85.9349747  68.4394531  40.6106071  85.4219971  67.6479797  40.7738724
  86.0913467  68.8071899  41.4804077  40.3588829  57.8526955  28.7301102
  40.9210587  57.1407814  29.0356731  39.8341064  58.0886612  29.4950695
   2.0566700  18.8223267  45.5312881   1.7458210  18.9126072  46.4320946
   2.0627465  17.8782406  45.3734970   0.1907999  32.6898613   3.8579798
  -0.4267359  33.4051399   4.0104842   1.0351552  33.0369568   4.1457653
  50.0577698  10.0490580  65.5727692  50.9192619  10.3436270  65.2773285
  49.8232079  10.6586075  66.2725296  28.3571873  31.5802708  27.3699417
  28.3669415  32.4233589  26.9167976  28.0030994  30.9665318  26.7263737
  65.7322922  32.6974449  11.5562077  66.4719467  32.0951576  11.4762716
  65.6534348  32.8564186  12.4968147  32.5012321  19.0437527  80.6818161
  32.3978729  19.9771118  80.4963684  33.3875351  18.9664402  81.0349808
  52.5275230   5.2297225  82.4411545  52.1260185   5.8843098  83.0125961
  53.3481293   5.0015335  82.8779297  67.4460144  19.5836830  68.9525833
  66.8420181  19.1280022  69.5389099  68.3146591  19.3859787  69.3027420
  72.6069412  50.4964828  28.3687057  72.9800720  50.2509651  27.5221081
  72.1470871  51.3185425  28.1984329  49.7559662  37.1862450  66.1282959
  49.4225349  37.8855553  65.5661392  49.1604118  36.4524155  65.9765015
  45.2818527  39.8914757  72.9470749  45.6114578  39.0590286  73.2856293
  45.9701462  40.5236244  73.1541367  25.8863697  26.0908985   8.2329826
  25.6699905  26.2633190   9.1493254  26.7646122  25.7112885   8.2616024
  38.5649376  13.5615969  77.4759521  38.8178062  13.0482759  78.2432785
  37.6667213  13.2879276  77.2901001  74.0805817  70.9123917  83.7105331
  73.3092499  71.0051193  83.1513519  74.5549469  70.1668701  83.3425522
  20.5819016  66.5765686  69.0613708  20.8295193  65.6532898  69.0116501
  21.2334347  67.0284958  68.5251694  16.7369404  55.1495323  15.4237185
  16.5510540  56.0146370  15.0586529  15.9991007  54.6078339  15.1437426
  13.0894222   9.0651875  77.3659592  13.9260359   9.1126709  77.8286133
  12.7517538   8.1931973  77.5705185   7.8942695  43.3906479   4.4401798
   7.1566896  42.9117203   4.8181138   7.5997977  44.3010063   4.4125032
  37.8046837  67.4687805   6.0480604  38.0117645  68.1762085   6.6587090
  38.6327362  67.2853622   5.6043057  20.4040604  12.2604532   2.6784434
  19.7539196  12.5304918   3.3269999  20.4929371  11.3161297   2.8072293
  26.5639477  56.3519936  47.4435501  26.3092937  55.4495697  47.6359558
  27.5051823  56.3771629  47.6158142   4.8087902  46.3867569   1.6607242
   5.3566527  45.6358070   1.8890935   4.9056997  46.4743843   0.7124829
   6.4446669  62.9970512  25.5293598   6.7121882  62.3554497  26.1873951
   6.5974417  63.8452415  25.9458561  30.5369129  25.3894215  20.6250248
  30.0639820  24.9094505  21.3048744  30.1848507  26.2783623  20.6704826
  22.5546131  52.4193268   3.9745378  22.4436531  51.5252762   3.6511292
  22.2263203  52.3914070   4.8732462  41.2271080  45.8068123  76.7815475
  41.4940948  45.1652451  77.4398270  40.3566208  45.5193367  76.5061493
  25.0192165   4.0245986  61.1292915  24.9438419   4.7685647  60.5317421
  24.9951477   4.4155145  62.0026970  47.2143211  60.5112724  78.2767715
  48.1320190  60.6529961  78.0444489  47.1581764  59.5756836  78.4710770
  16.0888062  42.1597023  80.5475922  16.9044495  41.6590767  80.5292969
  15.8716784  42.2975960  79.6256027  24.5726242  71.0464630   7.9730020
  24.8566074  70.2070770   7.6110330  24.8734303  71.0295639   8.8815508
  17.2088795   4.0110731  10.6683722  16.5776539   3.5973656  11.2571268
  17.8041878   3.3037813  10.4202232  37.3908005  34.5290642  80.5649796
  37.9534683  35.2027740  80.9467545  37.9990578  33.9064064  80.1667938
  71.8968887   4.2320137  14.6225567  71.6299591   3.5751143  13.9795485
  71.8479919   5.0631633  14.1502943  32.6366730  48.9514885   7.8921361
  32.2835999  48.2310448   8.4141865  32.2666740  48.8186264   7.0193934
  45.7016869  68.9307098   0.9309707  45.5735130  69.8671799   0.7798866
  45.0422783  68.7012863   1.5857825   6.1072078  44.2768669  85.2304535
   5.7876596  44.4306641  86.1195297   5.6588554  44.9337616  84.6978149
  19.4080944  26.1191826  71.3309479  19.8693142  26.8026009  70.8446884
  18.7187405  26.5854225  71.8038559  66.2070541  29.5780888  74.9744415
  66.6587830  29.8416767  74.1727600  66.6931839  30.0105228  75.6765213
  26.7268543  67.6550369  44.5593033  27.2034721  68.4808426  44.6436119
  27.0586185  67.2686768  43.7488098  39.8951645  34.2323189  81.9801102
  39.9342537  33.5515671  81.3083344  40.6783562  34.7618561  81.8303452
  69.9756927  12.8979139  58.9126892  69.8159714  12.3984661  59.7134819
  70.9124908  12.7919292  58.7471390  61.9581032  43.6665115  37.4139595
  61.8141251  42.7872276  37.7637634  61.1891060  44.1638985  37.6923027
  53.1379967  20.1426983   6.5200729  52.8892632  20.3362961   5.6162572
  52.7580986  20.8572121   7.0313292  19.2335052  37.2212181  35.9829903
  19.1057243  36.2918015  35.7930183  20.1486511  37.3881721  35.7574539
  84.7686310  53.2873650  53.9146767  85.0270157  54.1615143  53.6225586
  85.5905838  52.7996330  53.9670181  69.6383438  60.6986237  38.1339340
  69.7409668  60.1244583  38.8929024  68.7491455  60.5282707  37.8232269
  75.6595917  45.4048195   7.0200658  76.4537125  45.3396988   6.4896221
  74.9951630  44.9360008   6.5151191  49.7889748  41.1906776  63.8631744
  49.2997551  41.7173576  63.2311096  50.7079430  41.3652954  63.6601067
  63.3855820  20.8129253   7.9724169  63.3893661  20.4470730   7.0879002
  64.3066406  20.8193607   8.2328863  84.7448730   2.9908743  80.2965775
  85.2125168   3.0938544  79.4677658  84.2076187   3.7798460  80.3680878
  50.4664612  56.8742332  46.8605728  51.1789856  57.4343605  46.5526810
  50.7828522  55.9825935  46.7152824  16.0513134  69.5686264   0.1253774
  16.6533089  69.0106888   0.6178609  16.3784485  70.4570541   0.2664846
  81.5662384  55.4718094  55.3581848  81.1283722  54.9034157  55.9917755
  81.6543045  54.9318047  54.5727730  85.4619446  46.1898155  16.9197712
  85.1277618  45.9494438  16.0556087  85.8629608  47.0493546  16.7909050
  10.0320807  48.9361877  51.9753647  10.1257954  49.7552338  52.4617920
   9.4146271  49.1435013  51.2739372  72.8153458  70.2175217  62.6118279
  72.3645477  69.3960114  62.8071060  73.6549606  70.1436996  63.0655098
  33.1234856  56.3055038  85.5681763  32.9547539  55.4346085  85.2085953
  32.2722397  56.5999374  85.8920975  73.5951157  70.3778458  86.4952927
  74.5131989  70.1070709  86.4891205  73.4544983  70.7674255  85.6323395
  59.6777992  17.6692066  42.5207558  59.4314079  18.3360519  43.1617279
  59.1881447  17.9025612  41.7320786  30.6713734  42.7680359  28.1118526
  30.1116390  42.9451904  28.8678608  31.5611382  42.7799721  28.4645691
  74.4621658  28.8311195  30.1269188  75.1977921  28.3395252  29.7616596
  74.7046127  29.7493191  30.0070953  61.3410492   4.9289336  83.4295349
  61.2190666   4.6268024  82.5294952  62.1373062   5.4592481  83.3983231
  52.2376900  32.4505157  61.6554680  51.3337479  32.3174248  61.9407845
  52.6282120  31.5769958  61.6817284  38.7712517  42.6474800  22.6184330
  39.6344833  43.0527382  22.7010384  38.9555893  41.7232513  22.4509315
  66.8116837  22.5349941  47.1258774  67.4429932  21.9392204  46.7224655
  67.2240601  22.8000889  47.9480133  31.7820740  23.2778664   8.3548775
  31.5345631  23.2128544   7.4325194  32.0637016  24.1861858   8.4638405
  27.2822208  26.9388905  82.8059235  27.2570801  26.4539108  83.6307831
  28.1495800  27.3435307  82.7923279  71.0608826  52.2189903  70.8951035
  71.0002975  53.1068115  70.5424881  71.7981949  51.8256760  70.4282990
  40.4315987  51.1468163  72.3656540  39.6471825  50.6535110  72.1257019
  41.1545296  50.5406075  72.2040787  54.7365303  21.7332039  25.1246719
  55.0298920  22.2676563  25.8625946  55.4153595  21.8494606  24.4599133
  37.0608025  12.1168089   2.8734477  37.9544792  12.1609011   3.2134895
  36.6633110  12.9469690   3.1362543   6.4083433  70.2479248  12.7226095
   5.8271332  70.3371964  11.9673233   7.0893626  70.9052277  12.5797825
  32.7777901  43.3549271  48.8522682  31.8704472  43.3932877  48.5497894
  32.9804726  42.4199600  48.8836479  35.2221756  50.4557800  22.0867939
  34.7724533  49.8333511  21.5153427  35.7133751  51.0186424  21.4883442
  63.0164795  59.9818497  59.4067688  62.8000793  60.8070641  58.9726906
  62.2850533  59.4014320  59.1961441  42.1969795  45.1286087  29.8035469
  41.8582726  45.8914032  29.3348751  42.8115234  45.4925041  30.4408493
  28.0961475  65.4449005   6.7491169  29.0189190  65.6570969   6.8894668
  27.6340656  65.9147491   7.4433455  77.4207611  70.6412277   4.9694786
  77.5297241  69.7552109   4.6240301  78.1772766  70.7699585   5.5416160
  50.1121292  16.2308731  58.3251228  49.2381363  16.0346851  57.9876671
  50.5186119  16.7639179  57.6418419   1.4875085  52.6582336  78.0682144
   1.3238419  51.7372246  77.8652649   2.3396201  52.8427887  77.6731491
  20.5349960  52.9299049  28.8778820  20.7796593  52.1608086  28.3632336
  21.3522224  53.2139435  29.2873878  43.2669945  68.6120071  15.1489725
  43.5613289  68.7221222  14.2448292  42.4202728  68.1720428  15.0733156
  25.4270573  47.0664368  36.9142609  24.5458679  46.9986305  37.2818718
  25.3494492  46.6940346  36.0358963   3.3739729  33.9165726  56.6525040
   3.2098665  33.7657738  55.7216110   2.5976412  34.3846550  56.9598160
  22.6304703  45.5768700  32.0050011  22.3657093  46.4955635  32.0512085
  21.8368721  45.0876884  32.2221107   2.6820385   6.9688506  42.8728905
   3.0169854   7.8471360  42.6921768   2.0560617   6.8015766  42.1683273
  39.1048546  47.7630768   2.5419226  38.8659477  47.0104179   2.0009441
  39.4386063  47.3790054   3.3526802  11.5163412  10.5976467  16.5413609
  12.3747168  10.4631968  16.9430389  11.2463255  11.4665823  16.8384705
  48.9593925   7.1940651  31.5582485  49.3406525   6.6729980  30.8515930
  48.0528870   6.8922000  31.6161823  60.6959229  14.0465517  87.8908920
  61.5004616  13.7661572  87.4546204  60.6684608  14.9939232  87.7568588
   8.1429987  62.0834999  84.0756836   7.5969934  62.3735733  84.8064194
   7.8137813  61.2103310  83.8625717  29.3401833  45.1994362  81.3806763
  29.2764263  46.0489006  81.8172226  30.0932140  45.2864342  80.7962036
  11.9408064  33.7535019  67.7345810  12.1396103  34.5962830  67.3266296
  11.0441246  33.8484726  68.0557861  48.6026764  34.3709641  58.9392204
  47.6804962  34.6037827  58.8314667  49.0130501  34.6298409  58.1141090
  25.6337929  14.0437069  50.7339821  24.6850014  13.9296732  50.7889786
  25.7490768  14.8619709  50.2508812  14.4060135  28.2276077  14.0080509
  13.6756678  28.7091751  14.3965349  15.1719065  28.7760391  14.1779404
  40.9420433  53.5201950   4.8823838  40.0067101  53.7009544   4.9757018
  41.2753677  53.5134201   5.7796478  11.6503983  61.1015930  58.8916359
  10.8314161  60.6169395  58.7886276  11.3807211  62.0182571  58.9484901
  49.7423477  66.8587723  59.3004150  49.2066269  66.7381668  60.0844345
  49.4115677  66.2075348  58.6817894  82.8280029  55.1835060  87.1623993
  83.2952042  55.8693428  87.6394501  81.9335251  55.2231140  87.5008850
   7.1119819  69.8036957  75.0993805   8.0017805  69.9024582  74.7606506
   6.6941524  69.1865845  74.4986954   1.1673386  40.0944519  29.6513691
   0.2712986  39.7601776  29.6914425   1.7050016  39.3195038  29.4882507
  39.6644363  49.5574112  41.0318031  39.0848312  50.2011261  40.6244659
  40.2438393  49.2751274  40.3241043  71.5327225  61.7438774  41.4174805
  72.3724747  62.0850639  41.1098557  71.3387756  61.0163612  40.8264313
  71.1449280  30.4367580  77.3096542  70.7279205  29.7405052  77.8171692
  71.6142883  29.9773502  76.6133194  22.7703114  48.3505859  30.6677399
  23.5965004  47.9214859  30.4452171  22.2423248  48.2807312  29.8723888
  55.8869324  19.0583916   5.8201833  56.1143074  18.7233601   4.9528389
  54.9363708  19.1676311   5.7931199  44.6011391  47.0610237  15.7055082
  44.5103912  47.2962494  16.6289082  45.0981293  47.7836266  15.3219986
  13.2707605  12.2486763  80.8030396  13.7278948  12.9886036  80.4033279
  13.9654932  11.7258759  81.2033615  49.7710800  24.0276756  57.6779404
  49.2944489  23.4518814  58.2758636  49.8335419  23.5284958  56.8635979
  15.8547087   9.5547447  22.0961533  16.3117828   9.4847260  22.9342537
  15.0514688  10.0335054  22.3006649  82.7596207  17.0172997  38.7079430
  82.0066452  17.3981228  39.1598663  82.5253906  16.0972939  38.5856400
  48.8882713  51.0692940  77.3529510  48.6116486  50.2683449  76.9077682
  48.2873650  51.7415886  77.0317612  13.5863371   7.0062962  81.7983398
  13.0941200   7.5108504  81.1507416  13.4494171   6.0933952  81.5451660
  77.8183975  22.1531448   8.1530447  78.5893784  22.7170162   8.0907516
  78.0653229  21.4788723   8.7859888  64.2395020  52.9706688  76.5447922
  63.2836800  53.0215988  76.5388031  64.4291306  52.0337753  76.5948029
  56.9184837   7.9942555  76.6471558  55.9692192   7.9010911  76.5668564
  57.0825500   7.9708290  77.5899048  39.9076233  40.1113586  81.0288467
  39.1842728  40.1862793  80.4064407  40.6417961  40.5475388  80.5964432
  79.1922150  15.6845484  67.1887360  78.4213181  15.1529808  67.3871841
  79.7638245  15.5703201  67.9479828  52.6292953   2.0170555  31.0321312
  51.7665863   1.6068517  30.9712944  53.1216660   1.4521185  31.6276569
  22.1401443  57.0666237  64.3762589  22.5398827  57.1657867  65.2403183
  21.1997795  57.1447945  64.5369949  67.9300766  62.4899101  27.6189346
  67.9738159  62.1853561  26.7125320  66.9975662  62.6364288  27.7776451
  63.5135078   2.4153416  38.4016418  63.2033539   3.2347088  38.0160637
  64.1952591   2.6835132  39.0177116  19.5897636  11.0675173  68.0759430
  19.5226345  10.1924906  67.6937714  19.0886040  11.0125980  68.8896103
  13.5957193  69.9865570  74.3202209  14.0717449  69.8264542  73.5053635
  13.1406460  69.1633148  74.4974747  19.1374493  57.0919189  14.1569147
  18.7208157  56.5765076  13.4662628  19.3833828  56.4479752  14.8210583
   1.8431563  57.8135643  27.5095654   1.9850607  58.4723740  26.8298130
   2.6937773  57.7261887  27.9397297  59.1743698  18.0145111  24.6930580
  58.7258797  18.5890865  25.3135052  59.9619293  18.4985123  24.4446144
  48.9235878  63.6599808  33.1846275  48.0483742  63.4035339  33.4752617
  49.3917465  63.8715324  33.9922829  83.9784470   6.8040924  58.9181366
  84.5607758   7.2722807  58.3198662  84.2833099   7.0509462  59.7912636
  58.3506432  41.6146660  73.1939011  58.1673508  42.5225754  72.9523621
  57.7857971  41.0957718  72.6212463  54.5914268  36.6509743  59.7077217
  55.2400436  36.3372192  59.0775719  53.7565536  36.3191376  59.3774223
  84.9242020  33.4805756  17.8703804  85.2557907  33.8772850  17.0648346
  85.0902100  32.5441170  17.7621422  45.4820366  17.8555336  78.0530777
  45.6852608  16.9206810  78.0844040  44.6542397  17.9047985  77.5750046
  57.5705185  68.1896515  43.2632790  57.1328430  67.8016968  42.5055428
  56.9064102  68.7524948  43.6612625  69.5061340  47.2768478  32.0664177
  70.2129288  47.7897377  32.4583588  69.9110565  46.4368134  31.8505287
  36.3074570  31.5106907  69.0667801  36.8142891  30.7038155  69.1579056
  35.7950096  31.3827763  68.2684860  73.6341019  64.6164856  62.1672096
  74.4119263  65.1724548  62.2133026  73.1792374  64.7718735  62.9949684
  31.8363171  53.7174301  56.2889442  32.5812798  54.0117226  55.7648735
  31.1415234  53.5591125  55.6498566  74.2300797  62.1327896  20.8742580
  74.2555313  61.1769485  20.8300571  73.5870438  62.3861427  20.2120247
  56.0297050  12.1646509  47.5764122  55.5831871  11.3598576  47.3134232
  55.7554512  12.8134699  46.9282990  59.2676430  47.9141655  83.7013550
  58.7549706  48.6349411  83.3354645  60.0903130  48.3200150  83.9747314
  69.4471436   8.2400455  52.9411354  68.8326187   8.9682741  52.8502045
  69.0878754   7.5520930  52.3808861  75.8976746  24.3530979  42.6146011
  75.6293182  25.2712154  42.5788574  76.0820770  24.1933250  43.5401802
   5.7936921  31.1142578  39.5767632   6.1767192  30.3020630  39.9082146
   5.2899427  30.8454475  38.8085098  65.9863968  45.8677635  20.9367085
  66.5405273  46.5909271  21.2303047  65.0954208  46.1489410  21.1448879
   7.3339887  33.2686310  38.6311569   6.9258075  32.5546761  39.1209450
   7.9333119  33.6760826  39.2564774  25.9490147   9.3503532   3.1132104
  26.5127964   8.8712187   2.5059118  25.7065964  10.1453714   2.6384342
  40.8914490  31.1152077  85.7976456  41.8149490  30.9248695  85.9624100
  40.7847748  32.0294724  86.0602722  20.3035660  43.6375465  65.3057785
  20.8999348  44.2363205  64.8562775  19.6771812  44.2105217  65.7480164
  79.0165024  58.6486282  66.5419998  79.6872406  58.8124352  65.8790436
  79.4413910  58.0693283  67.1745453  84.9645233  26.9113312   9.5867023
  84.1072540  26.9495258   9.1626043  84.7669601  26.7987862  10.5165052
  31.8117104  69.0801468  19.1105061  32.0627632  68.1571426  19.0750427
  30.8550491  69.0694885  19.0801830  24.5213947  62.5499611   2.5286438
  24.6997375  62.7529030   1.6103628  23.7685566  61.9594231   2.5015852
  73.5441208  48.2550888  23.0531540  72.6224365  48.0128326  22.9635067
  73.9489059  47.9637299  22.2361526  80.3915024  39.4828720  17.6510124
  81.2206802  39.0380249  17.8265190  79.7915802  38.7807350  17.3993626
   1.8174934  31.2276840  69.2926331   2.5643880  31.0965481  68.7085266
   1.6860756  30.3755684  69.7083969  21.2762089  59.4721794  15.9582891
  21.9276886  58.7985382  16.1532536  21.1832981  59.4470291  15.0059414
   6.3213687  42.3414803  37.8446426   7.0093951  42.3690109  37.1797409
   5.5125246  42.2198753  37.3474350  24.4041176   8.6671238  74.5894699
  24.3858528   8.4830141  75.5286179  24.0301266   7.8845077  74.1846542
  54.1917877  49.1051674  40.8512230  54.7529182  49.7671509  41.2551270
  54.7887535  48.5749588  40.3232651  12.0860968  48.9952240  11.0916023
  11.1809349  49.2657051  10.9374790  12.1802788  49.0055428  12.0441017
  33.3424187  26.3368912  86.5161591  33.8237572  26.1666374  87.3258286
  33.3206062  27.2913170  86.4466705  13.0401478  63.3861923  37.1827621
  12.3769999  63.5314903  37.8575630  13.3293991  62.4843445  37.3214607
  62.2409439  54.9475288  12.6376266  62.3366318  54.8442497  13.5844164
  62.7663383  55.7193108  12.4265680  42.5360222  69.6002808  23.4695148
  42.6074715  69.0634918  24.2588062  43.2404900  70.2430038  23.5523891
  68.4414597  43.9641266  29.0026455  69.0561676  44.6850433  28.8661079
  68.1452026  44.0699387  29.9066753  79.8782501  63.2096977  16.4332008
  80.2899933  64.0310974  16.7015285  79.0794373  63.4791069  15.9798374
   3.6280868  67.2997131  24.8878860   4.1359091  67.1772232  24.0857983
   3.8410420  66.5366211  25.4250774  20.7922993  68.6343765   5.0914736
  19.9721794  68.3371048   4.6974325  20.5516167  68.8887711   5.9823098
  56.3252220  59.1682243  31.9550934  55.8488693  58.3467636  31.8345947
  55.6627388  59.7861404  32.2641678  85.9698257   0.5171669  24.7051907
  85.9726105  -0.4316813  24.8313313  86.6988525   0.6814104  24.1070480
  41.0084457  25.3121967  82.9703903  41.3585320  24.5248013  82.5536346
  40.2530556  25.0028954  83.4703293  12.3953638   1.8241346  26.1153927
  12.8902187   1.0449495  26.3688126  11.4784918   1.5564864  26.1781769
  80.3527527  45.4484291  72.9498596  79.9381104  46.0358543  72.3180084
  79.7200851  44.7401352  73.0693817  18.6452026  20.6819668  82.5875702
  19.3687859  20.9831600  83.1370697  17.8976593  21.2119370  82.8642349
  19.8886452  22.4727497  31.1754761  20.1817036  22.2717819  30.2866802
  19.3329544  23.2456856  31.0754261   7.1086583  19.0976620  35.1063385
   7.8204303  19.4916458  35.6107101   6.5766468  18.6418724  35.7586060
  33.5750237  51.3204651  83.4809494  33.2069321  52.1601143  83.7561417
  33.0585823  51.0723267  82.7141800  75.4491272   7.4310627  21.6302624
  75.7472305   6.5227814  21.5813580  76.2153549   7.9186802  21.9325104
  77.6055527  27.0727406  72.1800613  77.4206543  26.1467571  72.0232239
  76.9030380  27.5375938  71.7255173  62.5760155   8.5281248  56.2483215
  61.8544350   8.0649452  55.8228531  62.5997696   8.1707144  57.1359711
   7.2608147  29.4078865  82.7693787   6.6150756  29.1831036  83.4392471
   7.0165882  30.2894421  82.4875183  75.7426147  36.6808128  18.4782429
  75.4235229  36.3891792  19.3322716  76.5514755  37.1539078  18.6735611
  31.9818134  55.0130844  36.4333878  31.9694767  55.6332512  35.7043648
  31.3144970  55.3396378  37.0369492  77.0225754  67.3317108  88.7945023
  76.5660477  66.4973145  88.9021835  77.9399948  67.1279907  88.9763565
  23.5407372  47.1465225  72.5132599  22.8645191  47.2385445  71.8420715
  23.5127773  46.2210655  72.7561188  13.7022028  70.1193008  77.1864548
  13.7797155  70.2338562  76.2393036  13.0959435  70.8068466  77.4620514
  73.7688370  16.2235146  36.7405205  73.5474625  16.7924480  36.0032692
  74.6397247  16.5125294  37.0130196  16.1928883  54.7289886  74.4313583
  15.2494516  54.5842628  74.5035782  16.3986073  55.3295403  75.1477737
  51.6011162  48.0530968  24.7295265  52.1740379  48.1134415  25.4939556
  50.7224731  47.9535103  25.0960007  84.3863754  70.4159393  47.3982430
  83.8384018  69.7306442  47.0157127  84.9084320  70.7421799  46.6652641
  35.8164062  17.9619923  14.7765846  36.1815910  17.8146896  13.9041319
  36.5787277  18.1333351  15.3295202  86.1121674  15.8264847  45.3178635
  86.0777740  15.0652905  44.7385254  85.7950668  16.5516891  44.7795753
   3.0802917  50.2790680  54.2791710   3.8992677  49.9306717  54.6314964
   2.9884677  49.8572884  53.4248276  78.4144211  28.6973305  11.6956692
  79.1832352  29.0337830  12.1560602  78.4584274  27.7489128  11.8173199
  28.2861996  46.6412163   5.8272777  29.0742912  47.0508041   6.1841812
  27.8797321  46.2090340   6.5784340  60.0607872  43.8675690   9.8975887
  59.3426666  44.3760529  10.2743883  60.8503265  44.2427559  10.2875805
   6.8260779  68.1887054  14.4468288   6.2824655  67.5446930  13.9929962
   6.7411795  68.9854126  13.9231129  32.1086006  20.4799595  16.6229267
  32.2807884  21.3917503  16.8579216  31.4182949  20.5293083  15.9616613
  55.6936722  38.6253357  54.0458412  56.0587692  39.5091820  54.0040627
  56.3784103  38.1028328  54.4634018  84.8302994  33.0566483  69.6178055
  85.5012970  33.2910500  68.9766693  84.0129623  33.0556297  69.1196136
   7.1589785   2.0147769  77.6711273   6.3333483   1.6056769  77.4118881
   7.2039862   2.8154829  77.1485596  21.4097557   9.6543512  41.8250732
  20.6553974   9.5112038  41.2535133  21.0289783   9.8158255  42.6883049
  51.8427429  10.9328995  47.0810814  51.2392845  11.2043304  47.7727394
  52.6479111  10.7001677  47.5434380  39.6830063  56.2881966  72.6464081
  38.7767677  56.2576828  72.3397522  39.8496552  55.4100494  72.9889221
  19.7155724  26.5928574  88.0154572  19.6166515  25.7072582  87.6659393
  18.9091721  27.0418968  87.7618561  83.4254913  41.8557510  32.6629372
  82.9955750  41.9273682  31.8107185  84.3179855  41.5768242  32.4582825
  81.0655060  58.1041374  50.7224998  81.9552383  57.9536247  51.0417900
  80.8702393  57.3356209  50.1863213  17.7714958  39.0252609   9.2976007
  17.5058155  38.3691025   8.6533194  16.9733181  39.2128792   9.7915058
  49.6297646   5.6755981  52.3053360  50.0499191   4.8283200  52.4530602
  49.5029755   5.7180552  51.3575172  56.5989914  44.8216896  30.1632576
  56.8172989  44.3193169  29.3782768  57.1173744  45.6227341  30.0868282
  60.9625740  63.9385872  52.1570435  61.4111404  64.3485565  51.4174881
  61.6650734  63.5469398  52.6760254  13.9103231  60.2711945  32.8689690
  14.6022882  60.4865761  32.2436485  13.1007833  60.3370781  32.3624725
  59.0328598  54.1569824  52.0766830  58.5657120  53.3668709  52.3482170
  58.7554131  54.8261909  52.7023125  48.6743393  56.7265511  70.2081757
  48.0089951  57.1997604  69.7085571  48.2062759  55.9811554  70.5843811
   8.8696585  36.1976128  42.8492203   8.8713684  35.7353477  43.6873970
   9.1856794  37.0762939  43.0596542  68.4243546  31.6738281  55.5117073
  67.7500534  31.0846329  55.1734810  69.1787720  31.1071167  55.6727219
  54.0750389  30.4055786  48.0752602  53.8511353  29.8529015  48.8240242
  53.3101845  30.9685917  47.9559250  77.4211807  16.1230469  54.4980049
  77.9122391  15.4191656  54.0741615  76.6972427  16.3045864  53.8986816
   7.4982090  42.9266624  68.8096848   8.2895670  43.2522736  69.2385941
   7.7103033  42.9365501  67.8763275  65.7733765   0.2779595  49.8176880
  66.5438538   0.6114726  50.2774277  65.7916870  -0.6663218  49.9733467
  75.1598969  64.3687820  22.4296265  75.3847427  63.8515396  23.2030220
  74.6425095  63.7744904  21.8861561  61.6276321  15.3706894  30.9899635
  61.0474777  15.6494246  30.2814713  61.1511841  15.5910397  31.7903862
   5.1078186  63.1585388  34.6809502   5.8716316  62.6295700  34.9111938
   5.4468780  64.0509033  34.6105728  82.1748734  14.0817518  53.0984077
  82.0510788  15.0285788  53.1649361  81.4483490  13.7095089  53.5982399
  68.7913513  67.3478394  57.8418808  68.1170197  68.0084534  58.0003433
  68.4126740  66.7740097  57.1758842  70.3368835  43.4548531  55.7908173
  70.7174988  43.7303314  54.9568634  69.9683075  44.2563591  56.1622696
   0.6550159   0.5399271   6.1120300   0.8636084  -0.2983673   5.6997395
   0.8248660   0.3976872   7.0432396  27.7854710  42.2894669  64.5884628
  28.0708771  41.8471298  65.3879089  27.1974659  42.9802818  64.8938370
  43.6466904  35.4584351  67.0483551  43.5187416  34.5224380  66.8941879
  42.7625008  35.8040886  67.1706924  87.0418015  13.8661833  69.9736938
  86.3007202  13.2914963  70.1654663  86.6424408  14.7113476  69.7676697
  46.2442436  33.6343193  67.2487793  46.5054245  33.8377151  68.1469193
  46.2585945  32.6781921  67.2058716  75.3144455   8.6133204  18.4840813
  75.2375183   9.4552059  18.9330177  75.6362152   8.0121670  19.1558762
  39.4625893  55.9913216  35.6101494  38.5846405  56.0363159  35.2314529
  39.9881706  55.5477829  34.9443626  48.1944923  65.0292282  66.2439880
  47.7847290  64.1713486  66.1327896  47.4822922  65.6542282  66.1084137
  17.3000546  -0.0207872  67.8488998  17.5944138   0.8624991  67.6266632
  17.6259956  -0.1654635  68.7371979  69.6146240  38.3300323   4.7356844
  69.2875900  39.1511955   4.3683028  68.9287643  38.0485840   5.3411708
  40.4369812   6.8388238  21.6436749  41.1687088   6.2592626  21.4317455
  39.6899834   6.2506857  21.7546711  15.6014166  65.1041336  55.4466248
  15.7358027  64.2308502  55.8147964  16.4407730  65.3258438  55.0434418
   5.1917191  21.7381840   1.6454682   4.4071689  21.8973751   2.1702261
   4.9131093  21.8975620   0.7436886  15.5865164  36.7546272  55.7324295
  15.7380924  36.6076851  56.6660614  15.0804749  35.9931068  55.4491730
  41.3480072  52.8918800  20.6568680  41.3311501  51.9351692  20.6314278
  40.9415131  53.1605835  19.8329792   9.1461096  20.2479916  30.1255817
   8.5652819  20.6558971  29.4833317   8.5748796  20.0339966  30.8632355
  65.2082291   1.0988710  23.0451412  64.2916107   1.3452317  23.1690197
  65.6687546   1.9320245  22.9451256  25.6285324  26.9473915  15.2618141
  26.3471966  26.7264214  14.6694241  24.9736061  26.2664089  15.1083069
  37.4719620  48.1428146  10.3686523  37.7670403  48.9462852  10.7971306
  36.8066902  48.4342804   9.7451982  33.2027473  70.9680481  29.0201092
  34.0725822  70.8614731  28.6350632  33.3345413  71.5806503  29.7436943
  80.4266281  67.2348785  44.3962097  80.4213791  67.4262390  45.3340721
  79.5021820  67.2278214  44.1480331  84.9730835  50.0548515  20.6862774
  85.6748734  50.7051468  20.6573448  84.4015961  50.3505745  21.3949223
  25.1052303   7.3170462  78.9866333  24.6042652   6.5206332  78.8105850
  25.0093937   7.4569545  79.9286880  79.4321976  37.4276543  36.5638123
  78.7958908  37.6338081  35.8790817  79.3177261  38.1209831  37.2137527
  52.1390762  52.8744812  37.8625374  51.2859192  52.8279037  37.4310379
  52.5379448  53.6738930  37.5189133  85.3496094  47.8132820  82.0529327
  84.9192734  48.6681480  82.0370865  86.1873627  47.9748573  82.4868546
  30.2930698  43.0303802  17.8633118  30.3232613  42.1884804  18.3177567
  29.4174767  43.3705788  18.0472469  77.3288193  48.0701256  36.1148567
  77.8180923  47.3173828  36.4468536  77.7511444  48.2820549  35.2824173
  50.1262436  58.3564568   7.3111033  50.8672218  58.9318504   7.5011106
  49.5811958  58.8596649   6.7061763  72.1249390  38.0560722  40.6364441
  71.6610489  38.3561363  41.4181137  71.6681442  37.2550888  40.3795433
  77.8074570  27.1632824  -0.0983366  77.1487885  26.5269947   0.1800857
  78.1556473  27.5206032   0.7185583  29.4357681  20.9554577   8.6402683
  30.2024784  21.5243988   8.5717745  28.9131050  21.3414631   9.3431606
  55.2721710  42.1653595  36.2263718  56.1300507  42.5181847  36.4625702
  55.2199287  41.3307686  36.6921692  35.5647964  69.5853958  77.9469147
  35.8671684  70.3314285  78.4648361  36.3091812  69.3651581  77.3869019
   2.2661674  61.4472122  74.1046066   3.0485361  61.4404106  73.5531693
   2.5807748  61.1855850  74.9699402  65.0000610  58.3699570  41.1694298
  65.5010757  59.1156845  41.4997444  64.1098251  58.5196571  41.4876976
  20.5658817  67.9792862  54.8418961  20.4560051  67.1978455  55.3836594
  21.4283581  68.3179169  55.0820885  52.1861343  45.5137749  78.2089157
  51.6158981  45.8929291  78.8777237  51.9702797  44.5812302  78.2107468
  27.4039898  70.7406921  55.4143677  28.3557243  70.7482376  55.5162392
  27.0680008  70.6715088  56.3079872  28.9041672  -0.0276390  58.5734711
  29.1455441   0.5478272  57.8476562  29.1584930   0.4574216  59.3584976
  62.1869965  16.1057625  60.4347687  61.7545395  16.4514408  59.6539268
  62.4098015  16.8820019  60.9486198  26.5551643   4.4303493  13.0909014
  26.4506931   5.2431130  12.5961971  25.6616917   4.1123447  13.2205572
  11.3402758  67.3877869  51.2552948  10.8439932  67.0913162  50.4923820
  11.6626339  68.2548218  51.0091705  59.4354019  13.6922169  26.4073658
  60.1526489  13.2865686  25.9202976  58.7845840  12.9963493  26.4992199
  47.1530457  63.1119766  41.7120934  46.8047867  63.3208656  42.5788765
  47.3704834  63.9622688  41.3300476  84.6181946  26.8772926  12.4655724
  84.2166061  26.9507313  13.3313475  85.5542221  26.9988899  12.6246271
  82.0985260  68.6182098  42.6720161  81.6662674  68.1615906  43.3937340
  81.6446991  68.3100815  41.8875923   8.7029076  65.7284164  58.9931870
   8.6355171  66.6798553  59.0735435   8.4482183  65.5457993  58.0887451
  77.4294281  59.4576111  46.5152969  76.5529633  59.8400841  46.4735298
  78.0142899  60.2090797  46.6125984  59.1544647  19.2219505  76.1845093
  59.2163200  18.3544273  75.7847519  58.2206802  19.3390884  76.3593216
  38.3726883  46.6501617  22.0549927  39.2434959  46.6667366  22.4520493
  37.7710609  46.7487221  22.7929382  45.1767502  63.1783295  10.8803520
  45.8829575  63.0841522  11.5195971  44.3745041  63.1141396  11.3985357
  20.4458523  60.6788254   7.0537844  19.6391296  60.1868286   6.9009166
  21.1241436  60.1709480   6.6085706  79.9538651  58.8460236  81.2950668
  79.2736511  58.5598450  81.9046860  79.5230255  59.5007973  80.7456360
  28.3357639  47.5342293  85.7308731  28.7178020  48.1728745  86.3328781
  27.4163303  47.4796371  85.9914398  20.7909164   1.7620020  79.4928818
  20.7798996   1.7680256  80.4499969  21.7169838   1.6815035  79.2645111
  64.2914581  37.5917244  75.0238037  65.2246399  37.4725800  75.2004318
  63.9250107  36.7084541  75.0660553  15.1453009   9.5734482   2.4419436
  14.9555588   8.7307358   2.0295529  15.1517982   9.3848162   3.3803506
  57.8851357   1.2602320   4.5996943  57.2429733   0.6266659   4.2796068
  58.0558891   0.9927714   5.5027666  27.4574661  47.2353859  23.5983677
  27.1776009  46.6880150  24.3320503  27.8062820  46.6162872  22.9570599
  55.4537621  62.2943687  44.1250076  55.0939751  61.6269646  43.5407486
  55.7839203  62.9741631  43.5375557  49.8160973   1.4087623  21.0819778
  50.0154877   2.3212638  21.2913036  49.3225441   1.4532257  20.2630386
   2.9067576  21.6332359  64.6138382   3.4178610  21.0754032  64.0274734
   2.8574543  22.4750843  64.1609726  75.5730133  68.9143906  77.1036758
  75.6244278  68.3482208  76.3335876  76.2393951  69.5848083  76.9529800
  81.3201065  54.3654442  46.7872734  80.7911224  53.5987053  47.0075417
  81.2065582  54.4714508  45.8427620  49.4640656  43.2559090  61.8180237
  49.8653984  43.7358170  61.0935555  49.1953888  42.4217339  61.4330597
  47.7310982   4.1750159  25.3196507  47.8945770   5.0853958  25.5660534
  48.1870079   3.6609452  25.9860668   8.8421125  23.1472130  31.8743668
   8.6906166  23.8910408  31.2912693   9.1770220  22.4577579  31.3010273
  32.1898117  70.9057693  36.3970718  32.3005295  70.4572372  37.2353973
  32.5814438  70.3136063  35.7550468   7.4606662  22.3698139  28.4577904
   7.7953916  23.0086002  27.8283901   7.0055299  22.8966560  29.1146927
   2.6313081  53.4848862  49.1711235   3.1890616  53.2915192  48.4176331
   2.0041683  54.1305466  48.8454742  37.7249260  65.8518448  25.1977959
  37.0484619  65.9072952  25.8727417  37.7413521  64.9272766  24.9505348
  81.5948257  28.5461712  34.1170616  81.7839737  28.9811668  34.9484634
  82.2821426  28.8517380  33.5250664  66.3090820  17.1223240  86.0211258
  65.8353119  17.9169846  86.2666702  65.7693481  16.4076443  86.3589935
  79.9215164  46.1255226  64.3111191  80.6174927  45.5087357  64.0843277
  80.2950668  46.6614952  65.0107117  73.5508499  63.4378471   1.2147259
  73.5329208  62.5096626   1.4479218  73.5744171  63.4439850   0.2578357
  62.3795547  32.9368706   2.3036194  61.4601517  32.7998199   2.5319796
  62.6561050  33.6701622   2.8531966  28.6186676  56.1376839  54.6215477
  29.4262638  56.2665787  55.1189499  27.9196968  56.2576447  55.2644157
  72.6236954  34.2574425  69.4788437  73.3347473  34.2352676  70.1192627
  72.7991562  33.5152969  68.9003448  16.1981239  60.1864624  31.5346546
  16.6884327  60.1128998  30.7158642  16.2742195  59.3216972  31.9379177
  71.5175476  10.3339224  50.3003807  71.5187149   9.5672264  49.7273102
  70.5905151  10.5225916  50.4461365  71.7841949  10.5633469  41.4634399
  72.5830841  10.3263016  40.9924622  72.0337906  10.5364313  42.3871346
  70.7143936  44.8177185  69.8122635  70.6105270  44.7567024  68.8626709
  71.5681305  45.2332230  69.9336166  86.5297012  21.3731804  20.4674206
  86.2040558  21.1999187  21.3506947  85.7948532  21.1550159  19.8941498
  66.3569260  23.1228733  77.0732498  66.6495438  22.3385105  77.5373383
  65.7653961  22.7939911  76.3963776  68.3172684   4.2859392  19.8705654
  69.1806641   3.8727229  19.8762665  68.4404831   5.1048331  20.3506317
  59.0482635  62.0031700  55.5679436  59.4940834  61.5363274  54.8611679
  59.5179443  62.8341217  55.6397171   6.4150143  62.2910118  40.0615845
   6.5393372  62.9134789  40.7780418   5.5152225  61.9817810  40.1663933
   8.8080225  41.8266983  39.2337990   7.9475732  42.0928574  38.9097366
   8.8025398  40.8715553  39.1713333   3.4708850  15.6160908  32.6299515
   4.2758155  15.8877974  32.1889381   3.6949384  14.7835789  33.0458336
  16.1420727  50.8816452  24.1312542  16.3410110  51.7985840  23.9418316
  15.9095821  50.5065842  23.2818375  70.0354233  42.5658150  78.0286407
  69.8615112  43.2645721  77.3979874  70.5657196  42.9826660  78.7078018
  49.2271423   4.3444285  49.3224907  50.1543617   4.2903624  49.5539474
  49.2043953   4.1681633  48.3819351  29.6285839  27.6518040  77.9074631
  29.4840736  28.2426167  77.1683502  29.8576031  28.2300396  78.6350784
  42.9875069  70.2115784  39.3985367  43.1800079  69.2977524  39.1885300
  43.6131058  70.7141571  38.8767433  21.9403038  51.8248634  87.9956894
  21.7156143  51.8834496  87.0670853  22.6645679  52.4408684  88.1061935
  54.2266045  30.4369221  74.6384583  54.6861916  30.7171917  73.8469696
  54.9096642  30.0545902  75.1893539  76.8327789  31.1113892  54.1826286
  76.5867691  30.1994343  54.0275459  77.1044388  31.1334610  55.1002045
   9.0005636  11.4747410  69.9889832   9.9160099  11.6801682  70.1786957
   8.5008764  12.0918989  70.5234528  69.4605255  40.3597984  72.6562119
  69.1948929  39.9583168  71.8288803  68.7482834  40.1542244  73.2617569
   3.0005291  14.7153120  14.1245661   2.6359942  15.3398924  14.7516594
   2.5457108  13.8942680  14.3123379  83.1806793  50.7470474  13.7215805
  83.2974854  51.6884804  13.5939541  82.8875427  50.6628952  14.6288967
  16.8895473  46.7657585   3.4333715  16.4139099  47.1898079   4.1476421
  16.2878036  46.8025131   2.6898756  85.1547241  11.3282862  22.3865013
  85.6737137  12.0573740  22.7260818  85.4620132  11.2139559  21.4872055
  65.4798279  30.6535301  57.6085701  64.7043152  30.3544273  58.0832787
  65.5553360  30.0505314  56.8690300  82.1719284  46.3183975  79.7585068
  81.6902542  45.6754990  79.2380219  82.1644897  47.1128235  79.2245941
  14.3002834  52.4492073  49.6950722  13.7347956  51.8164139  49.2523232
  14.9798155  52.6537094  49.0526962   2.8606651  24.7238197  15.9251308
   3.1561391  24.8260098  16.8298321   3.3388286  23.9602432  15.6018019
  24.8666306  45.7982864   5.7228713  23.9908371  45.7089310   5.3470602
  24.9891376  45.0003281   6.2371511  14.4131985  50.5512695  85.5938568
  13.8555326  49.7753296  85.6500931  14.1764336  51.0724945  86.3609924
  71.1886978  57.9135094  26.1751080  71.8557968  57.6863632  26.8228779
  70.9684830  58.8249359  26.3675728  63.3562012  46.9422646  82.1667786
  63.1273727  47.6541939  82.7642899  64.3098145  46.9858208  82.0963898
  39.8874359  70.1628113  13.4004164  39.3865013  70.5803375  14.1011066
  40.5157471  69.6026917  13.8561811  30.3442059  26.0597095  10.7139759
  30.9936066  26.1435890  11.4121704  30.2455597  26.9477673  10.3706779
   6.8245959  26.4888363  21.0850220   7.3822203  25.7121201  21.1297054
   6.1048350  26.2340584  20.5077324  53.6880074  60.8416748  47.8776360
  54.0059624  61.5934906  47.3777275  53.4785614  61.1990852  48.7405510
  53.1809578  67.0903702  10.5727320  53.4718285  67.5095291  11.3826284
  52.3172989  66.7355347  10.7834797  55.5491676  21.1482277  82.2092133
  56.0446358  21.1009865  83.0268402  55.6904602  22.0412045  81.8947906
  76.5859833  53.4138870  35.6946297  77.0445557  54.1342049  35.2621002
  76.5849915  52.7080231  35.0481148  19.3695011  40.2986145  87.6067505
  19.0001183  39.9361763  88.4119949  18.6074238  40.5083084  87.0668411
  72.4215164  29.5958576  40.3970413  72.7919083  29.0234032  39.7252235
  71.7183838  29.0793285  40.7907753   9.0643396  46.8864937  75.3131790
   8.7415009  47.2958565  74.5104218   9.7946844  46.3386192  75.0256729
  46.1761436  62.0162888  45.0726395  45.4298134  61.4213829  45.1455421
  46.6445503  61.9155769  45.9013062  71.4506531  46.4488220  76.7500000
  70.9159927  46.7989655  76.0374222  71.0916672  46.8532524  77.5398102
  34.8943138  39.1619034  71.4647903  35.7540169  39.4964981  71.2094727
  34.8950272  39.2045593  72.4210358  52.1297379  23.3126755  27.5743790
  51.9285431  24.2335777  27.4079723  52.5664978  23.3130531  28.4261246
  11.1763716  47.7762184  21.6859055  10.6542797  48.1869698  22.3750629
  11.5858345  47.0233192  22.1121807  67.9725647   4.7045975  86.3223267
  68.1426392   3.7829852  86.5171051  67.9457397   4.7463770  85.3664093
  86.1395950   0.1869908  19.9905834  85.8254318   0.5234990  20.8298054
  86.6757050   0.8953121  19.6340752  57.0818291  44.4641533  48.6823959
  57.9123039  44.1379509  49.0289993  56.7003174  43.7129669  48.2280846
   4.6805210  64.7204437  19.0314293   4.5520716  65.1263199  18.1741085
   4.0929313  63.9648209  19.0291538  72.4082489  18.1481972  16.1975880
  72.1617050  18.8599148  15.6069031  73.3646240  18.1786575  16.2232418
  39.3292236  33.2237053  67.8146210  38.8787804  32.8774681  67.0442657
  39.0002670  32.6955147  68.5419693   0.2175239  65.0432358  54.4312744
   0.5105757  64.9420013  55.3368683  -0.6271673  64.5939789  54.4012375
  58.5707855  47.0648575  88.9847260  58.2277756  47.9580994  88.9584045
  57.8120728  46.5113945  88.7996140  58.1893959  70.0927963  77.6297226
  59.0142517  70.5707397  77.7158279  57.6495590  70.4147263  78.3516388
  70.3404999  47.2026329  40.0012093  70.3265152  46.8375969  39.1164589
  71.0207977  46.7050323  40.4548836  11.6915169  58.3237457  38.8951759
  10.7914839  58.3377686  38.5696373  12.1164846  57.6273575  38.3945007
  77.3492279  30.3845024  83.8085403  78.3041840  30.4448395  83.7829895
  77.1674500  29.7588520  84.5097885   2.1865361  45.4215202   1.8900290
   2.0816805  44.7455521   1.2204751   3.1087644  45.6719551   1.8351759
  11.1660004   7.8866596  27.3694134  10.2226324   7.8741636  27.5310688
  11.5222464   8.4302311  28.0721588  83.5947571  60.0210075  84.6723709
  83.9305878  59.5369453  83.9179611  83.2939224  59.3429985  85.2773819
   7.7888508  56.7333488   4.9323940   7.1607771  56.1660347   5.3795061
   8.1446495  56.1896248   4.2295394  60.5393982  22.7025795   8.8622208
  60.6396904  21.7846699   9.1144371  60.9351349  22.7565613   7.9923301
  47.5803108  35.7680779   2.3445692  47.9837646  36.6312103   2.2526002
  48.0902061  35.3372192   3.0305703  83.7007523   0.6721636  77.3211212
  82.9010162   0.9529780  76.8763733  83.4030685   0.3630468  78.1767273
  53.2686920  19.6096230  78.1174240  53.0701447  20.2631073  77.4467773
  54.0613174  19.9364357  78.5430679  50.4868698  61.8362350  31.1596050
  50.5772476  61.2214851  31.8877182  50.3528481  62.6861725  31.5789776
  86.6030579  11.9437885  57.7329483  86.1150360  11.3938503  57.1200562
  86.0791931  12.7413349  57.8085251  21.4015388  26.3528538   6.4760675
  21.0487995  25.5640965   6.0641565  22.3500137  26.2242565   6.4666653
  65.4468536  17.0885963  47.3058815  65.4450073  17.0761585  46.3487625
  65.2641525  16.1833210  47.5575294  13.6853342  62.0124092  18.8661728
  13.4930582  62.1771889  17.9430733  12.8374004  61.7921791  19.2518387
   6.2774668  55.6114464  20.8962955   6.5308690  54.7564087  20.5485477
   5.8055844  56.0320587  20.1775169  59.9217758   1.5986409  44.2651291
  60.1473236   1.0607262  43.5061798  60.5666161   2.3059976  44.2574997
  46.8533249  10.3252363  87.6265717  46.4957657  11.0514956  88.1373901
  47.6859894  10.1203423  88.0519180  62.4509315  47.8038559  65.9981842
  62.4513855  47.0372238  66.5713425  62.9133263  48.4767342  66.4978409
  81.1290741   0.6096551  58.6687355  81.3267670   0.1139968  59.4633865
  80.2665024   0.9908969  58.8326187  65.8666458  12.1348181   5.1699142
  66.5012436  11.7424269   4.5702910  65.5640259  11.4046392   5.7098145
  50.5651703  37.6040878  12.8132753  50.6566811  38.4419250  13.2670231
  50.5955963  37.8305397  11.8837452  63.9125786  67.3158798  76.8067780
  63.9195480  66.4309769  76.4419022  64.2855759  67.8629303  76.1155167
  61.9234390  25.2730713  14.8940248  62.3486824  25.2590237  15.7514639
  61.5847664  24.3850708  14.7800589  82.1807022  24.0454426   0.3455134
  81.9138184  23.1262436   0.3368737  82.1255035  24.3194885  -0.5699559
  32.9863701  47.4041786  51.3844452  32.7060318  47.9139824  52.1445427
  32.6260262  47.8759041  50.6335373  34.0467110  29.4863815   1.1559135
  34.6789742  29.0182819   1.7012190  33.3012543  29.6441498   1.7352520
  39.4043083  46.4165840  38.9112358  40.0635147  45.8839836  39.3562279
  39.5470352  46.2458534  37.9802589  46.3942337  23.0221157   9.4476719
  46.4700165  23.3232841   8.5422516  46.4122009  22.0671558   9.3847389
  73.5219498  25.3688393  28.0685158  73.7687225  24.4820976  28.3312397
  74.3203049  25.8839798  28.1847095   9.6675777  43.2846832  74.8722992
   9.7055950  42.5097656  75.4329147  10.3465405  43.8640327  75.2181244
  15.3643522   1.9060230  34.7140846  14.9539299   2.6681902  34.3055687
  14.6437311   1.4504055  35.1492271  23.5853271  62.1611977  82.2718353
  23.7495651  61.5854912  83.0187073  23.4152546  61.5648956  81.5426331
  16.6341610  55.6687927  84.2300873  16.1411095  56.4113274  83.8811264
  15.9919910  55.1718140  84.7369003  45.3770523  58.2788887  88.4466782
  45.4329147  58.1395569  87.5013199  44.4684486  58.0724792  88.6659164
  25.1691532  55.4818306  15.9460087  25.7646255  55.4452820  16.6945477
  25.6733875  55.1133423  15.2206144  65.5366592  35.9952431  30.3638439
  65.0499191  36.1756058  31.1680698  66.0605850  35.2210045  30.5695057
  60.7487488  48.5660858  56.7444687  60.9410973  48.5964661  55.8072891
  61.0728302  49.4008446  57.0826721  21.2256947  14.8528986  86.4888458
  21.6996975  14.1458807  86.9266586  20.3936710  14.4579210  86.2281570
  58.4930687  51.0511398  54.8331757  58.2986946  51.2558479  53.9185486
  59.3434639  51.4598122  54.9945755  35.7316399  13.0844288  86.4062958
  36.6363220  12.8390312  86.6001053  35.2063866  12.5588007  87.0096588
  83.1635971  14.1376534  36.2423706  84.0272064  14.2058687  35.8352356
  82.7296219  13.4296503  35.7663155  85.2404251  69.2506943  21.1552753
  85.8096466  69.9037247  20.7481174  85.7714539  68.8743439  21.8571320
  49.3974915  47.6798439   0.6760492  48.9252396  48.1613045   1.3553176
  48.8568840  46.9075546   0.5100837  71.0927277  31.7573166  42.6366959
  71.0857239  30.9247246  42.1644974  70.1954193  31.8604870  42.9536057
  80.2655411  26.3323345  78.3575897  79.5443268  25.7226410  78.2015305
  80.0972061  27.0605488  77.7595901  83.3976669  49.8731956  71.1174088
  82.5598679  50.0703201  71.5363007  83.6991730  49.0739212  71.5492477
  55.7094116  42.3369446  21.6015911  56.5892105  42.5177040  21.2706699
  55.5444679  41.4259987  21.3582783  46.1485100  18.5434666  22.8631344
  46.5313454  17.6861420  22.6769466  46.6567154  18.8772659  23.6024151
  34.6028252  59.7200851  39.1902390  34.4051437  60.1197968  38.3432541
  34.6538353  60.4583130  39.7974014  65.7011185  70.4342957  35.3551788
  65.5430298  71.2644196  34.9055939  66.6433029  70.2900238  35.2674332
  12.2822266  71.4002228   0.9721978  12.3874245  70.4904022   1.2503903
  11.8232546  71.8213654   1.6989821  -0.0363990  40.0213737  61.9614754
   0.2805994  40.6930885  61.3577042   0.7386131  39.4981499  62.1659927
  21.1260376  28.9503613   5.3109760  21.2587318  28.0371380   5.5652370
  20.2721272  28.9569225   4.8785114  81.7748947  24.4193172  15.6641731
  80.9962540  24.9760284  15.6684752  82.3575363  24.8174171  16.3109169
  21.7770290  39.5095558   9.5982389  21.8198261  38.6864357  10.0849380
  21.2691402  39.2984581   8.8148375  25.6455517   3.6453505   9.6715775
  24.8727226   3.5307143   9.1185627  26.3624630   3.7905502   9.0541735
  76.1881256  55.6929169   6.3186936  75.9289398  56.2185516   7.0755048
  75.3705292  55.3079491   6.0031414   8.6450129  63.1285019  62.8077316
   9.5209780  63.2364006  63.1782379   8.0558577  63.4604111  63.4851990
  79.1483383   8.5835075  51.4625969  79.6220703   7.7674842  51.3016243
  79.7274551   9.0879660  52.0338860  45.6419144  61.0603676  48.8871651
  44.9101105  60.5532074  48.5357666  45.2783890  61.9330635  49.0371170
  14.5274658  27.3088398  88.9761124  13.6977682  26.9265442  89.2619171
  14.2736616  28.0779228  88.4658890  83.0910034  34.7760735  52.0481186
  83.2093506  35.6118011  52.4995384  83.9216919  34.3170013  52.1723671
  50.9537964  59.1104279   3.1637719  50.3948441  58.4303284   2.7879105
  50.4246597  59.4967194   3.8616433  66.2985153  42.2363815  72.1243057
  65.7966385  42.5914764  71.3906479  65.7646866  41.5123940  72.4515610
  58.6546860  68.2556305  37.7781334  58.1830025  67.9824448  36.9912949
  59.3252831  68.8590012  37.4580154  12.7655678  35.9798737  84.0732651
  12.3783503  36.8548012  84.1014252  13.5871143  36.0967865  83.5961685
  22.7819901  69.1847382  34.4454422  22.7193604  68.3417969  34.8946190
  22.9674683  69.8142471  35.1422577  43.7515030  50.3376198  74.9947891
  42.9018631  49.9928398  75.2695236  43.8540535  50.0317497  74.0935898
  41.2608109  62.7827988  28.1184120  40.4629593  62.4874535  27.6797333
  41.9130478  62.8347893  27.4197598  56.1457405  66.1624069  60.5704613
  57.0664978  66.3864059  60.7055969  56.0265808  66.2012253  59.6215019
  39.3159142  23.6524868  18.2115078  38.4878883  23.3020401  17.8831844
  39.2136002  24.6024532  18.1538334  53.2214050  24.8737564  35.4686432
  53.3272820  23.9369831  35.3028755  52.5102119  24.9251080  36.1072350
  66.5918427  40.2453842  50.3909798  66.1609497  40.5303001  51.1968269
  66.2393799  40.8228683  49.7138443  63.7426300  66.9703674  21.5183983
  63.8191490  66.8907242  20.5675926  63.2644920  66.1857681  21.7867641
  42.5664978  45.2471428  51.3559151  42.7192459  45.9264374  50.6990623
  41.6453438  45.0110359  51.2465553  47.6640892   7.9101276  20.0487328
  48.0638084   7.8876123  19.1792812  47.7464638   7.0134850  20.3735085
  43.8870697  63.9092522  85.0964050  43.2121582  64.5808411  84.9979324
  44.7097282  64.3707504  84.9336624  35.7099075  66.7584991  54.3096962
  34.9256287  66.4425354  54.7583618  36.2474403  65.9759979  54.1872749
  70.9820023  69.6421051  86.7906265  71.8861847  69.7965393  86.5170822
  70.4568787  69.8770065  86.0255814  37.1620598  32.7220650  83.9947281
  36.2192688  32.6867828  84.1563644  37.3657188  33.6569748  83.9683304
   2.5879388  10.0180340  42.9860001   2.3733399  10.7511711  43.5627937
   1.7826411   9.8562784  42.4945107  52.3351364  35.9377518  79.6184158
  53.0192413  36.1635704  80.2486801  52.2233238  34.9920120  79.7148743
   4.5630507  59.0341873  84.1468582   5.4425793  59.4049187  84.2191238
   3.9916220  59.6953163  84.5375214  45.9695091  31.6245327  13.8006907
  45.8046532  30.6823273  13.7645588  46.1373177  31.8733501  12.8917561
  77.4818802   5.3312020  21.7328415  78.4262695   5.4541335  21.8290005
  77.3929443   4.7242060  20.9980774  67.5737610  38.1057358  86.8448257
  67.9638367  38.9518166  86.6252289  66.9407806  37.9449692  86.1450348
  28.1395416   5.1707792  87.7411346  27.7764034   5.6518679  88.4847183
  28.0190601   4.2492352  87.9702072   8.5884809  53.7438583  25.8425007
   9.3459978  53.4146004  26.3262253   8.1875658  52.9614792  25.4638443
  49.3238907  21.3845177  61.4705963  50.2152061  21.3660183  61.1220970
  49.2683601  20.6080780  62.0276375  57.6735916  29.8483849  62.6669464
  57.1799927  30.5694828  63.0575981  57.9058418  30.1627827  61.7931938
  24.2049980   6.3458314   2.8720338  24.5505486   5.5529885   3.2821884
  24.3721142   7.0384851   3.5112011  41.7297630  50.5012589  88.1711349
  41.7852554  50.3174515  89.1088867  42.6059341  50.3089409  87.8371124
  37.0617218  29.2434998  72.4836807  37.0549164  29.9267254  73.1540527
  37.7273979  28.6231194  72.7807236  78.5458908  34.5583687  20.1649036
  79.0575485  35.2361069  20.6066132  79.0236206  33.7470360  20.3373642
  63.3654823  58.4853363  28.0941010  63.7385254  58.9354782  28.8520241
  63.9042244  58.7715263  27.3564796  60.6885681  58.8745613   9.6429968
  61.3239212  58.1595764   9.6061592  60.3812714  58.9685936   8.7413549
  18.4769592  47.8731079  73.2729187  18.0758133  48.6525154  73.6574173
  17.8589420  47.5941887  72.5972824  46.1785202  45.9186020  28.0603008
  46.0608292  46.8009338  28.4122543  46.2894783  46.0492172  27.1185684
   5.4765735  18.6076565  56.4759254   4.5255699  18.6995201  56.5341072
   5.6163578  17.6802349  56.2846527  63.1447716  47.1426506  59.2503357
  63.1619301  47.7602005  59.9814796  64.0207520  47.1990051  58.8686104
  71.4049149  11.7231941  35.7389259  71.6110764  11.9528055  36.6450233
  70.5418472  12.1074066  35.5849113   7.7091517   0.1684968  41.7711945
   8.2617321   0.6714236  41.1729050   7.6528802  -0.6998764  41.3724556
  59.9432526   8.0357637  54.9283447  59.6590004   8.6501036  55.6051178
  59.2631226   8.0876694  54.2568092  28.7306938  50.0016785  76.1692429
  28.1585026  50.3473282  75.4841461  29.5125675  49.7070656  75.7022247
  20.8718872  30.6613293  69.3953934  21.7325497  31.0609608  69.5210419
  20.4547081  31.1979980  68.7214661  56.1564903  15.0166731  81.9578018
  56.5231972  14.5724640  81.1933212  55.2086868  14.9482765  81.8427963
  56.1771088  45.6404228  46.0470848  56.8097153  45.0067177  46.3853951
  56.1134720  46.3049164  46.7331123  63.9855232   0.2363154  30.5237408
  64.8721771   0.4031243  30.8435040  64.1122437  -0.1533321  29.6586685
   2.7575142  70.6611938  27.7367516   2.9587519  71.5791702  27.9185562
   1.8916188  70.5250931  28.1213722  57.7134399   3.4561696  52.1134987
  58.4391632   2.8592970  51.9310112  57.4138756   3.7400901  51.2498512
   5.5962305  34.1517982  76.4303360   4.7810478  34.6471100  76.5101852
   6.0543394  34.5612183  75.6963501  68.5736465  56.4092941  20.2581387
  68.8064575  55.6808510  19.6824627  68.7378540  57.1920776  19.7322865
  73.0397568  55.3268356  34.1083488  73.6473923  55.9607887  33.7274055
  72.5858765  54.9479103  33.3555946  39.1720161  55.6609001  60.9062958
  38.8343735  55.6367989  61.8016472  38.8218880  56.4730072  60.5400658
  71.4343109  52.0405693  47.2473221  70.7164307  51.4110527  47.1795120
  72.0584564  51.7653313  46.5758171  30.0268707  54.0931854  21.3954449
  30.3831921  54.7815666  20.8338432  29.8661194  53.3593788  20.8022175
  35.9820099  32.5833473  20.9398708  35.8783379  32.7494926  21.8768234
  36.1005821  33.4514313  20.5543728  49.8367577  26.9883595  29.7434883
  50.2949295  26.1625233  29.8993855  49.1431427  26.7640514  29.1231518
  41.2648163  49.9869270  16.8955956  42.1489143  50.2503204  17.1509914
  41.3157883  49.0356216  16.8025780  39.4271393  35.5133324  62.9781685
  39.4044876  35.6639938  62.0331688  39.3563194  34.5632782  63.0709991
  61.2059479  22.3005905  63.7421227  60.5239906  22.6724167  63.1827354
  61.2330666  22.8796577  64.5038147  17.2257137   9.1441793  68.6059113
  16.7523975   8.7280807  67.8854446  17.9063911   8.5136328  68.8411102
   1.4479655  23.3558846  12.9373436   2.1239395  23.5308990  13.5920668
   0.9581994  22.6135311  13.2912807  47.2068100  52.0542297  74.0415649
  46.3607941  52.2903595  73.6611328  47.0991592  52.2094650  74.9799423
  60.6916199  19.5289917  32.7446442  59.8543129  19.1719475  32.4485512
  60.5855370  19.6359749  33.6899109   4.9743819  68.1962051  16.4397316
   5.5333700  67.9918137  17.1893921   5.5853667  68.3339615  15.7158852
  86.1106644  54.0994835  50.6419601  85.9306793  54.4754639  51.5036316
  86.8762589  53.5415878  50.7792435  10.8534203  59.2250366  18.7323265
  10.9410162  59.2785072  19.6840096  11.7368317  59.0274963  18.4212112
  86.5440674  66.4776611   1.3953829  85.9396744  66.8452530   2.0402246
  86.9085388  67.2405319   0.9465862  35.2803574  21.1284313  88.9353256
  35.9119072  20.4217110  89.0692062  34.4260216  20.7074547  89.0308151
  78.1763535  36.4421616  30.2739506  78.5288010  36.6019363  31.1494408
  78.5923157  35.6269989  29.9933949  27.4961548  19.3011627  85.8585281
  27.9265385  20.1521721  85.7761536  27.9543095  18.8698826  86.5798645
  53.3515511  56.5430489  85.5860214  53.6874962  55.8499146  85.0177460
  53.0883026  56.0896301  86.3868637  63.9742393  42.6823235  88.4073944
  63.0768547  43.0039673  88.4938736  64.0115891  42.3107033  87.5260696
  63.2178230  55.7112389  56.3367424  62.6219444  55.6298637  55.5920677
  63.3782730  56.6517754  56.4134369  35.4179649  37.1694221  76.6889114
  35.0598106  36.2928391  76.5490417  36.2619095  37.0182304  77.1145020
   9.6735592  65.4181519  34.1723213   9.4282408  66.2403564  33.7480125
  10.6300659  65.4398117  34.2015915  67.8130646  59.7985840   2.0970564
  67.8481674  59.1388550   2.7897019  67.1760941  59.4546700   1.4707767
  54.2427101  12.0818996  88.4217606  55.1877289  12.2292242  88.3834610
  54.1362381  11.1541119  88.2117386   0.5689511  28.9940834  29.1451855
   0.4628763  29.1577492  30.0823059   1.3908213  29.4288120  28.9176483
  15.8331642  48.3950577  66.8822098  16.7663212  48.1983948  66.7999039
  15.4265509  47.5504189  67.0758133  52.2263870  67.4029007  13.5935192
  51.5475578  66.9238358  13.1182165  51.8213692  67.6230850  14.4323940
  36.1211662  35.5778465   0.8809397  35.2171936  35.5568886   0.5668943
  36.6324272  35.8553734   0.1207928  50.6082726  49.9888268  49.0743752
  50.2296677  50.4686317  48.3377075  50.3037148  49.0891113  48.9561119
  72.1029816  25.0295143   4.8181376  72.3195114  24.3968124   4.1332750
  71.7442932  24.4990196   5.5295796  56.0255280  41.3029137  79.6235199
  55.3524666  40.8590622  79.1075592  55.8684082  41.0130806  80.5221481
  84.3908234  63.9736443  55.0891228  83.4513779  64.0342712  54.9159279
  84.4811096  63.2066574  55.6546440  13.5054855  45.2762108  62.8750343
  13.2182188  46.0332146  62.3644905  14.2128706  45.6127701  63.4250946
  50.6993256  44.5232086  43.9249535  51.5602493  44.4114380  43.5217819
  50.8778954  44.5603294  44.8646164  24.2982788  14.4855795  87.6319122
  25.1847801  14.2276220  87.3793182  24.4007339  14.8769808  88.4993973
  20.4250088   2.3198929  37.1737747  21.0604897   3.0351880  37.2011490
  19.7960033   2.5838990  36.5022964  77.1947708   6.4915113  49.5346336
  77.6590958   5.6564107  49.5915833  77.1775513   6.8178244  50.4343300
  20.1101379  62.6435623  33.6143379  19.9147758  61.9497223  34.2441406
  19.7391281  62.3298416  32.7896156  12.4261618  63.0948868  33.8281136
  12.8958340  62.3390083  34.1806564  12.8348560  63.8497086  34.2517242
  80.1095581  24.2721882  66.9500351  79.4755783  24.4813271  66.2640610
  79.6790009  24.5369663  67.7629013  72.4008179  40.9645920  40.8237381
  72.5490112  40.0957108  40.4504890  72.1985626  40.7984390  41.7444534
  60.5235519  32.7062759  67.3155823  60.4789162  32.3724861  68.2115860
  61.4125671  32.4997673  67.0270691  37.2691803  63.7237892  17.9032669
  37.3594551  62.8570404  18.2992821  36.3440819  63.9428749  18.0147419
   2.6518950  18.9516525  50.3505898   3.2569804  18.7381916  49.6402817
   3.2166045  19.1073265  51.1076241  46.8109322  49.5645866   6.7361465
  47.1439209  50.3622627   7.1473150  46.6103096  49.8244019   5.8369918
  62.9618301  32.3184814  63.9185066  62.0100136  32.2427711  63.8510857
  63.2290382  32.7225189  63.0929260  84.3434677  38.2299423  25.3594532
  83.9121857  38.7810173  26.0125561  84.4235916  37.3751106  25.7826252
  13.4599133  59.0872803  15.1504011  13.9951658  59.4144325  15.8733864
  13.5589170  59.7452393  14.4622726  28.4845963  66.8682709  15.7744026
  29.2614212  67.4053345  15.6183767  28.5585976  66.1513519  15.1444950
  23.8207932  57.6733475  25.4099541  22.9611645  57.9398460  25.0839958
  24.2694397  58.4965324  25.6031303  73.0829620  68.7660446  58.7948074
  72.7790909  67.9406204  58.4172134  72.6453400  69.4417725  58.2770081
  52.4301224  28.4857273  23.7647095  52.3585167  29.4165440  23.9760952
  53.0031204  28.1293316  24.4435940  35.9150505  10.5211802  10.7955313
  36.6482010  11.0044622  11.1765289  35.9605141  10.7158041   9.8594294
  34.5946465  34.7952461  75.8587952  33.9376183  34.7601089  75.1635895
  34.5384331  33.9399757  76.2849197  61.3739700  34.8516617  42.1338272
  60.7273750  35.4761581  42.4626846  60.9825096  33.9934807  42.2966690
  65.7457809  42.8353729  41.5284042  66.4661255  43.2809219  41.9742928
  65.5333405  43.4045372  40.7887077  10.8974752  33.8934898  59.2718582
  10.8433561  34.5876312  58.6149940  10.7175112  33.0889397  58.7855034
  65.3448563  27.4760170  25.5478172  65.7791672  26.9443760  26.2148705
  65.3109360  28.3545227  25.9263802  16.7385788  51.0147209  13.8381500
  17.2747402  51.7138481  13.4640007  16.3131313  51.4180260  14.5948343
  -0.2391673   2.3103750  46.9841843   0.3367746   2.9757547  46.6076317
  -0.0961079   2.3763046  47.9283371  31.0400715  68.3439865  69.1127853
  31.6456451  67.8910217  69.6995850  31.1301880  67.8871765  68.2764587
  82.0902557   0.8662625  45.3035698  82.1481628   0.2866998  44.5439758
  82.9947891   0.9610375  45.6020317  68.8810806  55.0757904  81.9977570
  68.5203781  54.4230156  81.3977432  69.1901016  54.5671501  82.7474365
  37.5071602  49.2358589  69.3990097  37.3096657  48.7381897  68.6055679
  36.8750954  49.9546814  69.3944168  67.5964050  49.2828827  17.5820389
  67.4856262  48.4222374  17.9860802  68.4549408  49.2410316  17.1608543
  38.7153931  61.3668823  59.7793694  37.9427605  60.8032837  59.7390518
  38.3664322  62.2388229  59.9642448   3.3218968  35.4811935  15.4166298
   2.7944460  35.5118179  14.6184511   3.2328916  36.3553886  15.7962189
  10.4110260  38.7764664  45.2458076  11.3336153  38.5554733  45.1184387
  10.0507460  38.8202896  44.3600807  85.6253967  39.3322868  86.2316513
  85.9617386  38.4864311  85.9356232  85.8025131  39.3445740  87.1722412
  20.8719559  28.0665874   8.8132401  21.7068424  28.4806042   8.5946369
  20.7215462  27.4416504   8.1039705  19.1975174  55.3153839  24.6523151
  19.9986057  54.9122314  24.9869194  19.4684010  55.7520638  23.8447475
  79.8798141  26.2923164  33.7255745  79.4330673  26.2947674  32.8790207
  80.5432892  26.9779205  33.6482468  71.4230881  47.9227600  18.4843559
  72.0991440  48.4426079  18.9190292  71.0567474  48.5105896  17.8236847
  21.1891327  63.8534241  68.2873230  21.0289211  63.9999809  67.3550720
  21.9555607  63.2805023  68.3114624  66.7907257  31.4720287  40.5449867
  66.9932251  30.9979668  41.3515205  66.1544647  30.9168930  40.0941849
  25.9188938  14.3732796  70.3793564  26.8469067  14.5719795  70.2546997
  25.8515816  14.1095848  71.2970505   6.1253791  22.8542080  18.3640060
   5.6920838  23.1654205  17.5692520   6.7232881  22.1716785  18.0592308
   5.6221886   9.8635168  23.9029446   6.0160284   9.0557718  23.5732918
   6.3492818  10.4846334  23.9451561   5.6361051  68.9243851  27.9578075
   5.4193392  69.3488693  27.1277122   6.4838161  69.2955627  28.2024364
  70.6321640  51.3033791   0.6270582  69.7551651  51.1730194   0.9877648
  71.1888504  50.7090721   1.1301788  80.3095474  64.8269119  47.3619156
  80.1954803  64.2628250  48.1267815  79.6578445  64.5142746  46.7344055
   5.5256562  70.5145569  71.8782349   5.0109868  70.9416199  71.1934280
   5.3371086  71.0192108  72.6694336  14.1798077  49.4428253  57.6977005
  14.7680569  49.0844879  58.3623734  13.8175936  48.6733246  57.2584953
  48.0800095  35.2689133  65.7093201  48.4381752  34.5004807  65.2649536
  47.2319298  34.9780884  66.0445938  10.4643803   4.0214601  74.5782242
   9.5947819   4.2732739  74.2673874  10.2962742   3.4963386  75.3606644
  77.1737671  53.9979782  38.2569962  76.9155807  53.8744278  37.3435936
  76.3494568  54.1433525  38.7213326  45.2657623  54.0690041  51.6125641
  44.4828949  53.5636978  51.3934402  44.9691467  54.9790573  51.6199341
  21.6713295  69.8015060  79.5005569  22.1576366  70.2053223  80.2193604
  22.2848854  69.8026505  78.7658615  68.0815430  42.7394295  50.9800797
  67.8944855  41.8774185  50.6083603  67.2220612  43.1486435  51.0803986
  35.9828415  40.3165245  30.0193424  35.4543266  39.7235146  29.4852581
  36.0530167  41.1136513  29.4940853  20.1619015  55.8398857  50.3015480
  21.0376911  56.0699387  49.9912224  20.2871056  55.0268364  50.7909393
  37.1600914  29.7611580   5.1499071  37.8436203  30.2706203   5.5851822
  37.2320175  30.0034389   4.2266750  28.5106449  64.6284866  70.8301773
  29.2307358  64.0063705  70.7268753  27.7872105  64.1029282  71.1717300
  77.9207916  64.9174042   5.6546288  77.0046844  65.1858368   5.7247157
  78.1009979  64.9237747   4.7145658   4.9434114  11.1264954  70.1665344
   5.3935437  10.7677374  69.4017410   4.0745444  11.3646984  69.8431702
  55.6871338  54.1331749   5.1776705  54.8521194  53.8864670   4.7800260
  56.3086128  54.1323776   4.4496641  70.7804337  42.9911156  35.7159882
  71.5691452  43.4055367  35.3660889  71.0954971  42.1873322  36.1293869
  35.4957047  44.9751205  86.0942993  35.3807602  45.6222992  85.3984680
  34.6909065  44.4572754  86.0750809  41.0812721  62.4018898  69.3246384
  40.3939171  62.6384277  69.9473877  41.0850487  61.4446983  69.3242264
  32.7515259  52.3727341   5.9963388  33.4721756  51.8157501   5.7019515
  33.0568962  52.7413216   6.8252702  73.9737167  26.1150589  77.2815857
  73.5394058  25.3292923  77.6135178  73.4611588  26.8406715  77.6379623
  34.8443642  64.1275482  59.7456055  34.5296059  63.9266243  60.6269646
  34.8329277  65.0835571  59.6993370  82.2452850  16.1526604  30.5343952
  81.3389053  16.4535961  30.5987759  82.4644241  15.8614845  31.4195099
  10.6376085   7.6009226  22.0375824  10.1023703   8.3393106  21.7468338
  11.1709986   7.3768082  21.2750206  31.8218327  63.7381744   0.1656073
  30.9708347  63.3082657   0.2505185  32.4370766  63.0222549   0.0069776
  35.3968010  68.6167603  70.5419540  35.9773521  69.2834167  70.1748428
  35.3455582  68.8305054  71.4735718  20.2617340  53.6566124  41.4434090
  19.3457527  53.6957283  41.7185097  20.7296181  54.1808929  42.0933647
  16.6575851  10.9701414  84.3885574  16.3897381  11.5309362  85.1165695
  16.6264458  11.5420589  83.6216354  12.2055416  54.3079453  82.3749619
  12.5845909  53.4326782  82.4553452  11.5560265  54.3530388  83.0766220
  55.6927109  29.0264378   8.5856075  56.2209854  28.2836056   8.8777637
  55.6447296  28.9269924   7.6347976  17.3191605  40.6186600  12.6868057
  16.9619179  40.2383995  13.4893084  17.8890362  41.3255501  12.9897661
  86.0553970  46.5611687  13.6785908  85.1369019  46.2983780  13.7380962
  86.1933441  46.7408485  12.7485819   1.7809383  45.6567574  14.0742254
   0.8565902  45.9052773  14.0814133   1.8421726  44.9815445  13.3985262
  22.7003632  69.8299255  76.9399796  22.6647758  69.3799515  76.0958862
  22.5949440  70.7560654  76.7223206  47.9297447  33.1460037   3.8724346
  47.1757774  32.9352798   4.4232168  48.2834740  32.2947197   3.6147144
   0.7222660  67.4361420  81.0490189   1.3195218  67.8710861  81.6575699
   0.3942179  66.6795502  81.5349960   7.8927641   9.6321201  55.7765198
   7.6185584  10.1268244  56.5487328   7.6802325   8.7227898  55.9867096
  72.1871338  40.7031517  72.6218872  72.4830475  40.0356636  73.2408600
  71.2403641  40.5742111  72.5650787  27.9972000  55.5052681  14.1393337
  28.5204983  56.0610466  14.7168303  28.5534229  54.7448654  13.9701290
  10.6006031  65.0716171  26.9427147  10.6240625  65.2503128  27.8827934
  11.4026394  65.4688339  26.6033211  30.2099037  50.9558334  78.4176407
  29.6072311  50.9927254  77.6749039  30.3636703  51.8723221  78.6470642
  55.9531822  -0.0185321  46.2500610  56.7819481  -0.3555834  46.5903282
  56.0377274   0.9328620  46.3127785  15.2150431  12.4383612  70.7622833
  15.0400562  12.0058756  69.9264832  14.4806881  12.1848936  71.3214874
  83.7029266  20.5157948  75.7130890  82.8492126  20.7648811  76.0671463
  84.1634979  21.3461170  75.5919495  62.9118309  68.1592789  79.2267990
  63.2886467  67.9603577  78.3696747  61.9788017  68.2860107  79.0546799
   0.3369712   4.2692318  60.4313164   0.5346375   3.3655000  60.1854935
  -0.5932331   4.2581325  60.6567688  57.5844994  42.0069427   9.3072233
  57.7939911  42.8790092   9.6416607  57.1499290  42.1695213   8.4699974
  37.4583549  42.1838531  24.9688015  37.6707458  42.3973236  24.0602036
  38.0713654  42.7053642  25.4869480  15.6257296  53.2041931  59.4732628
  16.5015221  53.5687523  59.3455238  15.5196161  53.1632614  60.4236832
  42.1203117  50.8874664  53.9665565  41.9523926  51.2336731  54.8430138
  42.1478043  49.9380531  54.0852699   3.9827940  25.2688942  18.5498085
   3.9844270  26.2119808  18.7135601   3.8969891  24.8751888  19.4180622
  80.6293869  15.0807838  36.7109795  80.8648071  15.9379025  36.3557892
  81.3816071  14.5237293  36.5107536  52.1902084  37.5327301  40.9793434
  52.1619186  37.9831085  41.8234978  52.0899658  36.6063957  41.1986237
  13.6255312  15.7982016  23.6093235  14.3120394  15.1555252  23.4307022
  13.1533222  15.4414244  24.3616257  64.9966278  10.8812265  20.3286629
  64.8783875  11.3968582  19.5309315  64.7990036  11.4910364  21.0395126
   8.2585840  50.8543625  36.3814049   9.2086773  50.9270744  36.2904778
   8.0647154  49.9458694  36.1505547  11.1780663  64.6842575  20.9296589
  11.6921272  64.7138977  21.7365627  10.6452446  65.4790268  20.9557877
  81.3874207  51.8436470   9.9838800  80.9631729  51.0301781  10.2568464
  80.9248810  52.5286865  10.4665852  40.2770500  40.0005836  63.5963402
  40.2618675  39.1910973  63.0857162  41.0263634  39.8994865  64.1833115
  72.8295898  66.2055206  12.1544638  73.1682968  67.0601425  12.4211845
  72.3824997  66.3733597  11.3249035  43.8266640  44.3886986  27.4818077
  43.3188553  44.3532333  28.2924271  44.5645752  44.9630432  27.6863747
  52.3394089  40.3424606  66.7707825  52.7035599  41.1799202  66.4839249
  52.9639816  39.6891632  66.4555969  36.6074715  50.6687508  48.8791695
  36.6025352  50.2564964  49.7430305  35.7531013  51.0951576  48.8123894
  56.7161865  27.1470089  79.2430801  55.9447479  26.6905174  79.5788345
  56.6793022  27.0148125  78.2957687   8.6489344  17.6875706   1.4760603
   8.5838327  17.0536251   2.1902771   8.1846333  18.4600620   1.7984155
  33.6504631  36.5162315  80.5801315  32.8083992  36.9698982  80.6168442
  33.5688362  35.8077126  81.2185440  82.2711868   6.4845638  47.8710022
  82.5952759   5.5840964  47.8520622  83.0268173   7.0054030  48.1429939
  19.3494167  44.8051682   4.7326832  19.3038197  44.0913391   4.0966010
  18.5404835  44.7273331   5.2384486  80.3375015   8.9910669  34.9352531
  79.4255981   9.2542162  34.8111191  80.2984238   8.2926188  35.5886078
  40.8953781  26.4415264   6.8825688  39.9784164  26.6697388   7.0352988
  41.2078209  27.1044350   6.2668047  78.3130493  42.2114639  71.4789276
  77.5714645  41.7262688  71.8406830  78.8673325  42.4011955  72.2359009
  39.6751671  59.2625618  83.5124283  38.9335823  59.4728050  82.9449081
  39.9199257  58.3705635  83.2661209  50.6606369  62.2576180  64.2520981
  50.0516014  62.0051422  64.9460449  51.1941795  62.9501381  64.6419373
   4.1378050  62.6410141  82.3016205   3.4827788  63.2793770  82.0193710
   4.7808700  63.1568184  82.7880859  79.5957718  34.1357727  32.8296738
  80.3526001  33.9693298  33.3915863  79.4976883  35.0879135  32.8358154
  54.3799477  64.2851105  57.8814316  54.4482498  65.1373825  58.3117714
  55.2872429  64.0116425  57.7462845  18.8214855  46.0830002  10.3714066
  18.7441177  45.1461792  10.5519857  19.2078876  46.1272240   9.4967813
  17.7695179  64.6586533  33.0629387  18.4477406  64.6693344  33.7383118
  17.4943733  65.5721664  32.9853363  78.2034073  41.0117340  85.6924820
  78.6745605  40.8802376  84.8697128  77.9205399  41.9257088  85.6630707
  18.1667061  18.5340500   9.9445963  18.5386677  18.4005203  10.8164024
  18.9140034  18.7836380   9.4010124  75.7123718  12.7720804  10.4403753
  75.4918289  13.7018538  10.3845825  76.6684494  12.7498531  10.3998003
  47.3590202  48.9036407  19.6816177  47.3209839  49.3678169  18.8453617
  48.1105995  49.2865257  20.1341152  34.2459717  60.4059868  51.7312927
  34.1702576  59.4667969  51.5627060  35.0026932  60.4848251  52.3121414
  13.3963280  36.4245949  21.4980335  12.9513054  36.8792839  22.2131863
  13.2928553  37.0050774  20.7440014   7.9367595  10.5442667  27.7379704
   8.3545361  10.5666142  28.5988979   7.1916990  11.1398745  27.8177643
  85.1476974   1.2381786   9.0056858  84.5890579   1.6626886   9.6567965
  85.7094574   0.6547955   9.5159073  69.3031540  27.3132381  65.8334732
  68.8933411  27.1923180  64.9769287  69.3300476  28.2624035  65.9542694
  81.0020523   2.9086421  79.1280136  80.0676346   2.8003728  79.3051529
  81.3049545   3.5161164  79.8028946  43.8128014  18.6877422  15.4501381
  43.7682838  17.9788399  16.0917816  43.2402000  19.3679600  15.8046274
  24.2395020  54.0274429  71.2001190  24.8797169  54.7078896  70.9919128
  24.1676121  53.5122871  70.3965759   3.1568377  35.6540413  44.9316444
   2.2424881  35.6674423  45.2145157   3.1189787  35.8254471  43.9906769
  70.3820724  43.1762657  52.6196899  70.2888565  44.1280289  52.5785828
  69.5702057  42.8394966  52.2406311  39.1150589  50.7704277  47.9739647
  39.3315964  49.8543167  47.8005180  38.2534790  50.7383118  48.3897552
  13.7492437  66.1414032  64.1656113  14.2073002  66.1899796  63.3265266
  12.8493652  66.3966370  63.9623680  23.7925034  34.6449623   9.8883972
  23.2919197  34.8616028   9.1018124  24.7070179  34.7558403   9.6283989
   9.4300327  53.2709656  43.8202438   9.0750999  52.4274483  43.5396423
   8.9062672  53.5086212  44.5853691  69.1617889  17.7839241  51.7171555
  69.0182037  18.7172623  51.8736725  68.5871887  17.3447399  52.3442001
  31.3888493  48.4690018  59.0850716  31.2195110  49.2880898  58.6196136
  32.3178062  48.5102081  59.3121681  74.8369751   1.9065763  76.5875931
  75.2994766   2.3531373  75.8784332  75.3848648   1.1484517  76.7908020
  20.2708244   9.0672646  53.2353554  20.8958378   9.1226730  52.5125008
  20.3511753   8.1679077  53.5530548  28.7321510  60.7120819  17.5521202
  28.5279827  61.4985542  18.0580959  29.6295395  60.8488998  17.2484608
  74.4733582   8.5967016   4.3857174  73.5504532   8.3939095   4.2328892
  74.7838364   8.9443150   3.5496550  37.9571075  32.4620895  65.6736069
  37.6465454  31.5576630  65.6312561  37.8197250  32.8041115  64.7902145
  85.8088989   0.1943010  11.3626337  85.0280685  -0.0835730  11.8415108
  86.0161514   1.0568084  11.7222986  69.5623169  24.0138683   3.3099074
  68.6869049  24.0225639   3.6969659  69.9935913  23.2587566   3.7099631
  44.3804932  46.1233101  63.9030876  43.9445152  45.8010368  64.6919479
  44.8727913  45.3700371  63.5768089  42.9166603  39.1524620   5.1260333
  43.0535393  39.4478073   4.2258859  42.0309143  38.7895775   5.1269708
  13.4678240  60.1832314  86.4787292  14.4169197  60.1643333  86.6015854
  13.3186111  59.6678505  85.6860428  23.7134876  50.9795074  31.0490170
  24.1864548  50.7537155  30.2480469  22.9871616  50.3569298  31.0818577
  38.8610344  49.7648926  24.1974411  39.5806961  49.5084267  23.6207771
  38.6167183  50.6413879  23.9002934  81.7014465   8.2168245  73.0851669
  81.9254684   8.9281759  72.4851456  82.5217133   7.7386436  73.2065964
  75.8080368  49.2093964  39.5787926  75.1492157  48.9773369  40.2332611
  75.4008102  49.9076805  39.0661507  46.0096436  52.2105293  24.7241611
  45.3369331  51.7083702  25.1840801  46.7388306  52.2565956  25.3425426
  63.4715157  46.2173576  35.0290451  63.3777847  46.5283623  34.1286430
  63.5514297  47.0156784  35.5510941  39.7267189  67.3232803  10.5302572
  39.7610855  66.7084122   9.7974653  40.5909348  67.2598495  10.9368715
  49.3059845  43.7906876  15.6379213  49.7294998  44.0203171  16.4650478
  48.8565750  44.5917206  15.3684683   5.6801538  68.2754898  42.6576271
   5.1059361  69.0076065  42.4328842   5.2912955  67.8998260  43.4474983
  64.4574203  40.3974838  73.3507080  64.2780762  39.7745667  74.0550079
  64.0902939  41.2244377  73.6631088  68.9024277  43.2714615  15.7720604
  69.6156235  42.6380768  15.6919699  68.1550522  42.7539673  16.0718193
   7.7805147  51.7831230   0.6058887   7.6358685  52.7016068   0.8332586
   8.7328129  51.6887283   0.5847226  18.2185955  36.2970810  17.9981594
  18.6838589  36.9845161  17.5215092  17.3038044  36.4011803  17.7363338
  46.3635368  40.2801170  82.8383102  45.9625893  40.7304497  83.5817337
  46.3349571  40.9199295  82.1269379  86.3395462  53.8105316   4.0200815
  85.9789276  54.2619896   3.2569494  86.7035294  54.5102425   4.5624380
  60.9002800  29.0331535  40.1788483  61.4613533  29.5118847  39.5687294
  60.1689682  28.7274590  39.6422195  21.5278568  41.6232796  23.9682369
  22.1095657  41.5559731  23.2110615  20.7008076  41.2453690  23.6692238
  19.5318317  69.9856186  18.1282940  18.8204021  70.1566925  17.5111752
  19.4574623  69.0521851  18.3267727  34.4936218  37.9644356  87.2808685
  34.4699402  38.7837143  87.7752838  33.5974617  37.6311836  87.3264618
  72.0671921   7.0685611   2.3287711  71.2596283   7.0437989   1.8154973
  72.6277695   6.4057703   1.9254172  33.4973259  11.6856003   5.0611753
  33.2113686  12.4570351   4.5719423  33.0848427  10.9492064   4.6097207
  56.5073586   3.2082937   6.3443274  56.0677414   2.5365474   6.8656025
  57.4157104   3.1888919   6.6455727  26.9633427  37.6647072   9.0959969
  27.8132458  37.8499565   9.4954672  26.3368740  38.1566429   9.6268139
  33.4237480  30.4886246  13.3656120  33.7385826  29.7963181  12.7843866
  34.1827164  30.7128906  13.9040394  32.9903603  60.1032600  70.1102676
  32.4354172  60.7987747  69.7573853  33.2865868  60.4392052  70.9562149
  76.5887527  51.4857597  33.9552650  77.0611191  50.6753731  34.1459923
  77.0239639  51.8398170  33.1797180  81.3077164  21.7999477  66.5654297
  80.5384598  21.5022774  66.0797653  81.0873871  22.6897087  66.8411255
  16.4634495  42.7745171  87.3631744  16.7540112  43.6845131  87.4241333
  16.5871296  42.4239998  88.2452621  14.1714010  59.3776398  39.6488495
  14.6596346  58.5562325  39.7049866  13.3106985  59.1224556  39.3167267
  24.5474968   9.0570383  33.3557091  23.7453022   9.0528698  32.8335037
  24.5958118   8.1763344  33.7275391  70.0753937  28.4192524  79.0756912
  69.9440231  27.5341663  79.4156876  69.1970215  28.7183952  78.8407288
  52.1697502  65.9383545  21.3720856  52.3611679  65.1766281  20.8249416
  52.2752113  66.6872711  20.7853699  34.0978584  67.4797821  24.4182568
  33.9157410  67.7495422  25.3184223  33.7711830  68.2016220  23.8811626
   3.7352557  24.7913723  37.7440262   3.6602876  24.8845272  36.7943230
   2.9091032  25.1347389  38.0843239  86.8365479  40.3540421  64.9030151
  86.9987488  40.9919434  64.2080231  85.8918762  40.3965302  65.0514069
  76.4634094  27.4471645  14.5322790  76.2808075  26.9620991  15.3370152
  76.6641617  28.3350811  14.8281460  62.3866692  34.8676872  61.6579704
  61.5481110  34.6778412  61.2372513  62.1824837  35.5425529  62.3053474
  19.5003853  38.3433876  16.0503674  20.3889027  38.3123360  15.6956806
  19.6142883  38.2207260  16.9928169  74.4170151   8.4389629  56.8549347
  73.9421310   7.6330967  56.6517220  74.5730133   8.8463745  56.0029297
  65.2412643  36.5670013  61.6585808  64.7542343  36.7105827  62.4700089
  65.3995667  35.6232071  61.6380615  69.5044937  43.4839401  75.6101685
  69.8463593  43.4698563  74.7162094  68.5614243  43.3558159  75.5079956
  27.9040527   0.8886710  14.8439093  27.7376232   0.0380079  14.4378233
  27.2637386   0.9448624  15.5531855   8.1316671  32.5711365  43.9611282
   8.9060078  32.4841805  43.4051895   8.2102041  33.4438515  44.3463974
  70.4465790  25.2996216  35.8297844  69.6685333  25.4931221  35.3068733
  71.0054169  26.0691662  35.7214813  71.6107025   7.0010252  64.4736710
  71.7349548   7.3601117  65.3522186  70.8064117   6.4859123  64.5370102
  82.9885864  67.5106583  11.6669359  83.6333694  68.2171097  11.7044592
  82.3482895  67.7346573  12.3422680  82.2956848  15.4263859  80.5913162
  83.0961685  15.4118643  80.0666656  81.5957108  15.5773811  79.9561310
  22.7993889  54.2629929  67.5450058  23.0703621  53.5193214  68.0832901
  23.3990154  54.2497902  66.7990112  21.6645336  50.3141365  37.7331657
  21.0708237  49.9935989  37.0541992  22.4030113  49.7054863  37.7124176
   2.9600439  69.0194778  11.6897488   2.7976029  69.9599533  11.7628708
   2.3606422  68.6230164  12.3220215  65.5163422  44.6989975   2.6144509
  65.9201279  44.3569984   1.8168159  65.8142242  45.6073570   2.6632020
  84.3701019  32.0387077  21.1355686  84.3438644  32.9913025  21.0455456
  84.9195938  31.8858185  21.9042797  69.5386200  14.3228588  78.5201416
  69.9479828  14.4968328  77.6725693  68.9980316  15.0947580  78.6879807
  14.4062061   1.1141551  48.7419205  13.5547352   1.2077157  49.1690903
  14.9946985   0.8286770  49.4407806   4.5996828  33.1609268   8.1111450
   4.4902902  32.5092468   7.4186287   4.3812585  33.9937820   7.6929612
  54.8229561   4.3426456  18.8061142  53.9197655   4.0308285  18.7491302
  55.2304573   3.7775824  19.4625263  34.5071678  49.7440186  58.5864601
  35.1251297  49.9478073  59.2884712  34.3335495  50.5871887  58.1679459
  77.8187637  60.9934006  14.7914448  78.7612076  61.1563873  14.8298903
  77.4283600  61.8635330  14.7096682  71.4287796  54.0777626  49.1359863
  71.3989334  53.5114098  48.3648911  71.6198044  53.4839706  49.8620377
  22.2729836  13.9563618  71.6656265  22.0309830  14.4329929  72.4596634
  21.4470577  13.8371782  71.1967163   5.7177835  63.0299416  13.3172560
   4.7707853  63.0558395  13.1803026   5.8826585  62.1626549  13.6872025
  55.5201912   0.6425517  62.7827568  54.6227875   0.4023741  62.5520744
  55.6831818   1.4524430  62.2992897  30.5221882  36.6995125  80.5148849
  30.2334442  37.6084251  80.4328003  30.7514114  36.6035805  81.4392700
  79.5545273  67.3266373  65.7208862  80.2817535  67.8832397  65.9993896
  79.8048172  66.4467545  66.0026550  82.9817734  12.9968834  21.3514900
  83.0255432  13.6334867  22.0649681  83.6320496  12.3334560  21.5822124
  66.7718124   8.0931549   5.4176607  66.9650803   7.2687955   5.8641057
  65.8518524   8.2645836   5.6189265  55.3147049   9.4338970  42.3822289
  56.2433052   9.3237705  42.5866852  55.0118752  10.1026211  42.9965057
  28.6496735  62.9341660  56.7194557  28.1861305  62.2814026  57.2441063
  28.0560665  63.1227188  55.9926033  11.3225889  20.5131092  22.9695053
  10.5856295  20.5930405  23.5750904  11.4211454  19.5705070  22.8352795
  45.1369057  54.4738846  14.9577112  45.9273338  54.9144211  14.6456585
  44.4263039  55.0799522  14.7480526  61.0025749  31.1025200  78.3422775
  61.6336479  30.6894474  77.7529144  60.5493317  31.7446232  77.7959213
  44.1146851  53.4488907  31.0794506  43.1917534  53.1991806  31.1249084
  44.5372467  52.9297676  31.7636929  11.5458469  17.8810120  22.7805691
  11.5302839  17.5871830  21.8697166  11.9666691  17.1647797  23.2561245
   1.2835879  71.4605484  36.2655373   1.0206786  70.5944061  36.5768280
   0.8339990  71.5601196  35.4263763  78.2364044   3.9103034  31.9273319
  79.1793747   3.8432856  32.0774956  78.0552826   4.8497353  31.9572372
  85.4937210  31.9040871   6.9169245  84.5979614  31.7927361   6.5984240
  85.7559357  32.7674522   6.5974336  11.7160358  12.3290119  24.3669758
  11.3420782  11.4492073  24.4152679  11.3371792  12.7916517  25.1144142
  62.1232376  13.8699818  53.4191475  61.7935638  13.1671381  53.9791107
  61.3774910  14.4603586  53.3116951  13.3695393  58.5397568  81.9834518
  13.5237665  58.2653236  82.8874054  13.3593102  57.7234116  81.4837418
  10.4399662  15.6293793  74.2481537   9.8977079  16.3722439  73.9829330
  11.3184719  15.8520670  73.9401398  79.4509583  51.3496742  18.4932480
  79.3650055  52.1454735  17.9683189  78.5500336  51.0630798  18.6430264
  16.0858669   2.2574484   7.0780520  16.9821396   2.3804655   7.3907762
  16.1840801   1.7972860   6.2444835  33.9200096  29.3804760  84.4487152
  34.1477509  29.2911606  85.3741302  34.6955414  29.0716305  83.9803162
  38.4402504  58.8014450  13.4195652  37.9195824  59.1829643  14.1263752
  39.3243446  58.7376900  13.7808800   5.7425017  63.2005157   0.0038707
   4.9891000  63.3952293   0.5612794   6.4956679  63.5259628   0.4968787
  10.9318380  64.3608170  31.4409046  11.3000107  63.6943855  30.8607788
  10.6252270  63.8711166  32.2040634  60.0060005  27.9606991   0.3570939
  60.8322945  27.7130394  -0.0578021  60.1492767  28.8574200   0.6597398
  83.6493988  22.5103321  15.9758577  82.9856796  23.1829052  15.8230162
  83.7149506  22.4507427  16.9289494  59.3601799  42.5288315  44.7662010
  59.2932129  43.4836731  44.7607460  59.1716309  42.2703514  43.8640556
  74.2763519   8.8745251  33.0688133  74.3438263   9.1176710  33.9921570
  73.5219269   8.2866526  33.0304489  67.9631271  43.2958107  24.9971085
  67.2343521  43.7078133  24.5330200  68.7432938  43.7282677  24.6499119
   3.4652927  53.6383133  42.5170059   3.5707746  54.5440674  42.2259483
   4.3386712  53.3773651  42.8091469  24.9902611  26.3032093  80.6575928
  25.8889351  26.4900436  80.9290848  24.7052517  25.5996704  81.2407150
  69.8903656  63.9530258   9.8282299  69.9367599  64.7888184   9.3639774
  70.6057053  63.4344635   9.4599800  52.8829422  17.9514465  41.2679291
  53.1533928  18.5702858  41.9462547  53.1507797  18.3640099  40.4467812
  54.5058746  44.1637802  34.6123123  54.9444084  43.5903702  35.2408981
  53.7577896  43.6527672  34.3033333  67.5413437   0.8885258  53.2518616
  66.7999420   0.7829021  53.8480110  68.0011749   0.0499047  53.2905846
  13.8198900  53.4559708  32.1182518  13.3693056  52.8288727  31.5526066
  13.1185904  53.8771782  32.6152382  29.5341339  21.9996490  82.3366623
  28.9507484  22.3411732  83.0143433  29.8774662  22.7796516  81.9008255
   0.2469299  41.4157295  14.4981737   0.7968561  40.6379700  14.5925236
   0.6945040  41.9470863  13.8397131  19.9348698  42.1798401   4.6901789
  19.1948891  42.1118965   5.2935400  19.6835270  41.6395111   3.9411092
  20.8340321  71.5230484  54.5723419  21.5370159  70.9497147  54.8778534
  20.7874622  71.3635101  53.6296806  44.3686638  28.2527390  48.5716019
  44.9767075  28.9603558  48.7855873  44.6655807  27.9310226  47.7203865
  29.6710720  22.9958096   3.5333161  30.5682678  23.1618805   3.2440212
  29.2069397  22.7363071   2.7374067  14.8853750  47.9028893  24.1727486
  15.4111195  48.2827797  24.8766727  15.2533636  48.2751198  23.3713360
  72.4363403  27.3552227  35.2715073  72.3118515  28.1663151  35.7643204
  73.2644043  27.4811707  34.8081818  56.4883881  52.4009361   9.2644634
  55.9498138  53.0279083   8.7816839  56.5159340  52.7460861  10.1568460
  33.6745911  44.7791252  66.3660049  34.0186996  43.9421768  66.0540085
  32.7934647  44.5741768  66.6787949  10.5516090   7.8920999  82.7770386
   9.7865238   8.0177965  83.3383560  11.2999678   8.0251732  83.3588257
  83.7494583  65.6017380  79.3063278  83.4373856  65.9692535  78.4794235
  83.2961578  64.7620316  79.3814468  12.9617376  59.5609512  66.8243027
  13.6980886  60.0675774  67.1668625  12.5725489  59.1515694  67.5970688
  60.1773453   0.2473960  38.8517838  60.0826759   1.1961889  38.9358177
  60.2378044   0.0953241  37.9086800  73.4603043  51.4098854  66.3457184
  74.2773209  51.3291702  66.8378525  73.0733719  50.5349998  66.3787384
  79.3687973  24.6734371  81.7105560  80.2345734  24.6659908  82.1187286
  78.9809341  25.5038185  81.9867172  61.1603394   8.4990282  10.4654884
  60.5915565   8.8099499   9.7611837  61.2856102   9.2637320  11.0274200
  57.6676979  33.8809357  68.1835251  58.3848228  33.2516327  68.2605896
  57.5866203  34.2600250  69.0587082  50.3407784   7.3243136  23.1881866
  50.3266754   6.5893893  22.5750637  49.4292259   7.4250498  23.4623299
  43.1544495  68.8137589  70.3118973  43.0828514  69.5480270  70.9217911
  42.3212776  68.3501587  70.3963242  50.4140663   5.7646031  37.8538437
  50.2990646   6.6977096  38.0336189  51.1959457   5.7213283  37.3033676
  37.3141975  25.5033760  80.8837204  37.1255035  25.7343559  81.7932663
  37.4548645  24.5567322  80.9012375   1.7443181  42.7242279   8.3321247
   0.9841259  42.9899559   8.8495493   1.8928246  43.4549599   7.7319522
   2.8363485  62.8969421  18.1188583   1.9649463  63.0623665  18.4787540
   2.7307973  63.0101242  17.1742516   4.4436574  71.3830795  19.8056183
   4.3873715  70.4281158  19.7723312   4.2627277  71.6019516  20.7197247
  27.3318577  28.9297504  22.5438175  28.0163517  28.3359127  22.8521328
  27.3212910  28.8105621  21.5941257  20.3056622  25.0561695  22.4020557
  20.5895348  24.2385406  22.8108730  19.7670612  25.4827900  23.0684891
  56.2526741  16.1682415  47.7543411  56.8677444  15.4657917  47.9652596
  56.7444878  16.9735317  47.9151497  26.4284611  67.4546509  47.3192024
  26.4510326  68.3781509  47.5699387  26.1430016  67.4614258  46.4055824
  65.7888947  50.5774879  77.5909729  66.1150894  50.6791992  78.4851151
  65.0688553  49.9515762  77.6684494  31.8095093  37.0805473  87.4521561
  31.5652237  37.9147415  87.0513077  31.1075935  36.4798470  87.2017517
  83.7817535  66.9611053  48.6981735  82.8505554  67.1343231  48.5599518
  83.8893280  66.9747696  49.6492119  37.7786865  70.4625473  68.7570114
  38.7247849  70.3798752  68.6374512  37.5499344  71.2738113  68.3033981
  36.3793716  58.5058479  40.9300461  35.5028801  58.7579002  40.6394310
  36.8454514  58.2867355  40.1232071  81.1211243  66.9469147  40.3759575
  81.9441147  67.0758362  39.9044762  80.9685745  66.0027161  40.3377609
  56.9961777   0.4162256  41.8436356  57.3275604   1.2725085  42.1141815
  57.7785835  -0.0753972  41.5938759  57.0958977  62.6278572  35.3804169
  57.7837410  62.2532539  34.8301659  56.9286537  61.9583702  36.0437775
   0.8022508  42.8689613  44.6151466   1.1322130  42.6024361  43.7570572
   0.3940043  43.7208557  44.4607391  51.8294373  56.0071983  73.0872269
  52.3129311  55.4093361  72.5171127  50.9196892  55.9287376  72.8001099
  69.0281601  59.0711365  22.2044907  69.7494583  58.5725174  22.5883293
  68.6084671  58.4587135  21.6003170  83.7484970   1.5315491  73.1959229
  84.4882050   2.1157815  73.0293732  83.0294037   2.1171663  73.4329605
  67.0800323   3.1877513  42.9304733  66.7122955   2.8397970  42.1181107
  68.0136642   3.2904971  42.7460518  39.7082596   3.8517582   8.3589821
  39.4838066   4.6661210   8.8091669  39.3684502   3.1616609   8.9286547
  54.6824799  51.4454384  88.5987396  54.7333488  51.2144737  87.6712189
  54.7955551  50.6139069  89.0591812  34.8057137  46.7785873  83.5854263
  35.5356140  47.1066208  83.0601959  34.4100914  47.5642624  83.9628296
  73.2501221   6.1618156  24.2604752  74.1948624   6.1479902  24.1071568
  72.8722534   5.7968864  23.4603062  84.7217941  61.7984543  56.9696045
  85.5240555  61.4447708  57.3536835  84.0180130  61.4306717  57.5040779
  54.8407135  50.4490509  85.8997955  55.6868095  50.5062790  85.4558640
  54.3529892  49.7928314  85.4020615  53.3356285  66.6081696   1.1991318
  53.1246300  66.3987198   0.2892729  52.9682312  67.4815063   1.3352629
  56.7871704  58.7876205  51.6611023  56.7854347  58.5324669  52.5836639
  57.1400299  59.6774063  51.6593513  61.0660210  22.8436089  36.7983742
  61.6585159  23.5621510  37.0194550  61.3062553  22.1407070  37.4020691
  72.1191711  71.6803589  66.4346619  72.5331421  70.8183136  66.4762497
  71.6584091  71.7653122  67.2693558  72.3027496  17.6500225  88.3696289
  72.2644882  18.2499008  89.1145554  71.8620682  18.1193581  87.6612854
   3.7069399  69.1926270  48.5457954   3.8958724  68.7019196  47.7459564
   2.8175442  69.5231857  48.4195404  33.3979874  21.6136436  76.9693756
  33.3791122  21.8718224  76.0478439  33.2541046  20.6674156  76.9560089
  19.1124077  41.2514801   8.8247099  19.8585625  40.9787254   8.2907705
  18.6946125  40.4318123   9.0889473  80.4100876  10.1594009  75.0774765
  81.1180878  10.5159798  75.6139679  80.8402100   9.5248060  74.5043106
  58.7847099  69.8205948  57.5459557  59.3788109  70.5681610  57.6124573
  59.3506012  69.0850525  57.3114738  28.0825672  54.3640442  43.4797173
  27.9288521  54.5064316  44.4137039  27.8514729  53.4463234  43.3361282
   0.8654810  31.0476475  65.6823959   1.1480873  30.9785156  64.7704849
   1.5670066  30.6308918  66.1828003  43.1953201  55.6504784  19.5260677
  42.9542580  55.2685890  18.6821003  43.9505005  55.1376495  19.8140640
  59.4163361  57.3340569  29.0333366  59.5742416  56.4529953  28.6941738
  58.4630089  57.4194336  29.0436687  15.7090778  15.5011845  84.1950302
  16.4396496  16.0674076  83.9462509  14.9693890  15.8247643  83.6808395
  63.9708061  69.3046722  74.8070221  63.5663681  70.1594162  74.6584167
  64.8964233  69.4998474  74.9532089  61.5206223  26.1548653  51.8184128
  61.0196304  26.9545155  51.6577950  62.3496284  26.2956867  51.3610802
  51.9462166  50.4200020  22.9449387  51.9178123  49.9255905  23.7640743
  52.8355560  50.7721062  22.9084206  59.9060555  12.8899612  47.3765564
  59.7234917  12.0599995  47.8170853  59.1048317  13.4016495  47.4881210
  76.2198486  30.3591003  45.0500259  76.8744278  30.8041897  45.5882149
  75.3799210  30.6600056  45.3967514   0.9165413  12.8162041  54.8536758
   0.9201494  13.4537334  55.5676613   0.9985843  13.3449764  54.0600128
  19.9705715  33.9957047  21.7107048  20.1938667  33.7172928  22.5988808
  20.7808361  34.3717232  21.3667393  48.3578033  26.0253296  82.0201187
  47.5647430  26.1901131  81.5100861  48.6848755  26.8969555  82.2426529
   8.5377426  42.7107697  45.0764046   8.0972338  43.3676720  45.6155396
   7.8626451  42.0563507  44.8969345  56.3730888  41.1792526  55.1491089
  56.5346031  42.0939598  55.3803101  55.5728455  41.2025375  54.6244202
  79.2366867  51.8707695  66.5595856  79.2070389  51.0598106  67.0672226
  78.4271240  51.8633957  66.0489044  13.0722313  44.6708755  69.5856247
  13.6682959  43.9219284  69.5817413  12.4051733  44.4427376  70.2330933
  75.9558258   0.2047480  59.2477760  75.0575104   0.3200498  59.5575562
  75.8611908  -0.0733914  58.3367805  25.5125294  66.4703598  14.4490204
  25.6858025  66.5692978  15.3851938  24.5711422  66.3054733  14.3957911
  74.9541245  20.8924923  69.9370117  74.0597763  20.8960629  69.5959015
  75.4959259  21.1505146  69.1912766  61.9726944  63.4028893  78.9616241
  61.4656448  64.0283813  79.4792023  61.3782730  62.6644974  78.8286972
  51.4869270  14.5893507  70.6070709  51.4901161  14.0943708  69.7877960
  52.3966751  14.8624306  70.7254639  79.1930237  52.7034874  15.7492466
  79.3860092  53.5452919  15.3365097  78.3228607  52.8179474  16.1312885
  76.0007019  37.0629539  26.4825478  75.5968323  36.2312431  26.2348061
  75.2754059  37.5917664  26.8150158  29.9793110  47.0157356  57.0057602
  29.6114140  47.8726730  56.7900238  30.4920158  47.1681595  57.7995720
   8.4797564   4.7327442  65.9974365   8.1441574   3.9602768  66.4523010
   8.8313656   5.2870202  66.6941299  29.2566376  36.2852058  24.5591106
  29.1799221  37.1544609  24.9524822  28.7060623  36.3267174  23.7772045
  14.5919838  29.3940964  64.4656677  13.9952030  29.2105732  65.1912079
  14.1652060  29.0077648  63.7009201  51.8895798  21.8135014  33.4310150
  51.6276588  21.3249969  32.6506348  51.3280716  22.5887012  33.4279938
  31.0583668  41.2681313  14.5379448  31.1016579  42.1963882  14.3083839
  30.4841900  40.8840675  13.8753395   1.1205130  60.8174210  33.6381035
   1.6122526  60.2697296  34.2500343   1.4000752  61.7107239  33.8383293
  74.5406952   3.0276051  73.9897079  73.8185196   3.4119105  74.4867096
  74.8622437   3.7436945  73.4419403  21.4770775  53.7548866  10.1661577
  22.3351326  53.4237022   9.9010372  21.0685959  53.0211258  10.6254673
  73.7270508  47.6161766  68.8323669  73.9642715  47.0917091  68.0675888
  73.4433060  46.9749031  69.4838943  30.2935276   5.5315022  39.5500984
  29.3974457   5.8609500  39.6189079  30.8239727   6.3119345  39.3895226
   9.7748909  28.5711136  55.5979500   9.0085192  29.0395107  55.2670250
   9.8370724  28.8324776  56.5166740  70.8124542  29.9653206  45.4603424
  71.3437195  29.8628502  46.2499580  70.4352570  30.8416767  45.5375023
  51.8784943  39.8158646  58.3687286  51.4360580  39.5306664  57.5692635
  52.4799995  39.1011581  58.5775795  75.8026352   5.5898557  23.9683266
  76.4195328   5.7503052  23.2542305  76.3294296   5.6731362  24.7631760
  41.3468246  40.3648491   8.1165209  42.2830582  40.1757584   8.0537548
  41.2336731  41.1795578   7.6269484  14.5018578   4.3545856   7.8854222
  15.0071602   3.7131560   7.3859529  15.1620436   4.8810844   8.3361835
   7.0948534  13.1826639   1.0281223   7.2284813  13.9878044   0.5279989
   7.5618143  13.3311777   1.8503890  70.8697052  52.4304123  51.2670517
  71.0406952  51.7291489  51.8957176  70.5313034  53.1511269  51.7983551
  56.8768730  14.0650015   1.0408114  57.6724739  13.8339863   1.5202726
  56.6669273  14.9504604   1.3376577  48.7339249  59.7631302  41.0936661
  48.5041389  60.2086601  41.9090996  48.7952690  60.4653740  40.4461136
   1.7837124  -0.1017458  11.2968912   2.0572019   0.7316194  11.6802158
   0.8324960  -0.1135355  11.4031000   0.1044557  33.4071388  25.8726845
   0.1874356  32.5623322  26.3150043   0.9754129  33.7986717  25.9387798
  17.6841354  66.4175339  29.6746120  18.3724136  65.9077988  30.1020164
  17.2484646  65.7928543  29.0947876  55.5253143  36.2193108  88.1407623
  56.1948891  35.6593857  87.7478485  56.0103912  36.7917900  88.7350693
  27.5286026   8.1234856  75.0992432  27.2890453   7.8276329  74.2209930
  27.3807106   9.0690365  75.0820999  14.7820072  16.6840668  78.5391693
  14.0045319  16.8057346  77.9942322  14.7961874  17.4515533  79.1110077
  11.7222176  51.8700371  50.6230125  12.0327749  51.9679947  51.5231171
  12.3704491  52.3350372  50.0940475  52.1917496  49.8068771  43.9884834
  51.3699303  50.2965698  44.0208588  52.2722244  49.4162254  44.8586235
   4.8189754  20.7991467  69.7807312   5.3197608  20.5994835  68.9897919
   4.3056989  21.5734863  69.5501328  47.3709373  51.7972450  81.5473557
  47.2178345  52.6387711  81.1176682  48.0032654  51.3518944  80.9833908
  67.5706482  54.3866348  40.5872116  66.8916321  54.8884392  41.0381584
  67.5312119  53.5175819  40.9864883  26.2088585  68.1500931  27.4051285
  25.4454746  67.9014435  26.8839264  26.2580929  69.1021118  27.3187141
  30.6993465  63.3756180   3.4301162  30.1833706  64.0552826   2.9964592
  30.1182327  62.6155472   3.4589641  63.2989082  13.3884640  51.1835899
  62.8296013  13.9340534  50.5524712  62.7815132  13.4518738  51.9864082
  35.5899277  13.9742985  75.9836884  35.8341827  13.5715809  76.8169937
  34.8836899  14.5800962  76.2083511  45.2673149  31.2537403  23.3928909
  45.4058151  30.8089027  24.2290535  45.9399910  31.9343185  23.3693542
  51.0180473  27.0069580   9.3104935  51.8517494  27.3973160   9.5727749
  51.1239548  26.8202152   8.3776789  19.4053841   6.9614959  63.6476669
  19.4464836   7.8809237  63.9107170  20.1869946   6.8308077  63.1107903
  20.0195827   7.9131575  79.0172195  19.5272694   7.2866430  78.4868088
  19.8822460   7.6234431  79.9191284   2.9087064  23.1391945  69.7018814
   2.5226223  22.5967026  69.0142212   2.1801977  23.6681652  70.0269852
   4.3428264  28.5280094  71.2188034   4.2742743  29.2133598  71.8835068
   3.5111430  28.5682201  70.7466660  32.0054703  62.9570656  20.3957806
  32.5067482  62.3055763  19.9053593  32.6456375  63.6322136  20.6207123
  50.4627876  57.7737236  85.2288818  51.2958221  57.3196182  85.3556519
  50.3487244  58.2917747  86.0256500  74.8819733  47.5367622  20.7299080
  74.7537460  47.9653893  19.8836994  74.2943268  46.7815208  20.7073307
  40.9633636  36.3309212  67.2771149  40.6323395  35.8443794  68.0320587
  40.2159042  36.3869476  66.6818008  40.7531433  61.1626205  80.4892731
  40.0695343  60.8008423  81.0532074  40.5895996  62.1057434  80.4895172
  27.1421032   5.3256893  71.1000290  26.7592354   4.7858953  70.4084625
  28.0810547   5.1459861  71.0519791   4.9821033  23.2408428   8.5039759
   5.8469191  22.9943638   8.8319607   4.4683204  23.4170799   9.2921381
   8.1413193  23.0643005   5.1558938   8.4927645  23.4587650   5.9540892
   7.4465628  23.6618214   4.8792806  86.5852737  48.1903267  23.7701969
  86.8758545  47.3743172  24.1775360  85.6298141  48.1326904  23.7735023
  40.7686539  29.8667336  72.7316055  40.7810326  30.7792645  73.0203400
  40.6441040  29.3627377  73.5357895  81.5419235  48.9187546  53.2043571
  81.6993256  48.0672302  52.7964821  80.5944519  49.0412636  53.1450424
  27.1419926  43.2732658  76.9548950  27.8642273  43.1940956  76.3317261
  27.5332928  43.6883125  77.7235641   6.7269993  42.7706642  55.9584656
   5.8223162  42.5095863  56.1305656   7.1094398  42.8960571  56.8269386
  42.3780060  61.6426697   4.0575147  41.7916527  61.3692932   4.7629828
  42.7372627  60.8245926   3.7141225  84.0884171  56.9165878  42.3099670
  83.5898285  57.0469780  41.5033493  83.8235931  56.0497780  42.6177673
  25.2238770  43.8898773  46.6086617  24.5929356  43.5779686  45.9599228
  24.9997101  44.8115768  46.7369308  60.8108749  69.0677032  72.9668884
  60.6918716  68.2277832  72.5234985  60.7452698  68.8581238  73.8985596
  74.5212860  21.2274132  18.6579723  73.9286652  21.6622963  18.0448589
  74.1760254  20.3379517  18.7347183  26.1875820  69.9383850  19.0900898
  25.7106743  70.6718216  18.7016811  25.6260700  69.1787720  18.9354095
  64.9826355  58.3273888  73.9823837  65.1558456  59.2564468  73.8304596
  64.0297699  58.2503510  73.9339218  50.3682022   5.7377501  65.4236069
  49.6462440   6.3506341  65.5628281  50.5018501   5.3270750  66.2778473
  70.7867584   3.4424505  53.6831207  71.5072098   3.2018449  54.2656097
  69.9964142   3.2206717  54.1754608  85.7713470  20.5923958  29.6508789
  85.7762833  19.6382179  29.7267075  85.1665573  20.7723331  28.9310989
   2.7713728   3.9321315  63.5328751   3.2158728   3.1409600  63.8373413
   1.8399309   3.7408721  63.6427269  15.3904829  42.9678040  17.9168892
  14.7813082  43.2308998  18.6067562  16.1890507  43.4623566  18.1011162
  74.8263626  56.1503410  24.4935818  74.1599274  55.4660110  24.4319630
  75.2503815  55.9964104  25.3378239  73.7187653  13.9796505  13.0317650
  73.6224213  14.5673761  13.7811165  74.4199829  13.3799019  13.2863646
   6.0288734  16.6334782  31.6600094   6.7631545  16.0359135  31.8013592
   5.8741465  16.6036797  30.7158680  81.4222641  44.0066566  28.4843273
  81.4215317  43.6902618  27.5809307  82.3146973  43.8491859  28.7925301
  29.5019360  69.6577530  22.6164722  28.5847683  69.6389923  22.8897495
  29.7354603  70.5859909  22.6250172  48.2784767  36.8810272  72.9685440
  48.9722786  37.0325928  72.3267517  47.6820030  36.2696037  72.5365601
   9.9692345  56.2903252  64.8509674   9.3522797  55.6726418  64.4584579
  10.4916182  55.7582893  65.4512100  32.0421181  45.2479706  14.2029696
  31.1595688  45.0164261  14.4923267  32.6053772  45.0125351  14.9402218
   6.1076026  67.5836411  23.8662987   6.8586988  67.8278885  24.4070644
   6.3257079  67.9084320  22.9927025  48.6648788  13.9234285  12.7177448
  48.2145348  14.7541685  12.8703604  49.4499054  14.1634607  12.2254553
  11.5132856  50.9021378  63.4128189  12.0547171  51.1957626  64.1455307
  11.1154442  51.7035751  63.0727425  54.9345818  54.0630531  85.3686829
  54.1630249  53.5373039  85.5796738  55.4650993  54.0401649  86.1650925
  51.9073563  35.7198105  14.6517744  52.5064240  36.3899231  14.9808598
  51.6018448  36.0631523  13.8121252  68.8599777  26.1206284  52.9288406
  68.5293503  25.2681904  53.2121506  68.4951553  26.2396336  52.0519295
  82.4871597  48.6854172  77.9938049  82.2769699  48.5242844  77.0739670
  82.5509262  49.6380806  78.0615921  10.6200380  30.3118019  80.6325912
  11.3796349  29.9194775  80.2021027  10.7091303  31.2503529  80.4670105
  52.9075012  22.3764744  13.0551758  53.6830597  22.2254677  12.5148611
  53.1663589  23.0754776  13.6556902  78.0591812  32.3527641   0.4237772
  77.3703613  32.5634537   1.0541548  77.9014816  31.4370728   0.1938294
  73.6727676  11.2385387  34.3912086  73.4530182  11.2576485  33.4597702
  72.8332443  11.3485231  34.8376694   8.5094538  24.2241917  80.5669937
   7.7113190  24.5960999  80.1916351   8.2950754  23.3043060  80.7221832
  84.3403091  25.7799625   1.0096183  83.6599045  25.1309872   0.8304366
  83.9707489  26.6064739   0.6989164   8.5915956  35.2384872  19.0057411
   9.3868523  35.7368507  19.1939716   7.9356837  35.5999756  19.6018429
  26.3294334  49.5790291  65.9336777  27.0828419  49.6181068  66.5228119
  26.5142879  50.2379379  65.2644196  37.0465584  61.7070427  38.8576279
  36.4383850  62.4235115  39.0393944  37.9079170  62.0627975  39.0760994
  68.5776215  52.2532539  49.5039902  67.8588638  52.4136429  50.1154594
  69.3685837  52.3398857  50.0360718  41.9837227  28.9722900  78.6557007
  42.2407684  28.3203621  79.3077316  41.9810982  28.4937782  77.8266907
  81.7216873  10.0755243  49.4315186  80.9267120   9.7370768  49.0195694
  82.2930832  10.3033905  48.6981583   8.0069265  50.1385498   9.0550652
   7.7024794  51.0148926   9.2907810   8.4035511  50.2472191   8.1907091
  54.1923447  54.5009041  62.2796745  53.4296646  54.4113693  62.8511009
  54.1244469  53.7641258  61.6724014  52.4884987  29.0821896   1.9027069
  52.2839813  28.2238255   1.5317420  51.8202248  29.6645966   1.5415331
  62.5429573  11.4425077  16.4550858  61.6153221  11.3907375  16.6853981
  62.5580673  11.9262238  15.6292391  25.8489857   7.4591699  69.7782135
  25.7578030   7.9140015  70.6155014  26.7063637   7.0364256  69.8274155
  26.1771679  69.9106522  77.9584122  25.6298027  70.2546539  77.2525177
  26.9140701  69.4960480  77.5097351  53.7915535  62.2570839  75.2002792
  53.2584114  62.1437607  75.9871368  53.5283852  61.5371933  74.6269226
  12.8108072  45.2819328  41.3756256  13.1398582  44.4460907  41.7062721
  13.2685595  45.9422379  41.8959045  40.4542999  65.3687057  74.0663071
  40.1838264  64.8330002  74.8120193  40.2195930  66.2625122  74.3158340
  76.4906845  45.3777313  75.4251099  76.7022629  44.4723129  75.1977768
  75.5704041  45.4771042  75.1813049  41.3942528  12.8085070  20.8425121
  41.9515381  12.5436659  20.1107159  41.6563530  12.2352400  21.5628605
  72.1813965  66.8952942   9.4781570  72.6917191  67.4782028   8.9159994
  71.2989197  66.9176559   9.1080666  83.6844940   5.5610595  79.9965973
  83.0289612   5.7056851  80.6789398  84.4764175   5.9809542  80.3324280
  59.8351059  32.7943687  85.1952515  60.0773277  33.2277946  86.0136032
  60.3654518  33.2294731  84.5276794  65.7765427  62.9868126  35.0755463
  65.2628021  62.2010765  35.2624054  65.3574829  63.3692398  34.3045921
  17.8156376  69.0382462  30.4350471  17.9763451  68.2534561  29.9111137
  18.6425934  69.1955032  30.8907280  75.9281082  50.2194099  23.5806313
  75.3336563  49.4706383  23.6274967  76.5922394  49.9584045  22.9426327
  85.6193314  16.0707397  65.2513733  85.0346909  15.4308891  65.6575928
  85.3050766  16.9174709  65.5684280  22.6876450  13.8353596  75.7871170
  22.1135826  13.6486187  76.5299606  22.8339195  12.9828253  75.3772125
  83.1241150  46.4652061  54.2809944  83.8518600  47.0063705  53.9748001
  83.4720459  46.0062599  55.0455513  42.5042572  11.6470318  14.2249241
  43.1979141  11.2943621  14.7823267  42.1713219  10.8872871  13.7472477
  23.4195938  19.5348606  57.9821701  22.7307053  20.1403637  58.2560844
  23.4829140  19.6567993  57.0348816  70.9069977  52.7600250  64.3774033
  70.2022476  53.3414459  64.6629028  71.3321762  53.2325134  63.6617126
  21.7022915  30.5886288  73.4671707  21.0763702  31.2023373  73.8516388
  21.1578407  29.9139214  73.0614929  43.7082863  57.6364441  81.0200272
  44.1406136  56.8586349  80.6674118  42.8892708  57.3078690  81.3908081
  83.2481995  57.0479584  66.2036209  83.5296326  57.6794891  66.8655853
  82.4120941  57.3896523  65.8867722  38.7373581  21.1796341  21.1285820
  38.8576546  22.0842381  21.4174652  37.7909737  21.0870609  21.0189533
  77.4495621  20.2445259  21.8022652  77.3276443  19.3433304  21.5035801
  78.0660934  20.1739693  22.5310612  10.1262531  67.6285095  66.6179657
   9.4959517  68.3427505  66.7118378  10.7098026  67.7235565  67.3707428
  54.1348686  53.9299583  13.0040903  54.0307274  53.5936317  12.1139946
  54.8552284  54.5570641  12.9404202  42.1436653  67.6073685  11.5995598
  42.6300583  67.2560654  12.3453770  42.7302017  68.2599716  11.2170458
  33.8986740  59.5254593  16.8063068  33.5331993  58.7796059  16.3305283
  33.6995888  59.3444214  17.7249050  85.1669846  18.1351891  44.0455551
  85.5922318  18.8744125  44.4802399  85.4706497  18.1833973  43.1390839
  62.0990334  62.2037849  20.8015385  61.7734528  61.9141998  21.6538124
  63.0205841  61.9450455  20.7966709  20.7047291  71.0693588  38.1157608
  19.8947735  70.7283173  38.4950943  20.5163288  71.9907455  37.9374847
  58.4340973   3.4599428  25.0240631  57.5942993   3.6221871  24.5943527
  58.5631256   2.5144975  24.9484539   1.8954078  28.9087124  84.7804718
   1.3160805  29.5973263  84.4542465   2.2289433  29.2495594  85.6104126
  19.7086868  69.4058762  32.5585976  19.7787647  69.2602005  33.5020485
  20.6066151  69.5786819  32.2755814   3.7965453  47.4398727  40.2019539
   3.5672660  46.5598717  40.5007248   4.7162271  47.5436897  40.4461670
  52.3267670  29.8844662   4.9728198  52.3917999  29.0493774   5.4360991
  52.4538078  29.6578102   4.0515599  17.9118156  64.1483612  22.6588516
  17.0834637  63.7480431  22.9230690  17.9179153  64.9986038  23.0984879
  40.0130348  46.4204063  19.3825417  39.6756516  46.7929077  20.1971874
  39.3287315  45.8165932  19.0938110  75.4233093  16.3311806  52.6985893
  74.5989227  16.1777401  53.1601868  75.6578445  15.4766188  52.3367157
   6.7806697   3.3411732  62.4714699   6.6086936   4.1117306  63.0126686
   5.9629507   3.1952386  61.9957924  10.9356213  60.9204674  76.8309174
  10.1737099  61.2077217  77.3341141  10.6101913  60.8276825  75.9355316
  55.9423752   4.4994240  24.3244839  55.2081909   4.1074934  24.7973442
  55.5813255   4.7269945  23.4676933  26.7647972  40.3746681  18.7797718
  26.8160686  40.6968498  17.8798828  25.8560486  40.5287971  19.0379448
  15.3207283  49.2038460  21.5492516  15.9716883  49.3646431  20.8661518
  14.4928789  49.4902000  21.1633797  34.3005638  58.2890549  34.0060844
  34.2545128  57.8896294  33.1374245  35.2370987  58.4022827  34.1682968
  21.8742180  35.1003952  69.4283676  21.5031872  35.9515800  69.6608658
  22.0707569  35.1718597  68.4942932  30.5824261  44.9339333  20.3147678
  31.3490925  45.4903641  20.1775055  30.7396488  44.1688042  19.7615128
  75.7326431   2.5487671  16.7617340  76.1194077   1.7805806  17.1818943
  75.5633163   2.2697880  15.8618832   1.1043985  35.2947159  57.5188789
   0.5230582  35.8571167  58.0307236   1.0451992  34.4390869  57.9438744
  17.7211514  15.7551298  64.9060974  17.2604656  14.9253826  64.7815170
  17.3627338  16.3317413  64.2313538  18.2852955   7.7519670  84.6468201
  18.2274513   8.7074165  84.6458435  17.7714272   7.4801269  83.8863754
   2.9932752  64.8377228  59.2897148   3.3015304  65.6313019  59.7272606
   2.6375062  64.2978592  59.9955482   9.5492496  47.1698074   0.9785388
   9.8050823  47.9527588   1.4661517   9.8455935  46.4407883   1.5234638
  10.8816538  47.5804176  24.5745182  11.4722681  48.1500626  25.0673790
  11.0705070  46.7003632  24.9002056  80.1820374  66.4658051   5.3768573
  79.3795166  65.9691391   5.5365906  79.9572830  67.0604019   4.6611996
  59.4388733  37.1161079  69.5252151  58.6311722  36.8369102  69.9563751
  59.9514351  37.5283356  70.2206192  51.0943985  36.8863983  60.7064857
  51.5600967  36.6455040  59.9056549  50.4450951  36.1929398  60.8237762
   8.1550636  69.2710953  69.0689621   8.4261084  69.6714554  69.8950806
   7.7260947  69.9794388  68.5888977  16.6772327   2.9167416  62.3299942
  17.4841022   3.4107082  62.1844215  16.3424282   3.2453833  63.1643372
  85.9736557  48.8345032   8.8522863  85.5408173  48.3786545   8.1304255
  85.3750305  49.5460091   9.0795221  39.3202400  38.9117546  37.4455605
  38.6992378  38.6994934  38.1423645  38.7965546  38.8943062  36.6445084
  45.4804916  68.8150482  56.4995918  46.1712875  68.7060776  57.1531677
  44.6675644  68.7938538  57.0044975  84.4859161  17.6282425  29.5902843
  83.9269791  17.0338345  30.0907764  84.4057465  18.4688568  30.0410290
  39.8138313  32.7850151  79.6769333  39.9782448  33.4841805  79.0441895
  40.5577240  32.1911049  79.5763016  27.6427670  54.1913643  65.2073822
  27.6775970  54.4083405  66.1390152  28.3541298  54.6987419  64.8165359
  13.5213079  40.9599648  85.4478378  13.2958937  41.3131790  84.5872269
  13.8578968  41.7121696  85.9347992  36.7640419  70.9664383  74.8950653
  37.3483543  71.6160126  74.5040894  37.2861977  70.5601730  75.5868225
  48.5835381  68.2364120  50.2329445  48.9791718  68.4294205  49.3829727
  48.1060333  69.0339050  50.4614983   2.2460439  16.1830940  16.0772667
   2.4739490  15.7545481  16.9022770   1.3265184  16.4280777  16.1806488
  28.9356480   0.3595458   0.8486676  28.9146881  -0.1085725   1.6833278
  29.5028210  -0.1720175   0.2901094   4.5525842   8.3469963  18.0038795
   4.6972256   7.5924535  18.5748215   5.4044070   8.7814703  17.9607220
  21.8309116   6.4856691  61.6623764  22.1378441   6.4030585  60.7594948
  21.9381504   5.6096330  62.0329056  39.8724823  35.8667412  86.2280807
  40.0000038  34.9754944  86.5531235  38.9911156  36.1032486  86.5170364
  49.1537743  40.2179337  82.7918854  49.5212135  39.6750793  83.4894104
  48.2064972  40.1581192  82.9156570  57.4083252  38.1070137  59.8648872
  58.1663361  37.7863083  60.3535614  56.6592102  37.9060402  60.4258385
  31.5547161  65.3093567  69.5212555  30.6407089  65.4970169  69.3077087
  31.8340321  66.0540848  70.0537949  61.4472046  14.8846159  40.7946281
  62.4040680  14.9047709  40.8099861  61.2322197  14.1934824  40.1682510
  29.6628780   8.3744383  23.2258263  29.6983910   9.3276711  23.1463432
  29.1085434   8.0938654  22.4976616  68.2417374  27.3005466   5.1200447
  67.9472504  26.4774666   4.7301068  69.1000977  27.4582386   4.7268872
  79.3137512  45.4816895  76.1475754  78.4070282  45.3409500  75.8750305
  79.3429031  46.3994789  76.4178391   3.8874075   2.2197959   1.0047781
   3.7701423   2.0351782   0.0729000   3.7803552   3.1682937   1.0763590
   9.0356493   4.3089013   9.3013821   9.4298372   4.1146526  10.1517439
   8.3773193   3.6246111   9.1806364  77.4233932  71.7625580  13.7137270
  76.6736221  71.3598480  14.1518002  78.0619507  71.0541687  13.6320982
  24.0740585  17.4750633  72.2258377  24.4558296  17.4478340  71.3484955
  23.6592426  16.6191254  72.3332138  18.3376389  34.3356209  81.6261826
  17.8558826  35.0971527  81.3033600  19.2067776  34.6749840  81.8398743
   2.8773263  33.8119354  26.0309868   3.3981183  33.2384834  25.4687023
   2.8792782  34.6560478  25.5796509  45.2139893  32.2297859   4.4607587
  45.6111374  31.6104908   3.8484025  45.2379799  33.0693436   4.0016356
  80.5066299  13.3333292  74.9160233  81.4272385  13.1378813  74.7413483
  80.1566467  12.5243168  75.2891769  85.5376053  10.0765676  16.9935760
  85.0141144  10.5965595  16.3838177  85.1978989   9.1863670  16.9020538
  37.7170296  33.4099464  70.4711151  37.3085823  33.6928101  71.2892761
  37.0521469  32.8679771  70.0463486  45.0520058  71.7863083  43.7331047
  44.5904350  70.9628677  43.8916168  45.9128876  71.5200272  43.4102898
  31.7671185  39.7689095  82.7185516  31.8710518  38.8292084  82.5689163
  32.5046158  40.0048409  83.2812805  81.3870163  29.8655586  81.8854904
  80.7327194  29.3459530  81.4184418  81.5735931  30.5988312  81.2992096
  58.6253548  69.3428574  10.0921745  57.9460869  68.8100739   9.6787004
  58.1424446  69.9873047  10.6095896  53.4874458  49.3967476  48.7481613
  52.6357727  49.8324356  48.7807236  53.3035927  48.4922104  49.0016174
  86.0666656  58.0805283  40.5359840  85.4293671  57.8152695  41.1990929
  85.7774887  57.6408386  39.7364349  35.2316399  63.8372383  28.5474854
  35.1033554  63.2071190  27.8384571  35.9817963  63.4985237  29.0361252
  79.6020279  27.7570477  84.4690857  78.7862396  27.6586208  83.9781265
  79.5042648  27.1673717  85.2167206  67.5139160   6.1276236  48.7959747
  67.0032578   6.9340591  48.8675385  66.9535370   5.4542542  49.1816902
  49.5586510  33.0200729  68.9017334  48.8208237  33.4001923  69.3785477
  49.6571426  33.5769005  68.1294174   0.3407115  67.5792160  78.4398499
  -0.4145143  68.1301193  78.6456909   0.9160116  67.6678085  79.1997299
   4.1434827  62.7357483  48.6203384   3.3875048  63.2529373  48.8982697
   4.7259769  63.3691635  48.2011566  11.5103893  10.4435863  51.3885422
  12.3404226  10.6964464  50.9843941  11.6964979   9.6068430  51.8145180
  29.3954067  13.2450428   4.0383081  28.6561680  13.7248774   4.4118271
  29.6746540  12.6534939   4.7371092  48.6666908  33.6762428  41.0563126
  48.3000717  32.9389915  41.5444565  48.9510040  34.2926559  41.7311707
  73.9972153  39.7431870  45.8081474  74.0010300  39.1842613  46.5852051
  74.2382889  39.1573715  45.0905609   3.0722027  39.4865761  23.1536274
   2.4935486  39.6968803  23.8865433   3.9076111  39.8932610  23.3837032
  84.9544983  39.3079262   0.2904010  84.3457031  38.9168816  -0.3362404
  84.4203796  39.4848518   1.0647664  83.6389847  61.2480469  29.2859459
  83.9892731  60.4640770  28.8629570  83.1825333  61.7143784  28.5856457
  18.2717495   4.5512419  84.1882019  18.2384949   3.7502511  84.7112122
  17.4790115   4.5206542  83.6526031  31.2981110  28.3214855  85.0706711
  30.7830238  29.1096592  84.8983307  32.1559944  28.5078411  84.6891785
  71.4044266  16.6392097  25.8548641  70.5818558  16.2307320  26.1245975
  71.1875000  17.1033916  25.0463390  85.2910690  66.2203369  13.6152859
  85.5640182  66.4856262  14.4935513  85.1604462  67.0442963  13.1459599
  39.5288506  66.9357300  27.1552048  38.8066254  67.5626755  27.1156559
  39.2041702  66.2314148  27.7162342  61.0552597   4.0145288  72.9152679
  60.2251625   3.6404057  73.2105713  61.3585510   4.5392089  73.6561890
  64.0248718   1.5172297  59.1411133  64.9468765   1.7243538  59.2935524
  63.6002235   2.3699045  59.0470428  58.4650307  28.0012646  26.3966427
  59.0297928  27.3068123  26.7357807  57.7215652  27.5382175  26.0105381
   7.9336424   2.7027359  49.3597679   7.7460470   2.7099903  50.2983742
   7.0953050   2.9089386  48.9463615  35.0770302  52.8398094  10.4289293
  34.6718330  52.7267609   9.5691214  34.4220161  52.5153351  11.0469151
  55.9125671  27.6591358  68.8968964  56.5823631  27.0321465  69.1698227
  56.1990967  27.9547081  68.0327377  81.4649734  49.2939796  60.9428291
  82.1490479  48.6375771  60.8108788  81.6490555  49.9668465  60.2873955
  13.3141394  48.7835770   1.6059275  13.1763859  49.0382385   2.5182884
  12.7159920  49.3413849   1.1086340  77.3705750  49.5293007  14.0629978
  76.8356323  50.1561279  14.5499840  78.2076874  49.9760132  13.9367924
  47.9374199  30.2994518  27.1806793  48.3030930  31.1799068  27.0951653
  47.3358841  30.3609657  27.9227047  39.3628464  44.1012955  25.8435841
  40.2078171  44.5481949  25.8939590  38.7532730  44.6907845  26.2876034
  77.5439606  23.8612576   1.4221429  76.6945801  23.9400730   0.9878953
  77.7491379  22.9272881   1.3792593  48.6398163  12.0409575  79.6761627
  49.0087242  11.7166977  78.8545761  47.7094231  12.1649742  79.4884949
  22.5204563  31.4910431  13.6623354  22.3071671  31.3018360  12.7485847
  23.0003090  30.7185993  13.9611740  56.5025024  46.5016556  85.2277603
  56.5462570  47.4019394  85.5499496  57.4010048  46.1788063  85.2962952
  67.6703110   1.9515426   0.9852322  66.8862457   2.4181886   0.6958991
  67.7370682   1.2040348   0.3910885  78.3187943  24.3451462  14.9214630
  78.4849243  23.8867226  14.0977640  77.6118469  23.8485470  15.3335915
  16.4351044  39.1349449  83.2612534  16.2386246  39.0124741  84.1900253
  16.7722454  40.0289497  83.2036209  71.7648315   1.5085206   7.2410655
  72.2840805   2.3033841   7.3627410  71.9361649   1.2466455   6.3364663
  48.4058990  64.7341003  86.9127274  48.4928589  65.3842621  87.6098328
  47.9723778  65.2035828  86.2000732  79.6310806  22.5175915  42.0396118
  80.0201340  22.0932503  42.8043327  78.7124405  22.2492962  42.0583038
  61.0784912   9.1586466   6.3542833  60.2754822   9.2615471   6.8649874
  61.7703972   9.0742207   7.0103087  84.6715164  18.9401588  71.8634872
  85.6279449  18.9704399  71.8870087  84.4243240  19.6432877  71.2628708
  54.6438065  30.8449574  82.4014969  54.2399254  30.6163769  83.2386703
  55.3505058  30.2082367  82.2947311  12.1123743  33.5634499  61.6863251
  12.7618370  34.2665634  61.6783371  11.7012110  33.6073647  60.8230476
  52.3759155  64.0743256   1.3578496  51.4227791  64.0529785   1.4433284
  52.6016197  65.0021667   1.4242070  45.4550781  20.8157444  41.6027412
  44.5490036  20.9110985  41.3092003  45.4949608  21.3103046  42.4213104
  83.3225174  28.5993881  86.1748886  83.1967239  27.6729469  85.9696655
  83.0209961  29.0611057  85.3925018  78.6227112  26.2139683  12.6867294
  78.0449448  25.4515533  12.7206268  78.5364380  26.6184311  13.5499783
  65.1297379  60.6839714  69.7214813  64.9345627  60.7119408  68.7848053
  65.4187317  59.7851715  69.8791809  22.4718857  68.2675476   0.6284726
  22.6241226  68.7123642  -0.2053092  22.5838013  68.9514694   1.2887417
  78.1667557  44.3767586  46.3668671  77.6206665  45.1628914  46.3641396
  79.0526733  44.7010994  46.5287132   6.9666433  22.8006611  10.5200024
   7.6800361  22.9485512  11.1408329   6.2676358  23.3843117  10.8149137
   3.1129341  43.6485023  39.2259827   4.0064125  43.7348862  39.5583496
   3.2098508  43.6559219  38.2737312  18.2029724  21.5955372  14.7370510
  18.5920677  20.7956524  14.3834686  18.1780891  21.4518661  15.6830807
  58.1544876  50.0075607  79.5615845  58.3237495  49.2462578  80.1165543
  58.5540810  49.7846489  78.7208252  16.0176067  57.1826744  75.6771545
  16.0489979  57.7569122  76.4423294  16.8590107  57.3181381  75.2413559
  75.4031677   9.8028440  15.0441942  75.7547913  10.2365160  15.8217039
  74.8609085   9.0938950  15.3899927  77.6066818  26.5933723  82.3592453
  77.3107071  27.3020287  81.7879028  76.8189545  26.3197308  82.8291779
   7.8409362  49.7409096  58.4993134   7.3103709  50.3584671  57.9959755
   8.6129131  50.2440605  58.7583923  74.5984650  11.6123428  85.4206390
  74.6818237  12.2168503  86.1581039  75.0073166  12.0716324  84.6870651
  44.8968048  30.6719971  27.9189415  44.0979118  30.1755486  28.0965424
  44.5871544  31.5042648  27.5616207  84.0742874  62.3131561   0.9522362
  83.4038315  62.0708542   0.3134798  84.2402115  63.2409286   0.7850641
  44.3320160  55.5070724  70.3051453  44.5335884  55.8294601  69.4267044
  44.1935654  56.2988281  70.8249359  72.6417618  21.5233555   5.2864833
  73.3538361  21.7903671   4.7052011  73.0566940  20.9385014   5.9205270
   8.9124079   1.5471773  73.6478653   8.7816706   1.2047150  74.5320969
   8.0324478   1.5847898  73.2730484  25.7343903  44.0422401  60.8804359
  25.5095959  43.6040649  60.0596390  25.2178478  44.8480453  60.8710442
  47.1165962  10.6057014  36.8768311  46.8187828   9.7986345  37.2965736
  47.5550156  10.3125458  36.0780334  55.2481918  22.9507160  49.9499512
  54.9676399  22.2522335  50.5412598  54.5437927  23.5974655  49.9920006
  76.9404984  48.2706261  74.6566544  77.1060715  47.3567200  74.4251556
  76.2236404  48.5373840  74.0811691  63.3288078  39.8789635   0.8959680
  63.7038536  40.7291870   0.6664268  63.8630066  39.2446251   0.4179728
  70.2497787  36.6598282  75.4671860  70.3169632  35.8171616  75.9162140
  70.5357056  36.4776955  74.5720291  58.4010201   1.6526229  89.0597687
  59.2316780   1.1774220  89.0802612  58.3820915   2.0647471  88.1960449
  63.2075691  32.2372932  69.4038620  62.2972908  32.4165955  69.6393967
  63.1707916  31.9833088  68.4817123  86.5861130  54.2445412  88.8205414
  87.0113220  54.3963699  87.9765244  86.1415176  53.4032249  88.7168503
  52.7460594   8.4575129  57.1125259  52.0293045   8.4784575  57.7466049
  52.6596336   7.6073079  56.6813469  64.2777939  14.7251348  17.5136681
  63.6456108  15.0088491  18.1740322  64.0507431  15.2294807  16.7324429
  41.5800819  31.7227993  17.5872612  41.8511276  32.6406631  17.6043549
  41.5228653  31.4727421  18.5094471  54.5098648  29.8576889  61.2293739
  54.3277550  29.0475616  60.7531776  54.7858200  30.4762287  60.5529938
  10.7743216  16.2667294  86.2403870  10.4268513  17.1128292  86.5225372
  10.6056290  16.2405758  85.2985306  53.1852570  58.3240929  47.1266174
  53.4640694  59.1928558  47.4160118  54.0016899  57.8591347  46.9436340
  59.8582954  37.7938614  61.3794060  59.9606400  38.3906975  62.1207199
  60.3725510  38.1931076  60.6777115  29.6206894  54.8897858  62.1173630
  29.5314541  55.5111275  62.8400002  30.3251152  54.3027077  62.3918800
  25.6541786  26.8607407   2.6627464  25.5925426  27.7888699   2.8885970
  24.7448177  26.5726128   2.5835242  38.1068802   3.8572018  81.5687103
  37.7837563   3.8836505  80.6680832  37.5280685   3.2374811  82.0127335
  43.3468208   0.7407178  33.6598129  44.2026024   0.3836837  33.4223328
  43.0594406   1.2135470  32.8787384  57.8985634  32.6878738  21.9387379
  57.5187912  32.4293976  21.0989780  57.7824249  31.9213810  22.5001926
  10.0271530  62.4875221  26.3062382  10.4186850  63.3286095  26.5418453
   9.7661924  62.1021233  27.1426582   4.0127077  40.6543541  40.4510651
   3.8798060  39.7246552  40.2660675   3.9411132  41.0810852  39.5972443
  20.4130325  45.4064903   8.2718000  21.1749821  45.8778267   8.6087084
  20.7818604  44.6511879   7.8138518   4.2505574  30.3272076  73.3565445
   3.8194180  31.1401272  73.6202011   4.7597899  30.0663776  74.1239319
  66.9846954  30.2558899  48.8579445  66.5058899  30.6495495  49.5873337
  67.1065140  29.3423901  49.1166191  85.4825821  16.2445412   9.7173300
  86.4298859  16.3596764   9.6425762  85.3053055  15.4190683   9.2663307
  62.0868492   7.3180432  53.1897774  61.3056107   7.5397243  53.6964874
  62.0423431   6.3676934  53.0844841  34.7104034  11.1976795  84.6155090
  34.6251640  12.0704260  84.2317352  35.4075813  11.2886992  85.2650375
  53.3394241   6.1628060   3.0065870  52.3974953   6.3015103   2.9077885
  53.6400337   6.9148035   3.5168476  71.8251877  46.7152252  55.3473587
  71.2621002  46.2286682  55.9493790  72.6283188  46.8715973  55.8441124
  85.8575821  12.7817535  42.5612717  85.8048706  12.3462343  41.7105217
  85.8715820  13.7156477  42.3518028  15.9263506  32.2381592  12.0204992
  15.2968550  31.5852356  11.7144680  16.7816772  31.8377514  11.8645487
  62.8718719  66.3268509  27.4676666  63.6847000  66.6724396  27.8365974
  63.0650063  66.2009659  26.5386448  80.8861847  46.7130928  29.4110279
  81.0954514  45.8682785  29.0126190  79.9627686  46.8542213  29.2021770
  25.2728233  46.5055389  70.1983261  24.7672729  46.8860512  70.9165573
  26.1670189  46.8139000  70.3451614  76.1747055  44.0094948  59.6281433
  76.9292068  44.0083656  60.2171783  75.8521805  43.1085396  59.6503258
  76.1403580  62.9893532  30.1197338  75.5768738  63.7400932  29.9323769
  75.6119843  62.4293137  30.6884232   1.1972914   8.6823626  20.1482983
   1.9376097   8.0760126  20.1259251   1.4205867   9.3567629  19.5067730
  19.1119976   3.2464910   0.8887408  19.9398537   3.0354078   0.4570817
  18.4403057   2.9925978   0.2558101  80.9437485  46.1191711  15.2671175
  80.1333466  46.1895638  14.7626162  80.8538437  46.7759628  15.9576044
  44.7301865  63.8191223  48.7028389  45.3639946  64.5363998  48.6972733
  44.3748169  63.8204117  49.5916252  54.7144470  62.1421700  31.1647243
  53.9798965  62.2273026  30.5569248  55.4483795  61.8653145  30.6161556
  42.2818680  39.5559464  50.0914192  42.3441353  38.6007957  50.0975838
  42.2083931  39.7852058  49.1649895  80.2886353  60.7083969  85.5653458
  79.5431595  60.2825356  85.1421127  80.8969345  59.9939461  85.7544785
  75.3990402  56.2011566  69.3564987  74.5541382  55.7733955  69.4957733
  75.8666687  55.6186028  68.7580185  49.5121841  17.5130634  71.4350967
  49.8437614  18.3796196  71.1997833  48.6380157  17.6788330  71.7880554
  21.7774811  48.5544052  47.5176888  22.6323071  48.6859322  47.1075630
  21.1713829  48.4594231  46.7829399   0.6171784  60.1467438  53.4366112
   1.1504822  60.6546745  54.0480270   0.9171240  60.4229126  52.5705910
  23.6629143   6.3308816  85.9498596  24.3968868   6.0321107  85.4129715
  23.0039196   6.6164289  85.3170700  75.1560516  13.2387581  87.7678604
  75.6292114  13.7009153  88.4597855  74.4783096  12.7451696  88.2296753
  34.0416069  54.8875847  55.0507965  34.9425430  54.6068611  54.8903503
  33.7036667  55.1147995  54.1845398  38.1577644  55.7296410  45.5772896
  37.6966629  54.9541931  45.2574501  38.6868134  55.4093666  46.3078804
  35.3958549  69.9650421  42.6690407  36.0888748  70.4349518  43.1328735
  34.8611374  70.6544342  42.2752800  77.5595245  65.1555481  36.0784569
  77.8651810  65.5757065  35.2745476  78.0538406  64.3371201  36.1238365
  73.9392624   5.1024103  51.1743011  74.5876694   4.4182477  51.3408089
  74.0072937   5.6859078  51.9300346  56.5214157  17.7223759  69.9206543
  57.3492203  18.1648235  69.7330017  56.5947838  16.8781548  69.4755325
   4.1688595  22.5780487  88.3845520   4.6424580  22.3523979  87.5839157
   3.2706084  22.2908878  88.2204895  52.3757439   0.0156758  10.0222092
  52.6043434   0.0746540   9.0945807  52.9539375   0.6459714  10.4519176
  53.3987961  29.7158833  50.6755219  53.3147736  30.6600590  50.8085785
  52.4969215  29.3959560  50.6531830   9.1533461  49.7166634  79.7833405
   9.1705484  50.6344681  79.5121002  10.0755644  49.4676285  79.8443909
  44.7248764  11.2035046  20.9193039  44.4252586  10.7969656  21.7324390
  44.7496681  12.1401987  21.1148090  57.5999680  71.6668625  18.8242111
  57.9097900  70.8454971  19.2057838  58.3464241  71.9944763  18.3225098
  35.5295105   3.3893366  10.8651676  35.9756279   4.2343817  10.8093967
  35.6922302   2.9761703  10.0172005   5.0069165  32.3155746   4.4621835
   4.5199952  32.4905624   3.6568766   5.6026473  33.0598221   4.5483875
  30.0267467  36.9020081  77.6451645  30.2440166  36.5079880  78.4900208
  29.5267143  37.6870613  77.8685303  45.5124016  12.3279028  77.0279694
  45.9981766  11.7430639  76.4464035  44.6014366  12.0460558  76.9446945
   6.9842067  36.9765472  66.4166031   7.2615395  37.7305870  65.8962708
   6.0371671  36.9302979  66.2854233  16.2006760  30.1074238  14.5517588
  16.9583912  30.6884613  14.6187973  15.7656193  30.1822052  15.4010906
  13.9328060  39.2927971  40.1017036  14.3153954  38.8712349  39.3321915
  13.6092415  40.1335487  39.7781715  73.4817200  69.8261871  22.8886433
  73.4723892  70.6442413  22.3917255  74.3728104  69.7651825  23.2328453
  16.9092121   9.1478291  24.8620224  16.8872852   9.5681906  25.7217007
  17.5585365   8.4504414  24.9529076  42.3583336  64.8221817  47.3570976
  42.6630287  64.7771378  46.4508057  43.0818138  64.4636002  47.8711205
  37.2690926  29.8771915   8.4565735  37.7927246  29.4344292   9.1244097
  37.6077347  30.7723560   8.4412413  44.2497787  62.1162071  28.9252739
  43.6409874  61.3784561  28.9617252  45.0540924  61.7828979  29.3230400
  66.4862747  27.5918159  59.5834312  67.3178253  27.1311092  59.4715767
  65.8916779  26.9303474  59.9371948  53.3157845  52.5540886   6.6983266
  53.5497398  52.0466614   7.4755092  54.0112305  53.2071648   6.6203837
  74.3607483  46.9507446  33.8951035  74.8594208  46.1341782  33.9230270
  73.5884323  46.7418861  33.3696175  47.4445572  43.6825066  79.3841171
  47.9569511  44.3887634  78.9905624  46.9939537  43.2731819  78.6454391
  40.8396683  59.9758034  55.9845200  40.5214882  59.1988754  55.5247688
  41.7932434  59.8982010  55.9543800  43.8259735  17.1837883   7.3333621
  44.1335716  17.6832733   8.0897570  43.1300850  17.7228184   6.9573083
  24.6093845  69.4841461  14.3710270  24.0672855  69.4827652  13.5821295
  24.7409573  70.4112244  14.5696068  81.3240585  38.6844482  33.2464905
  82.0337601  39.0999413  32.7566795  81.4992981  38.9102631  34.1600151
  27.0182800   3.0215781  28.7702789  27.8280659   3.0222673  29.2806473
  26.3400593   3.2739029  29.3968410  14.8359451  32.5315933  15.4910727
  15.1143818  33.0940628  14.7683477  14.7557497  33.1241226  16.2385387
  18.3373775  18.2150402  24.8202572  18.2477074  17.5544376  24.1333847
  17.9264889  18.9983139  24.4543533  26.1626625  63.6524620  72.5886230
  25.5063171  63.5993614  73.2833328  25.9174690  64.4295425  72.0863647
  76.8308716  12.4713469  42.0980873  76.0593414  12.7654972  41.6138840
  77.2014008  11.7737856  41.5573997  72.7823486  50.4384880  54.9708405
  73.6345139  50.0034714  54.9992065  72.9910660  51.3689804  54.8880882
   7.9021502  43.3902550  58.8944359   7.6463432  43.1858292  59.7938843
   8.2104053  42.5571480  58.5378647  10.9373074   5.8902283  52.9015274
  10.8832102   5.0055246  52.5401344  10.1227484   5.9986529  53.3924103
  77.1531219  11.8814716  73.6467438  76.8757095  11.0023956  73.9046173
  76.4514160  12.1966000  73.0770645  73.3331909  61.8568344  38.4230881
  73.1292572  61.0124702  38.8251953  72.8486938  61.8522377  37.5975723
  61.7942276  14.5743160  74.6187439  61.4746399  13.7394352  74.2765884
  61.6809998  14.5038071  75.5666046  67.7326889  21.1135654  14.4756298
  68.3018494  21.3437576  13.7412615  68.2115326  21.4067726  15.2508497
  44.9871826  36.2179451  11.2318983  45.9212799  36.3301201  11.4082794
  44.7666397  35.3779106  11.6343145  71.2465591  56.6007385  32.1919098
  71.2322540  57.1680031  31.4210415  71.5612030  57.1646690  32.8984604
  11.0666828  70.1912689  57.5899887  11.3249407  70.5183945  58.4516869
  10.2006836  70.5702896  57.4395905  20.0445099  34.3049927  73.4419403
  20.7096443  34.0517578  72.8018646  19.3251171  34.6528206  72.9149475
  77.7147980  57.2983246  64.2995453  78.0399857  57.6301346  65.1364365
  78.2423325  56.5177917  64.1300888  80.8295364  45.3566551  84.3186874
  80.2406693  46.0879364  84.1324158  81.5595856  45.4763184  83.7112808
  34.4439316  64.1250992  17.1851234  34.1979637  63.8931808  16.2896099
  33.7883644  64.7684097  17.4545937  68.9663315   0.6631114  47.9579659
  69.0324783  -0.2774402  47.7929840  68.0684509   0.7899504  48.2644882
  85.9586945  17.2434978  62.2888641  85.7188797  16.6445446  62.9959564
  85.1889801  17.2631245  61.7202034  69.5650101  15.0648804  36.7268333
  69.0800552  15.8895540  36.7579193  68.8882294  14.3914986  36.6578255
   7.9519300  20.1949043  26.8623657   7.1373372  20.1898079  26.3597279
   7.7848220  20.8021793  27.5831451  73.0568161  68.9430084  12.5108471
  73.8500595  69.3019409  12.9085321  73.0125809  69.3569946  11.6489363
  58.7358627  29.1770649  79.4853439  58.7923126  29.2127399  78.5304718
  57.9601707  28.6440144  79.6596680  60.4762726  34.9774246  78.3167572
  59.9919624  35.6729660  77.8718948  60.4321251  34.2331467  77.7164764
  71.8343353  17.6481495  83.7160568  72.3005066  17.1348591  83.0561676
  71.2399979  18.2035732  83.2115860  49.5069962  41.4232407  80.3414383
  49.4005547  41.0256004  81.2056046  50.1201935  42.1443825  80.4834976
  51.6466179  12.8629341  34.9484100  51.8722038  11.9958658  35.2853622
  50.8402748  12.7244730  34.4515533   8.9554186  15.7730360  76.4558334
   9.0613489  16.7093010  76.6244125   9.5996590  15.5778055  75.7753448
  72.2702789  54.2737732  38.8029556  71.6329117  53.6287041  39.1093407
  72.3310928  54.1211967  37.8599510   9.1737261   9.1673031  49.2884293
   9.1710186   8.4045267  49.8666992   9.8533859   9.7376900  49.6475296
  66.7420120  29.4373360  55.5410118  67.3407440  28.7609863  55.8577232
  66.0877304  28.9587498  55.0319939  55.2389679  39.4914894  21.8855591
  54.8511925  40.0247040  22.5794945  55.7769623  38.8496170  22.3490219
  59.6268692  26.8610573  60.8725815  58.7158699  27.0767326  60.6730881
  59.9308929  26.3738899  60.1067696  25.0476437  46.8913994  49.0001907
  25.4760170  47.0605736  49.8393021  24.2564125  46.4038162  49.2292061
  76.3599396  17.9481831  74.5037308  76.2882538  18.7983437  74.9376907
  76.9607773  18.1013947  73.7745209  47.0009651  52.3151894  45.0461578
  46.8139038  52.5846062  44.1469078  47.5470467  53.0181465  45.3981209
  34.5730858  13.5572662   0.2407757  34.1388550  12.8228035   0.6746408
  35.2728386  13.8111763   0.8425320  64.8570251  33.9632416  51.3282242
  65.3429108  34.7263451  51.0154648  63.9369736  34.2065582  51.2255707
  68.2184296  47.9165230  58.1275597  68.3786392  48.4762726  58.8873253
  68.6861572  48.3455887  57.4110680  79.5381165  56.6889687   4.5988860
  79.7280273  55.9502487   5.1772122  78.7819977  57.1182861   4.9991379
  23.0607471  19.7388420  69.8992538  22.2776566  20.1829891  69.5740814
  23.1266022  20.0092812  70.8150940  34.3169823  51.2463646  36.7706871
  35.0915260  51.2678337  37.3326950  34.2006989  50.3202782  36.5583916
  69.6181870  35.8525543  65.7657700  69.6807098  34.9039650  65.6539383
  70.1186218  36.0334167  66.5614395  60.6681290  40.7704620  38.4065208
  61.1557617  39.9507027  38.4867630  60.6853371  41.1465149  39.2865906
  42.2504387  32.9970894  83.2304077  42.1912422  33.4203110  84.0869217
  41.3467445  32.7678604  83.0135498   4.7958055  -0.1272568  61.8917847
   4.5503626  -0.1488875  60.9668427   4.1296644   0.4231448  62.3035469
  20.1169224  21.6029549  84.9796906  20.6821404  20.8904228  85.2781219
  20.6493549  22.3913498  85.0854340  26.9875965  27.9311523  87.3686066
  26.1146736  27.8321037  87.7486420  27.5776806  27.9370003  88.1222610
  74.8660736  38.0202179  57.6404419  75.6393356  38.5771751  57.7304039
  74.8044968  37.8457756  56.7012901   6.5431557  47.9966164  86.5035934
   6.1027784  47.4600830  85.8444748   7.1832771  47.4076881  86.9031372
  19.8555279  19.4814491  14.6054163  20.8122082  19.5022106  14.6291466
  19.6461143  19.0106201  13.7987576  62.5023460  32.1023483  84.3118134
  62.8330612  32.7785683  83.7205582  63.0610619  31.3434353  84.1441116
  40.2519226  56.9489899  86.8183899  39.4209747  57.1909599  87.2273026
  40.5365791  56.1703949  87.2969208   6.5988293   4.2897491  53.6842003
   6.9658480   3.6967337  54.3398361   5.7480288   4.5445137  54.0412216
  67.9206772  43.0458107  82.5998840  67.8276596  42.1541519  82.2644424
  67.0547256  43.2635193  82.9447784  36.3165932  11.4470806  81.7940750
  36.6879196  12.3100214  81.6105576  35.3735771  11.5999365  81.8539963
  76.6874313   5.9812212  61.2381783  77.5002365   5.5684338  61.5300446
  76.9698563   6.7875409  60.8065376  13.3514404  68.7598648  62.1997528
  13.0882120  67.9815674  61.7086411  14.3018351  68.6810684  62.2820511
  38.6532593  66.4206238   3.2003183  39.3166924  65.9675522   2.6799216
  37.8276711  66.0066833   2.9487503   1.3746090  45.1831665   6.6354241
   1.7945356  45.9957886   6.9174466   0.5909528  45.4689445   6.1659088
  23.6110249  28.0936127  25.7284088  23.2686501  28.3664207  24.8771820
  24.4105682  28.6077175  25.8409157  33.8245506  18.9861526  76.0460587
  33.0985146  19.3166389  75.5170212  34.1331215  18.2132683  75.5731277
  17.5006924  27.4835644  87.0240021  18.0354595  28.0034714  86.4240417
  16.8401508  27.0757732  86.4639816  73.8968506   0.8296600  21.4344692
  74.0447540   1.3333000  22.2349091  74.1390533   1.4274224  20.7271843
  75.5014267  37.8708458  64.4310760  75.1799850  38.7007294  64.0786667
  74.7322845  37.4676476  64.8336792  19.1968040   2.2697513  55.0401764
  19.8176956   1.6147050  54.7213707  18.6136017   1.7833565  55.6228676
   9.4509830  29.6436138  25.5159855   9.3865480  28.8267002  25.0212803
  10.3748779  29.8869324  25.4572811  71.7475281  32.3971863  61.7220802
  72.0742645  32.3997383  60.8223763  72.2747574  31.7332878  62.1664886
  26.5483246  16.7745419   7.3596282  26.8548470  17.1717682   8.1747875
  25.8271751  16.2048130   7.6271830  44.4536438  38.6357689  60.0600433
  44.4352226  39.0068588  59.1778946  44.6821823  37.7156639  59.9281044
  14.6394558  42.2505989   3.9167633  14.1758099  41.8658485   3.1729670
  14.7872133  41.5162811   4.5127330  18.2329826  21.1298065  17.3516121
  18.0543022  20.2291641  17.6220722  17.6615009  21.6635227  17.9036884
  39.8389664  57.1289520  21.8041782  40.2825508  57.2154045  20.9603844
  40.1168747  56.2745972  22.1344452  37.7470055  52.2319145  23.5477524
  37.5975342  52.0706673  22.6161461  37.0292435  52.8087273  23.8091660
  55.6834450  50.3148422  72.7138748  54.9983788  50.1383514  73.3586731
  55.2196198  50.7022171  71.9715576  48.2042465   3.8407147  66.6839371
  49.1414146   3.6557062  66.6229630  47.9734383   4.1938891  65.8247299
  52.6104889  19.9594707  85.1137695  53.3229027  20.5933094  85.1970978
  51.8390083  20.4907780  84.9168854  45.0827217  30.3738003  73.8322678
  44.1718979  30.3799553  74.1265411  45.3116684  29.4457874  73.7812347
   7.8621740  20.6565132   7.1149969   6.9703631  20.5935802   6.7730260
   8.3749428  21.0024776   6.3845115  43.4541779  46.7521133  69.5487671
  43.8721695  46.7433167  70.4098358  42.5575256  47.0396576  69.7207184
  76.4450760  18.4735451  40.4440918  76.1832504  19.3888130  40.3442574
  76.9446030  18.4549961  41.2603989  67.9457855  47.4273071   7.3042936
  68.0928497  48.3199005   6.9914322  67.1702499  47.1312027   6.8277450
  74.7361526  19.1145077  33.5959663  74.1567917  19.8764076  33.6051636
  75.1359711  19.1071262  34.4656334   0.0667777  24.9379749  83.9044418
   0.8077242  24.4250889  83.5816727  -0.3707450  24.3596954  84.5292587
  35.6104088  50.4804802  77.2488556  35.0940094  51.1161270  76.7533569
  36.3798485  50.9706802  77.5384979  31.5777378  34.1204910  70.4458008
  30.9926338  33.3630104  70.4352951  32.4055824  33.7790108  70.7838745
  26.7565308  67.4659653  60.2739143  26.9017544  68.3708649  60.5501480
  27.6074104  67.0419769  60.3855515  16.3930168  44.4218864  13.2206011
  15.9215622  44.6610527  12.4226274  17.1505337  45.0068398  13.2356749
   7.5528455  53.1004715  71.0903244   8.3961563  53.5533028  71.0918427
   7.0996079  53.4408531  70.3189926   3.0852535  33.6122284  37.4191437
   2.3077404  33.2058411  37.0363197   3.3710432  32.9950867  38.0927086
  79.6482925  34.2332764  39.1791763  79.0468140  34.0704575  38.4525833
  80.0584106  35.0718193  38.9673042  36.0117989  20.2623158  11.6137629
  35.5450134  20.4385681  12.4306345  35.7328262  19.3814621  11.3637514
  56.0321693  64.0041122   7.6628394  56.1171227  64.8274155   8.1436586
  56.8314133  63.9491043   7.1389937  79.2688522  15.3779364  87.4004135
  78.5105057  15.6148453  87.9342728  79.1713791  14.4377069  87.2497482
  81.6899719  51.6467857  81.5381546  81.1970139  51.7170715  80.7206726
  82.5476608  51.3147926  81.2728577  71.4980392  23.3451920  27.3887100
  72.0672455  24.0995235  27.2363300  72.0799789  22.6742573  27.7456779
   8.5300674  53.2761726  85.9323730   7.9104500  52.7428436  85.4345093
   9.3908129  52.9437828  85.6776886  44.9331818  51.7877121  38.8014183
  44.5298996  51.0509186  39.2604713  45.8281631  51.8195763  39.1393852
  22.2484798  55.1266556  42.9745140  22.5969524  55.3921432  42.1234474
  22.1269341  55.9482231  43.4504166  82.4093933  50.0505295   7.3448172
  82.5437088  50.4726639   8.1933422  83.2352982  49.6001625   7.1679482
   6.9300704  66.4772797   9.5783939   6.6423450  66.4017105   8.6685944
   7.3299284  65.6299515   9.7743082  16.9006519  33.7824326  22.0810337
  16.3002148  33.7043724  21.3396740  17.7668648  33.8579102  21.6807709
  27.9581184  13.5395555  78.4152298  27.6386280  14.1954250  79.0349045
  27.1645279  13.1586494  78.0392532  60.0044022  22.8967457  84.0132141
  60.3566284  22.3535557  84.7182770  59.9161263  23.7667732  84.4024277
  50.2031555  31.4686813  59.0220642  49.8400879  32.1846161  59.5434608
  49.4958496  30.8256187  58.9728317  24.0219421  42.6290550  34.0747147
  23.1039906  42.7948303  33.8599701  24.1832428  41.7378769  33.7648468
  44.0435219  14.3914328  17.9062786  44.0995407  15.2443810  17.4754963
  43.5726700  14.5652218  18.7213421  78.7633591  33.0170822  64.5688477
  78.4395752  33.7485886  64.0432129  78.6884537  32.2564468  63.9926033
  59.5001030  31.4684505   6.6772032  58.9593124  31.4769802   5.8874521
  60.2018738  32.0930099   6.4936986  34.9656143  53.3643684  20.6989059
  35.5774345  53.7087326  20.0482750  34.8152733  54.0962219  21.2972546
   6.5467739  15.8752556  71.3584595   5.8880486  15.2021151  71.5293198
   6.0475101  16.6184998  71.0199966  32.2768364  38.9730072  50.9784966
  33.0218964  39.2089462  51.5311661  32.6720238  38.6090469  50.1862907
  70.3912354   7.4745450  77.5139694  70.4390640   8.3375568  77.1026840
  69.5288315   7.1396356  77.2683640  12.1212587  37.9711304  14.1846905
  12.6157141  37.6234398  13.4424944  11.9540796  38.8849754  13.9541063
  84.7201004  50.1581459  35.2476425  85.5050278  50.6355667  34.9789619
  84.3892746  50.6462059  36.0016899  43.0715294  54.0478172  34.1215439
  43.4517555  54.4403343  33.3356743  43.7953377  54.0149155  34.7470436
  38.6987877  69.1296463  21.2727737  38.6626358  68.2005386  21.5001144
  38.7819290  69.1398468  20.3192463  82.7806854  70.3083878  52.1655884
  82.0090866  69.8569870  52.5077858  83.1399460  69.7074051  51.5129166
  76.9628296  21.1481876  13.1281910  77.4220123  21.1475372  13.9680586
  76.0369263  21.2152939  13.3614960  85.5165100  29.9693146  81.3829041
  86.2011871  30.4207668  80.8893051  85.9924774  29.4316273  82.0158157
  62.6332512  20.2158642  38.3629379  63.4371300  20.3159199  38.8728371
  62.7426987  19.3828964  37.9042244  83.8029938  64.9038010  30.2261848
  83.5616989  65.2901001  31.0680771  84.3958282  65.5427704  29.8305912
  11.2998438  28.1837139  89.2386093  11.3700647  29.1351814  89.1610718
  10.5734739  27.9492950  88.6609726  54.6364975  64.6551666  50.1456985
  54.7432213  64.6720886  51.0967827  53.7633858  64.2873764  50.0091667
  45.9005470   9.9086370  78.5401230  45.9187775  10.7907410  78.1689148
  45.4238586  10.0055037  79.3645096   1.1884432  16.2440338  40.1740685
   0.4094335  16.2672749  39.6183395   1.8969876  15.9899635  39.5827599
  24.7550793  63.2318611  43.5631752  25.3962097  63.5276413  44.2094688
  24.5599976  64.0124817  43.0447083  17.6497726  39.4373093   0.4239540
  18.0706673  39.6296387   1.2618623  16.7805252  39.8314896   0.4965024
  66.0521698  46.5811691  31.2639351  66.6151199  45.8240471  31.1024513
  66.4382401  47.2828522  30.7397022  62.1989861  41.6594048  71.2072296
  62.0309868  41.3807716  72.1074371  61.7883530  42.5216446  71.1427994
  44.3267403  36.2673416   8.3539991  45.1000900  36.0891724   7.8188181
  44.6567726  36.2884445   9.2522564  14.2001848  63.7182426  79.7199097
  14.4698744  64.1513443  78.9100189  15.0191984  63.4233475  80.1180115
  51.5482101  68.8020096  16.0683727  51.1505280  68.5703888  16.9076786
  51.0249710  69.5377502  15.7503452  75.3453217  30.3471184  58.0757942
  75.7631836  29.8489704  57.3733177  75.8868103  31.1309872  58.1683884
  81.8532333  60.3281097  52.1283340  82.7239532  60.3211746  51.7308083
  81.3404007  59.7231903  51.5923271  16.2436867  64.7877121  83.3204117
  16.5398769  65.5708160  83.7843628  15.2933187  64.7867737  83.4345779
  29.6866131  48.5197754   7.1057558  30.3165913  49.1000557   6.6784019
  29.0457687  49.1111412   7.5005174  10.8236742   2.6095994  41.3040581
  11.4281034   2.2799675  41.9690666  10.4160328   1.8236609  40.9402428
  63.3802299  68.7821350  87.8148346  63.6096458  69.6674881  87.5324402
  63.4923973  68.2441406  87.0311127  44.6787376  53.4268188  56.8173027
  45.3190994  52.7246513  56.9318962  44.8735161  53.7899590  55.9533463
  59.2447128   6.8350053  83.1874771  59.9383736   6.1853242  83.3014221
  59.3038254   7.3876791  83.9667664  63.6553078  35.8668709  15.3909388
  62.7017479  35.8228531  15.4618082  63.9547653  34.9932365  15.6425676
  45.0069580  56.3426056  38.3894882  44.1364670  56.2063293  38.0154495
  45.0873146  57.2930946  38.4691124  61.9836349  33.5429001  58.3538589
  62.2168961  33.0964088  57.5399361  62.8092499  33.9084320  58.6716270
  13.4887953  70.5451736  47.2384949  12.5576544  70.7635880  47.2772522
  13.9337606  71.3405685  47.5310440  53.3823891  43.8040047  38.4506226
  53.2122192  44.7313347  38.6159592  54.1144714  43.8010674  37.8339539
  67.5011978  24.0153275  79.5776596  66.8785629  23.8483849  78.8700638
  67.3829193  23.2801991  80.1791763  79.7983551   2.1737466   7.9385152
  80.3170853   1.3699855   7.9719706  80.2275772   2.7081847   7.2704034
  66.8162460  36.5997505  64.6932373  66.0853577  35.9823837  64.6632233
  67.5833206  36.0544853  64.8679047  30.2730160   7.9282532  16.6312656
  30.6658401   8.1390047  15.7842102  30.8555851   7.2687755  17.0080090
  63.7546272   1.0760663  88.1021957  64.3845901   0.5687652  87.5903168
  64.2605133   1.8149271  88.4404144  61.6940231  31.8619137  29.9628372
  62.1720543  32.6434174  30.2402744  60.9413185  32.2009621  29.4783649
  40.6362572  57.7585411  47.9919090  40.5276909  56.9236908  47.5364227
  41.3941154  57.6241302  48.5609589  69.5803375  50.1037102  11.3420563
  70.2526245  49.7885933  11.9461727  69.5386200  49.4338570  10.6595697
  53.0982857  44.2075424  83.1343689  53.3573723  44.8911629  83.7522507
  53.8254890  43.5852432  83.1469116  16.3184452  15.1545687   6.4060616
  16.4037514  14.3440523   6.9080753  16.4830551  15.8495035   7.0434017
  75.5214081  52.8595963  77.1655884  75.5078964  52.7632027  76.2133484
  75.3902283  51.9716415  77.4980927  72.7108154  48.7907066  65.3654251
  71.7580566  48.8826637  65.3599854  72.9090576  48.3042450  64.5652466
  17.4782734   3.9946110  73.8732834  18.0741558   3.3468366  73.4970551
  16.7167225   3.4861021  74.1520081  72.2703400  59.9780998  87.8413391
  71.3561554  60.2527161  87.9126434  72.7720947  60.7350540  88.1438065
  23.8716755  47.5451584  26.3222599  24.6048737  48.1605072  26.3212547
  24.2655277  46.7029305  26.0947495  41.7998848  34.1841965  71.3075333
  42.5668793  34.2312241  70.7368011  41.9957695  34.7898788  72.0223846
   8.8779936  45.9482002  71.3975372   8.6227903  46.3525581  72.2267532
   9.5081501  46.5598564  71.0167313  41.0026894  45.7206726   0.2873341
  40.0988274  45.5471878   0.5503281  40.9303055  46.0769958  -0.5981187
  49.9131737  31.0993214   3.7599349  50.6865044  30.8334236   4.2574162
  50.2433472  31.2722912   2.8782897  71.7520142  26.5380383  14.8360062
  72.4519730  25.8873177  14.8893480  70.9466553  26.0215855  14.8058205
   6.7495875  52.4461174  10.0068464   6.1505160  52.4521065  10.7533779
   7.4763813  53.0066681  10.2784815  31.2702751  38.5077171   7.7577972
  31.6892262  37.8676529   8.3331451  30.9419994  37.9901352   7.0225601
  50.1042480  23.1486320  16.4342995  49.7272911  22.4402027  16.9560871
  49.3687439  23.7363548  16.2615204  61.9926491   7.3306847  58.7190933
  61.3533134   6.6937947  58.3999481  61.7898293   7.4280329  59.6494789
  42.6945305  30.4795265  75.1368256  41.7721062  30.7099113  75.2476730
  42.8404999  29.7685661  75.7608948   3.3780453  55.7451591  30.3234730
   4.1283488  55.3552856  30.7721100   2.6972497  55.0737381  30.3675480
  61.5672760  45.6614075  55.4981651  61.7426720  46.6001434  55.5632858
  62.4332123  45.2539978  55.5182037   9.1635313  13.2765360  83.5152588
   9.0242939  12.8892374  84.3794556   8.5973969  12.7708702  82.9321365
  48.3975754  26.2785721  25.1630077  47.5751381  26.2032757  25.6469059
  48.9396057  26.8562317  25.7003574  62.8991470  -0.0429594   1.6446779
  63.3602791   0.1218354   0.8222225  62.8826141   0.8070611   2.0844774
  83.3150330  23.1114426  82.8682098  82.3872910  22.9275227  82.7208939
  83.6249771  23.4629841  82.0335922  44.9977570  55.3210411  73.5006409
  44.4456635  54.7105713  73.0120239  44.7573433  55.1809578  74.4165039
  85.1123581  42.2071037  12.0500345  85.5138168  42.2028847  12.9189672
  85.6457367  41.6001930  11.5368147  42.9776917  41.5560608  77.5056534
  43.9222183  41.6292114  77.6425781  42.8908882  41.1915436  76.6248398
  52.4541969  41.1012611  31.6753426  52.3057175  41.5176468  30.8263397
  51.9013824  40.3200073  31.6588993   9.4552555  49.5734940  22.9561996
  10.0329294  50.0517998  23.5509663   9.1229649  50.2413559  22.3563881
   9.9512863  21.6912785   9.3155756  10.5961189  21.0126801   9.1157656
   9.2464428  21.5451241   8.6846495  74.7467041  26.5349712  48.1942787
  75.3273621  26.8832893  47.5177155  74.5254440  27.2939186  48.7339783
  69.2336655   0.4944217  37.7668686  68.6916962   1.0257410  38.3501358
  70.0948868   0.9112774  37.7943192  81.2449951   5.2372794  87.9209137
  80.3813400   5.4473262  87.5656509  81.1347656   4.3767891  88.3254318
  51.6972046  12.6155529  44.9029236  51.9014816  12.1286850  44.1045113
  51.8756866  11.9981117  45.6122475   7.1148109  24.9099903  24.4160328
   7.1266403  25.8546276  24.5701504   7.8318896  24.5709038  24.9518032
   1.0685620  25.3149014  11.4524632   0.8149252  26.0974483  11.9418707
   1.0488652  24.6104450  12.1002169  20.0233650  52.8410721  38.5355148
  20.0360470  52.7933235  39.4914398  20.5261059  52.0778732  38.2508888
  54.0163231  34.3147278  61.9208107  53.4192314  33.6124573  61.6628685
  54.1734161  34.8041916  61.1133575  83.3744812  47.3464622   0.5912465
  82.9583664  48.1331863   0.2389001  84.1790848  47.6641464   1.0010154
  54.0833549  30.6159668  37.8142319  54.9240303  31.0209160  37.6008987
  53.4385948  31.3059273  37.6577988  62.7550087   9.6711845  77.6677017
  62.3728218   9.5179749  76.8035889  62.1025543   9.3337145  78.2814255
   4.5663543  60.2528801  80.7468567   4.1614351  61.0150108  81.1608963
   5.3884621  60.5848541  80.3860703   7.1357226  31.5408058  74.5255966
   6.7994647  31.5313492  75.4217377   6.7251754  32.3064690  74.1237946
   6.5170836  38.2168884  49.5772133   6.9266934  39.0407410  49.3131638
   7.1440320  37.5428276  49.3149033  14.5271444  61.6088524  29.5107613
  15.3860445  61.5311317  29.9260712  14.2026091  62.4649315  29.7901173
   2.7544467  46.7270012  27.6466732   2.3991015  45.9865265  27.1550808
   2.0037253  47.0797005  28.1244297  53.8524170  37.9476700  14.5773401
  54.7394028  37.8637505  14.9272623  53.3459816  38.3253288  15.2964573
   2.5981536  40.6380310  66.4004822   2.8805969  41.5445595  66.2793961
   1.8873533  40.5223656  65.7699127  17.4614029  51.9061432   1.4074844
  16.5953712  52.1002579   1.7660140  17.9960461  52.6621132   1.6501809
  50.2802010  60.3629837  44.8895760  51.0480957  60.8990669  45.0875320
  49.9573135  60.7055855  44.0561485  58.0130577  59.4437675  15.1141605
  58.5156517  59.8126640  15.8404865  58.1559563  60.0532799  14.3900700
   1.7742701  18.9249706  11.8037071   1.3101810  19.2485619  11.0316038
   1.1738052  19.0898781  12.5306730  42.7853737  68.2381744  66.0763702
  42.0022011  68.1335526  65.5360718  43.4325523  67.6583557  65.6748581
  82.6331711  24.8851471  67.2066956  83.1549835  24.9724560  66.4090042
  81.7256699  24.9210644  66.9043884  72.7870026  33.7805595  12.7427158
  72.3126755  33.9632874  11.9316301  73.5583572  33.2874985  12.4632006
  49.0947609  44.7445221  68.5947266  49.5171089  44.1725044  67.9539032
  48.1575584  44.6278915  68.4389114  74.7263947  14.1709957  61.2997475
  75.3616791  13.5386543  60.9639053  74.9096909  14.2193928  62.2379875
  45.6377907  48.4244461  75.7200775  45.7117157  49.2646866  76.1725769
  44.8322639  48.0376625  76.0632324  27.9584808  18.9358940   2.4578793
  28.0256882  18.5050411   3.3099825  27.2868767  18.4390831   1.9905914
  86.2392273  33.2290764  62.4070549  86.6061935  32.4628372  61.9660950
  86.9175949  33.8995590  62.3264389   0.5876788  21.9920673  75.7238617
  -0.3212388  22.2051315  75.5124283   0.6651438  22.1755905  76.6601028
  44.1751480  58.9376488  56.5817909  45.0038986  58.4656639  56.5003357
  44.3338318  59.5831566  57.2705383  57.6936035  66.5884781  84.9563522
  57.0741425  67.3110657  85.0581665  58.5406380  66.9633408  85.1976852
  74.9297867  40.6965141  82.3013229  75.5301208  40.8389931  81.5695190
  74.8728027  39.7444687  82.3825073  13.3251171  28.7672787  80.4203415
  13.9869938  29.4237690  80.2031555  12.9266634  28.5416908  79.5797653
  10.7404890  19.5315495  72.6392212  10.9375858  19.3570557  71.7189255
  10.0277987  18.9283524  72.8500748  69.3391037   4.8865871  22.9065876
  70.2489929   4.6133337  22.7896595  69.3438950   5.3943076  23.7180252
  68.1286545   8.9502335   9.1068630  68.2373886   9.8979664   9.1856699
  67.4227600   8.7385273   9.7177038  34.4669647  67.8564758  44.5350647
  33.7599182  68.3200989  44.9838066  34.7918816  68.4831772  43.8886147
   9.0874081  21.6022339  24.8179455   9.4247780  22.2292137  25.4577198
   8.6692657  20.9223919  25.3463440   7.3701563  52.7046013  31.7537594
   6.7682500  52.5399132  31.0279369   6.8970046  53.3099556  32.3246422
  71.5850296  49.9500847  20.8922825  70.9030991  50.4471359  20.4404545
  72.3661194  50.4992599  20.8249531  78.5778427  69.3387909  33.6105042
  78.5500336  69.0610962  34.5261154  78.5107040  68.5248871  33.1112251
  69.9342117  10.0975580  63.9626007  69.4260025   9.6727467  64.6536102
  70.0500870   9.4181490  63.2983665  70.1990967  59.5268898  71.2068024
  69.8252716  59.9966316  71.9523468  69.9254227  60.0340500  70.4425278
  58.1857529  68.1727448  70.6671982  59.1347847  68.2969208  70.6551514
  57.9302292  68.3668289  71.5690155  31.4671516  19.0281219  71.7139740
  31.0818253  19.5226994  70.9906845  31.2489319  18.1158257  71.5233765
  45.2471352  45.2390022  33.8962097  45.6016884  44.6202431  34.5346909
  44.7390251  45.8586273  34.4197769  33.1444092  69.0804672  86.2078018
  32.2263641  68.8360825  86.3248444  33.2393799  69.8968353  86.6984711
  57.9413490  15.9583273  50.8650780  57.0328217  16.1801357  51.0690575
  58.1094360  16.3855934  50.0251846  28.3453693  17.6957626  82.7534180
  27.8000412  18.3839073  82.3722305  28.3805847  17.9072723  83.6862946
  68.2287445  47.7852974  81.5616913  67.6681137  48.5522232  81.4444199
  67.7273865  47.0622292  81.1848068  84.7188110  39.4598274  76.7866516
  85.3326111  39.7696457  76.1206970  85.1912384  39.5602798  77.6130600
  75.7108154  15.3089876  73.6548462  75.6266327  16.2049561  73.9810104
  76.6421509  15.1075315  73.7457352  55.0302773   5.4259734   0.9179092
  54.4165878   5.7831860   1.5597949  55.8400688   5.2909713   1.4100904
  29.3366299  60.9809837  11.9266033  28.6165428  60.4654655  12.2898474
  29.0651302  61.1723938  11.0288944   6.8634300  67.7768326  73.3602142
   5.9666820  67.5309525  73.1330185   7.4014230  67.0624542  73.0189590
  36.5224457  21.9105873  71.4536591  37.4793129  21.9216061  71.4309158
  36.2631416  21.7494717  70.5464478  82.8966675  60.8023262  58.6178474
  82.2637100  60.1363144  58.3494797  83.2742081  60.4610825  59.4285545
   6.2341232  59.5354538  48.7522888   5.7281141  59.5882187  49.5630913
   6.8103495  60.2992973  48.7794380  15.6528654  42.5879402  37.4138718
  15.7114792  42.6000671  36.4585457  14.7139120  42.5489807  37.5957489
  74.5142822  50.0895042  30.1330090  74.4082642  49.1436348  30.2346230
  73.8135605  50.3460159  29.5334854  82.5575562  33.3752289   8.4145994
  81.9481430  34.0994568   8.5572195  83.0492935  33.6264229   7.6327243
  76.1068878  54.7235260  29.8367367  76.7095108  55.4454536  29.6581326
  76.2276611  54.1231422  29.1010857  61.4432487  69.7539444  28.4471817
  61.8592987  70.4059830  27.8832855  61.9049110  68.9385757  28.2515469
  41.7034340  15.9199772   0.6459720  41.1674194  15.5522270   1.3485940
  42.0599365  16.7281895   1.0146625  40.7140579  70.8549728  63.7977867
  41.5085754  71.3841858  63.7277298  40.4190483  70.7450027  62.8938446
  57.1370430  43.2366371  77.1756439  56.5445213  42.4853554  77.1487274
  56.5816154  43.9873810  76.9656067  66.3322372  37.0394974  34.3570976
  66.8661575  36.8826561  35.1359177  66.0727081  36.1657829  34.0646935
  53.5898399  48.5932922  33.3606529  54.2956276  49.2229576  33.5076981
  53.8367195  47.8303909  33.8834000   5.0554013  40.4707489  81.2008438
   4.5528107  40.8582344  81.9174271   4.4390078  40.4319725  80.4695511
  64.5229874  50.5558853  45.4840126  65.0598297  51.0193138  46.1268730
  65.0825043  50.4860001  44.7105217  72.7914734  66.4222565  78.4218979
  73.4864960  65.7704849  78.5133667  72.7935486  66.6455841  77.4911118
  79.1252518  62.0847664  81.9619293  78.8072281  62.8342934  81.4586411
  79.3731308  61.4394798  81.2998123  62.8309441  27.4149036  86.1652069
  62.3920670  27.3477631  85.3171997  62.5394821  28.2548294  86.5198975
  37.1286507   8.7108793  82.2276611  36.9058342   8.7209787  83.1585159
  36.8089294   9.5498285  81.8957367  56.7438889  27.7309017  29.8086987
  57.3844452  28.2136440  30.3310738  56.8051224  26.8302650  30.1270351
  79.2033539  11.9379473  87.3675232  78.5715408  11.3201408  86.9996109
  78.9981384  11.9623280  88.3021469  60.6456375  55.4410744  65.8106842
  60.1836548  54.7055130  65.4085083  60.0085716  56.1554642  65.8059540
  65.7337189  23.6297989  15.8519487  65.0774002  24.3100796  16.0025845
  65.2885971  22.8132038  16.0783691   1.2481297  23.8628826   8.1278057
   0.7428651  23.2992172   7.5419545   1.1607801  24.7387733   7.7517481
  82.2157135   6.6609268  64.5562210  81.4421005   6.3208942  65.0058060
  82.0201721   6.5498757  63.6258125  82.2240753   0.1195090  67.8838806
  82.6675415   0.6261885  67.2035522  82.8730927   0.0371948  68.5826187
  44.4931870  36.5604858  79.7876129  44.7474365  36.2279282  80.6484299
  45.0087128  36.0429268  79.1690674  70.3744965  24.6877270  46.2240219
  70.7529221  25.3842850  46.7605209  70.1096573  25.1255436  45.4150658
   4.4217868  36.7546959  29.9482841   4.6649561  36.3851585  29.0994358
   5.1274805  37.3679619  30.1535511  -0.1809848  39.5852242  52.6660080
  -0.5505062  38.9115219  52.0952110   0.7652463  39.5121231  52.5413704
  60.6971893  50.0604477  43.1365623  60.7311134  49.2998466  43.7167053
  59.8537674  50.4704742  43.3282700   6.5685339  16.7912235  65.2304611
   6.5647101  16.2836475  66.0419922   5.9966784  17.5371037  65.4117737
  43.1894684  40.1832047  17.1479530  43.7869949  39.8879509  17.8349895
  43.7576637  40.5955925  16.4973164  40.0984344  58.0553589  54.1515541
  39.9545898  57.6346207  53.3038979  39.4667549  57.6372795  54.7367287
  71.9277496  67.4520721  17.1189747  71.0177917  67.4665909  16.8223343
  71.8680649  67.4373474  18.0741978  81.5496368  32.5329514  34.6671371
  81.9381638  33.2752228  35.1300735  81.8488007  31.7644386  35.1530571
   4.5948811  37.1598167  82.7428818   5.4127817  37.0546799  82.2568665
   4.7738357  36.7722015  83.5996017  47.1830750  49.5034904  10.0765896
  46.5797424  49.7520485   9.3762751  47.2942123  50.3025169  10.5918007
  77.5761337  49.6045609   8.7236958  77.4287872  50.5167923   8.4739838
  78.5264053  49.4962387   8.6853542  52.5179749  64.7915344  67.2924728
  52.2016678  64.9087601  66.3966827  51.7922516  64.3658829  67.7489624
  86.5206528  53.8175621  20.2542763  86.4685822  53.5714302  21.1778221
  86.5778503  54.7730026  20.2638950  48.8858643  14.2974348  81.8018875
  49.5473289  13.6068907  81.8448563  49.1461334  14.8320665  81.0517807
   9.9574728  29.4972305  58.5272331   9.2788296  28.8498497  58.7184715
   9.9717216  30.0642109  59.2983093  42.4507828   4.2856417  66.4434662
  41.4969559   4.2385159  66.5084534  42.6545601   5.2112131  66.5777283
  15.6032515  52.3517456  40.3088799  16.0134926  52.2864761  39.4465141
  14.6634417  52.3199196  40.1300545  15.5367661  31.0960236  70.5112076
  15.5579338  31.4157181  71.4131927  15.7866764  31.8538589  69.9825592
  58.8052979  24.7802010  34.0526657  59.2415352  25.6167660  34.2141800
  58.1576958  24.7084675  34.7538757  23.0305538  69.7488327  55.3453941
  23.6729336  69.8808365  54.6481476  23.5484486  69.4593658  56.0965462
  63.2549591  38.6746941  67.5712585  63.6491165  39.4725189  67.2186356
  63.0110779  38.9041595  68.4679718  83.8451767  52.2696190   4.8048868
  83.4078827  51.5173683   4.4059706  84.7150955  52.2803802   4.4057031
  60.7457161  25.0135136  23.2584343  61.4708633  24.9297066  23.8776054
  61.1397552  24.8409863  22.4033318  67.6125183  53.8689270  80.0106506
  67.5574341  53.7682610  79.0603485  66.7487564  53.6074524  80.3296661
  84.8397980  23.3764133  80.7036209  85.7798615  23.4282227  80.8763199
  84.6645050  24.1073685  80.1109924  33.8499069  28.0377750  79.3570328
  34.6629295  28.1693783  79.8447876  34.0902786  28.1949177  78.4439316
  15.6829157  22.5041485  21.8660641  14.7775869  22.5981846  21.5698032
  15.9106016  23.3649502  22.2173634  58.2257462  26.2370071  23.4145927
  58.9081306  25.8228054  23.9428158  57.4937820  26.3563633  24.0197506
  25.8608952  46.1505013  67.3473511  25.5790424  46.1284714  68.2618484
  26.0174751  47.0774727  67.1672363  86.5214386  26.1792698  62.9471207
  86.8609619  25.6510429  63.6695709  86.4117279  27.0537033  63.3206978
  81.4136200  15.6358776  77.8307571  81.8272247  15.7289257  76.9725571
  80.7327194  14.9762974  77.6982269  50.7489014  64.0524292  79.8257217
  50.9665375  64.9419861  79.5472336  49.8289146  63.9442787  79.5845490
  82.6042862   3.2660539  19.5881271  82.1303177   4.0705857  19.7986298
  83.2367172   3.1674545  20.2998447  77.2655869  60.7940941  36.6658859
  76.7293854  61.3246155  37.2551765  78.0429840  60.5764122  37.1801796
  62.2786179  28.8022823  63.0623703  61.4850922  29.1482258  63.4708710
  62.2809258  27.8731537  63.2924652  19.9322510   5.4036622  17.7363377
  19.1393871   4.8681426  17.7077522  20.4116821   5.0812144  18.4994926
  36.6684532  41.3571854  75.4408264  36.6323929  42.3101120  75.3579636
  35.9599648  41.1425552  76.0476303  43.1754112  63.6708183  33.2156029
  43.2112389  64.3225021  32.5154228  43.0046921  64.1798325  34.0080643
  86.3914871  13.4302320   2.3997161  86.2650986  13.2321854   3.3276355
  86.7470779  14.3188858   2.3907475  59.2214851   6.0250106  71.5226288
  59.3998299   5.4442148  72.2622910  59.8911095   6.7060542  71.5859833
  77.8928757  29.8868427  70.3583221  78.1477737  30.7630711  70.0693893
  77.4943237  30.0244942  71.2176514  32.6611671  54.6962509   1.3629189
  32.7919922  54.2676430   0.5170977  32.1924171  54.0488167   1.8895453
  15.5874281   4.8029742  57.6680069  15.6421776   4.2017832  58.4108429
  15.9268780   5.6319776  58.0052872  17.4325104  62.3845940  11.3931503
  16.9261208  61.6039238  11.1687536  16.8258648  63.1117973  11.2539139
  28.0038300  21.5512199   1.7238737  28.1026421  20.6314030   1.9696422
  27.3333683  21.5459118   1.0407319  79.9097595  65.9084473  21.8604298
  80.2797699  65.4114990  21.1307983  80.1310577  65.3944092  22.6369781
  57.2181282  30.1202812  50.1353188  56.9061508  29.8376751  49.2756462
  56.6485596  29.6677685  50.7574539  38.8199577  15.1070843  19.0612526
  38.1158295  15.0720358  19.7087154  38.4254951  15.5350752  18.3013477
   4.6302099  68.0845032  70.2086487   4.7249684  68.5481720  71.0406799
   5.1930833  67.3154221  70.2975922  55.0498085  10.5974798  70.2836838
  55.0113678   9.7143097  69.9165802  55.4472504  10.4810619  71.1466599
  32.5320816  62.4295006   9.6354532  32.8950081  63.1073837  10.2055330
  33.2988205  61.9892464   9.2686777  85.9977875  36.8711510  33.8391685
  85.2151718  36.3978310  34.1214943  86.5018616  36.2261467  33.3430672
  22.7246914   8.8582172  62.4959602  22.3318806   8.0378151  62.1978493
  23.4052429   8.5878267  63.1123772  79.0525131  19.5039978  48.4242935
  78.3235703  19.8536816  47.9118614  79.2564011  18.6657238  48.0096169
  66.8332748  44.5102921  45.6267967  67.1044617  44.6791801  46.5291100
  67.5694656  44.8125191  45.0948944  83.7693405  65.7604370  57.4268494
  83.1122437  65.5366592  56.7677727  83.8769302  66.7080994  57.3456650
  40.7543716  47.3977089   4.5289226  41.4374008  47.9039421   4.0891185
  41.1204910  46.5165329   4.6045232  30.8656406  62.9233665   7.6210914
  31.4081745  62.6961403   8.3762455  31.2602463  62.4469566   6.8906446
  40.8122635  18.3830662  21.0783176  39.8808937  18.3523960  21.2970524
  40.8603325  18.9595871  20.3157272  72.7255325  59.9403076  75.9900742
  73.0642624  60.3541679  75.1962051  73.3085327  59.1960106  76.1396027
   4.3791184  41.8834724  32.4150352   4.2951741  41.5226021  31.5324497
   4.5975161  42.8051682  32.2771606  42.2378807  36.0070915  73.0514069
  41.6679993  36.7405434  72.8200684  42.8882256  36.3862915  73.6425858
  14.1308575  16.8186531   1.5928919  14.4095478  17.3544540   0.8502741
  13.4703312  16.2294025   1.2285831  72.8578796  59.7339821  72.0358047
  73.3803329  59.0356522  71.6413345  72.0004578  59.6572189  71.6172714
  57.7387352  48.1105423  31.9569740  57.2128906  48.6653976  32.5330429
  58.6226845  48.1568451  32.3212891  81.9014206  57.0642967  71.7735825
  82.7931824  57.3931541  71.8869247  81.5524673  57.0068359  72.6630478
  47.1326828   5.6823821  21.9831200  47.3297424   6.4019675  22.5827827
  47.7344589   4.9840946  22.2409821  63.3100586  47.1058960  74.9446259
  62.7156372  46.3783112  75.1276932  64.0416107  46.7051849  74.4750595
  58.5068893  28.9286327  76.7211761  59.0755386  29.3895359  76.1043777
  57.6200142  29.1789074  76.4622421  65.9916229  46.7277031  68.2421951
  65.1279449  46.7112999  68.6545410  65.8463058  47.1566391  67.3989105
  85.5558090  63.5273857  83.9934082  85.5200577  64.4802475  83.9096756
  84.9553986  63.2051811  83.3211517  82.5888901  64.0540314   7.3096471
  81.7768784  63.8400955   6.8501873  83.2180176  63.4023743   7.0001798
   7.7653656  35.4986839  58.2745857   8.1702538  34.7951851  58.7819176
   7.7098613  35.1507874  57.3845749  12.6160145  51.9346123  79.9183502
  12.2345991  51.1680450  79.4904175  13.4066105  52.1226730  79.4125595
  18.0504208  71.0911713   2.2993438  17.3884811  70.9851303   2.9825897
  17.9765491  72.0080414   2.0345328  13.1010046   1.5761698  30.1802273
  13.3425789   2.4693623  30.4253426  12.5394058   1.2753410  30.8946095
  22.0913315  69.8332367  28.6962490  21.6680565  70.6667404  28.9020119
  22.2077599  69.4076157  29.5456753  56.2912064  40.2575912  51.5660629
  55.4524498  40.5359421  51.9338074  56.8984680  40.9611435  51.7951660
  16.0087566  36.8056908  16.3480530  15.5621710  37.6406326  16.4882908
  16.3093338  36.8443794  15.4400949  61.7955093   6.6837692  31.8083344
  61.6211014   6.2545347  30.9707375  61.3773727   7.5412140  31.7297096
  69.9408035  21.1324844  79.8726883  70.8156586  21.2051888  80.2542343
  70.0910034  21.1327324  78.9273529  64.7218552  24.8401833  27.3241901
  64.3097610  24.6889191  28.1747971  64.0036545  24.7737198  26.6949005
   6.8020864  63.8882523  67.3471375   7.0376010  62.9703941  67.2118759
   6.8950219  64.2892303  66.4829559  55.3118629  39.9090538  40.1989746
  55.6696129  40.7592430  40.4547615  54.4279556  40.1048431  39.8881645
  44.2990685  38.1228333  69.9692688  45.1477318  38.3632278  69.5974960
  44.5038223  37.4491920  70.6177444   9.0081558  13.6219416  11.5909567
   8.9301434  14.1072035  12.4123373   8.8824186  14.2824545  10.9096756
  67.9416199  30.9773922  58.8542099  68.5582657  30.2488537  58.7819901
  67.1662216  30.6831436  58.3762932  15.1575956  53.4285088  62.2457008
  14.6186171  54.1408348  61.9017143  15.2454042  53.6236420  63.1786766
  20.4886703   5.7147131  85.0971527  20.2795620   6.4832301  85.6280899
  19.6481419   5.4417567  84.7294083  17.7565689  53.3651009  42.4200935
  17.0919628  52.8736687  41.9373627  17.3993206  53.4460793  43.3044281
  15.0373402  66.0144043  61.7214241  14.2573442  65.7714005  61.2226372
  15.4682522  66.6786804  61.1835747  43.9518051   8.8988810   0.8983485
  44.5897446   8.1872091   0.8455425  43.4203682   8.8032904   0.1079892
   7.6489644  34.4450493  71.2528610   7.2041612  35.1846771  70.8389435
   6.9474525  33.8254852  71.4534988   5.8459892  54.6754951  85.5732880
   6.4990525  54.0134163  85.3465958   5.1692605  54.1920166  86.0471268
  66.8889923  43.0389824  75.0762177  66.1241150  43.6109428  75.1399460
  66.9634552  42.8417587  74.1425247  33.0162201  40.7075195  61.5651131
  33.8225517  40.7925034  62.0738792  32.3173866  40.7260590  62.2189636
  71.8725815   1.4481522  37.5075836  72.4486771   0.7331069  37.7778816
  72.3299637   2.2420292  37.7847023  69.3743973  67.2214050  40.3213806
  69.2858887  67.4593735  41.2442932  69.4218674  68.0595093  39.8614197
  67.5910416   9.1767635  73.6834564  67.5511627   8.4495773  73.0622940
  68.5207520   9.2599068  73.8955078  55.4703102  40.1179390  42.9377441
  56.3360100  39.7707481  43.1528015  55.3814240  39.9731407  41.9957428
  60.9282494  60.7420692  22.7368126  60.2256775  60.6393738  23.3787460
  61.2577209  59.8541107  22.5982113  73.0498352  15.3562908  39.6367188
  73.4733429  15.7386427  38.8681641  73.6776886  15.4888906  40.3469658
  14.5767527  67.5241928  56.1691933  15.3503456  67.6979523  56.7054710
  14.7773142  66.7041321  55.7180824  56.5070267  26.3304710  76.6947708
  57.4565659  26.2140923  76.7274551  56.3268623  26.5755405  75.7871857
  46.4379578  56.7749176  76.8443069  45.8884468  57.4152412  77.2962494
  45.8582726  56.0292931  76.6886139  11.7132149  12.2534895  83.3528824
  10.7824469  12.4715567  83.4013672  12.0356083  12.7460356  82.5980988
  72.9072342  13.4693308  42.0635834  73.6571121  14.0565186  41.9680367
  72.5604248  13.3773918  41.1761703  49.6565819   7.8257260  76.8668976
  49.8843231   8.1268415  77.7464981  48.7013779   7.8788538  76.8353806
  66.5556412  48.1013184  78.9892273  66.5725861  48.4944420  78.1166458
  66.0380859  47.3032265  78.8823471  59.8644638  37.8463593  56.6862717
  60.2144547  38.0056610  57.5628357  60.3775215  37.1098747  56.3537216
  47.5014915  14.0901289  85.4824524  47.6119270  13.1406984  85.4312820
  48.3944206  14.4344673  85.5009308  15.3679695  13.1295366  19.3346806
  15.8544483  12.6615114  20.0132980  14.4808826  12.7738342  19.3874512
  78.7450409  65.2518997  12.2775383  78.0774384  64.8660049  11.7104158
  79.5571518  65.1775742  11.7763662  68.7991486   6.7945337  15.2137814
  68.6807632   7.7311645  15.3717041  69.0249329   6.4337411  16.0711498
  23.3368416  54.4707909  73.8829651  23.8873672  54.4813499  73.0999908
  22.4707355  54.2178917  73.5633774  15.9276695  47.8088531  45.0570641
  16.2547836  46.9972382  45.4450226  15.6420317  48.3336639  45.8048706
  31.7362823  55.0327339  68.1160278  31.3367386  55.8654099  68.3675079
  32.6406441  55.0987434  68.4226303   1.8979371   7.2251558  35.6619949
   2.8425744   7.1290174  35.7830315   1.5431000   7.2423062  36.5508308
  16.5605087  48.9241524  59.2189369  16.7865715  48.8534164  58.2915077
  16.8442192  49.8036995  59.4682121  65.5170593  43.6382790  50.8524742
  64.6085739  43.6381187  50.5509987  65.5140305  44.2078514  51.6217613
  32.5318565  46.8166580  77.2104492  33.1676598  47.5080261  77.0260696
  32.9785042  46.0077133  76.9607620   9.9956169  58.2108192   7.9566860
  10.3159361  57.3148956   7.8520536   9.4191093  58.3483772   7.2050552
  64.6246109  31.4975948  47.0444984  64.9758835  31.4145832  47.9310379
  64.2517319  32.3787270  47.0161476  83.7768631  64.5819168  36.9844475
  84.4948578  64.1640396  36.5089531  83.9616928  64.3997269  37.9057922
  41.9863358  13.4903727  78.6888275  42.3829155  13.1588068  79.4944458
  41.2584381  12.8930626  78.5167389  28.3894043  38.6383095   5.6395092
  27.7445107  38.7188797   6.3422556  28.8871059  37.8510399   5.8602633
  59.7259598   3.2647781   3.7069507  59.5396233   4.0274763   4.2544923
  59.1461792   2.5812898   4.0429993  60.7965660  11.7695541  74.5188828
  59.9546814  12.0754576  74.8563461  60.9079323  10.9007502  74.9048996
  74.1770782   7.3455391  15.8430824  74.7339630   6.5859003  16.0135517
  73.4895782   7.2923183  16.5069637  50.2368927  48.3941460  34.3637772
  49.4867058  47.8716087  34.0802116  50.5295486  48.8431244  33.5706787
  64.4445724  15.9079370  69.1261749  65.2717667  15.7601805  69.5845947
  64.6879501  16.4109955  68.3490448  49.7290230  47.3803825  68.2579041
  49.8808670  47.3682404  67.3129044  49.4813538  46.4809723  68.4722672
  71.4284363  70.9391937  58.2692909  71.0434189  71.7307587  58.6453514
  71.0737991  70.8990326  57.3811188  65.8262634  37.1567841  50.3390388
  65.2033005  36.7003555  49.7735062  65.4915543  38.0520782  50.3905487
  52.7059822  52.6165237  40.7345009  52.3829727  52.8739777  39.8710098
  52.0049477  52.8659897  41.3366241  69.9332352   1.0390229  65.0020523
  70.7165375   0.8635315  65.5234680  69.9396439   0.3624155  64.3250046
  81.0105362  22.7147598  71.2926025  81.3593674  22.1852913  72.0096817
  81.7130280  23.3313942  71.0864487   2.9577198  51.5660362  14.0210676
   2.3602762  52.1764030  14.4532042   2.3869090  50.8891296  13.6574678
  29.6703720  66.2224884  64.1968384  28.9699478  66.4180222  64.8192596
  29.9777756  67.0806656  63.9048386  69.4815598  44.4592476  44.7805939
  70.3106308  44.8724823  44.5395317  69.6667633  44.0157852  45.6084061
  67.7008972  18.7015228   1.1912711  68.0228424  17.9099808   1.6226001
  68.0531769  19.4203911   1.7160177  60.6956558  33.8109703  80.6582870
  60.3998451  32.9006920  80.6472931  60.6505814  34.0885239  79.7433243
  46.2765312  65.1929016  84.7821579  46.6967239  64.7419281  84.0498352
  46.3781929  66.1231232  84.5807037  48.2830048  41.1614342  75.8156586
  47.8653870  41.5722427  75.0586395  47.9759407  40.2550354  75.7960281
   7.2621102  28.8984566  14.1339684   7.9360094  29.0437164  14.7980413
   7.4119811  29.5869160  13.4860516  57.2654839  52.4768143  80.9697800
  57.7972412  51.7234917  80.7129364  56.6648521  52.6073608  80.2360001
  14.8647966   4.4060855  38.2121086  14.2961998   3.9657531  38.8438034
  14.6513987   5.3346243  38.3043518   1.6139506  64.9419479  37.2149620
   2.0711157  64.2979813  36.6740913   2.0037634  65.7809753  36.9693680
  38.5842171  51.8515739  53.1955414  39.2101517  51.6142578  52.5113449
  38.7006302  52.7947502  53.3099785   3.1652007  58.3496666  54.3862000
   3.1996102  59.2994499  54.2723541   3.5334938  58.1992989  55.2568207
  33.5981789  42.2981606  82.7280426  33.5042915  41.9953995  83.6312256
  32.7281723  42.6197205  82.4915619  70.9575424  48.2018394   0.7967966
  71.0621719  47.2751884   1.0126758  71.5932007  48.3583336   0.0984616
  34.4202156  39.9574661  -0.1964718  34.0353127  39.7825012   0.6622879
  35.3561745  40.0586319  -0.0233231  51.1656990  66.7237778  36.2304688
  50.5800209  66.2359390  35.6514854  52.0280190  66.3362122  36.0806999
  25.3953342  19.9227428   6.6617661  26.2716579  19.8522911   6.2831836
  24.8051605  19.6932869   5.9439387   7.2404475  39.7030334  61.0991211
   7.1900043  38.8160172  60.7429085   8.1711378  39.8364563  61.2786942
  85.7884369  33.2103424  51.5859070  85.0774841  32.5704994  51.5488548
  86.5005875  32.7515450  52.0315247  58.6533623  66.4138412  74.0808945
  59.2265892  66.3370743  74.8436203  59.2480392  66.5848770  73.3505936
  25.8913841  30.2842350   6.5707808  26.2294922  29.8976612   5.7630205
  24.9523144  30.1000195   6.5496926  69.5182419  45.5490646  66.8248367
  69.6025314  44.6087952  66.9830170  68.8592224  45.6175995  66.1340256
  68.9702148  36.0132523   2.1061177  68.2202225  36.5828934   2.2771354
  69.0864868  36.0489120   1.1566751  27.1440849  66.7544861  65.8583984
  26.6482983  65.9705963  66.0949478  26.7522144  67.0464249  65.0353317
  69.2829819  67.8436279  16.4262314  68.6843033  68.5874939  16.4931221
  69.2556915  67.5965805  15.5018644  30.8274517   4.4212942  42.1038818
  30.9753399   4.9264636  41.3044052  30.2044811   3.7418289  41.8460732
  77.1453247  37.6484756   1.3542731  76.8830261  38.4449234   1.8159014
  76.3662796  37.3892670   0.8621991  76.9673004  57.6686897  50.0038033
  76.3259277  57.5728531  49.2997513  76.9421463  58.5994873  50.2256470
  60.5889740  60.7336311  75.9282608  60.4390144  60.7971802  76.8715057
  60.6958122  59.7964706  75.7653275  44.9345360  14.4955349  86.7733078
  45.7690849  14.5096397  86.3047333  44.7505302  13.5657310  86.9068756
   8.8841276  21.3972931  14.0671978   8.8804836  20.5024853  13.7272882
   9.3673258  21.9004993  13.4118090  31.0576591  41.6019669  87.6202087
  31.2590656  42.3670006  88.1590805  30.8101521  41.9661217  86.7702866
  12.3131189   6.7538977  78.5937958  11.4646263   6.3126035  78.5544052
  12.8677559   6.1616654  79.1016083  26.6027775  42.3951645  56.0962753
  26.0789394  41.5943031  56.1175156  26.9229317  42.4957962  56.9927139
  62.5962219  33.1653938  55.7151718  63.4432220  33.4369888  55.3615303
  62.1728287  32.7012901  54.9929695  10.3926029   8.3504019  63.7189560
   9.4517450   8.4499578  63.8642349  10.7287865   8.0130377  64.5492554
  68.7937775   7.2900691  40.4346199  68.7560577   7.3035383  41.3909836
  69.6928940   7.5442853  40.2267838  85.7029114   4.9163694  31.4212971
  85.8728409   4.1715260  30.8446140  84.7707825   4.8508253  31.6288338
  78.4846497  18.2261581  18.7070522  77.9174271  18.9115963  18.3539677
  77.8950806  17.4915867  18.8774757  53.9639816   1.4395723  80.3811646
  53.4849968   1.3434335  79.5580215  53.2836800   1.5857415  81.0384750
  63.1606560  11.3452435   1.0352293  64.0516739  11.0373363   1.2010888
  62.7767982  11.4480906   1.9060377  77.9229507  36.0839081  24.3045712
  77.2679977  36.7566605  24.4907799  78.6108398  36.5455437  23.8250580
  83.6933823  12.9666586  50.9597664  83.3665543  13.2301807  51.8199806
  82.9939270  13.2094841  50.3531113  80.0355301  17.0298653  84.9355469
  80.7046814  16.4071522  84.6514664  79.6756210  16.6464195  85.7353439
  44.4080353  34.6646576  81.6908646  43.5987549  34.1594963  81.7689972
  45.0997200  34.0471611  81.9285812   5.1749721  56.4373589  64.6008987
   5.3032241  56.0201073  63.7490273   6.0436449  56.7576294  64.8439407
  76.0836945  54.5446129  43.5157394  76.6757812  54.3420296  42.7914238
  76.6121750  54.4089165  44.3022079  44.2256050  64.0841064  58.7589417
  44.0712051  64.0783691  57.8142967  45.1778870  64.0420761  58.8462448
  85.8022003  44.9630737  44.3311653  85.7506638  45.8553391  43.9884758
  84.9225311  44.7826118  44.6625977  28.5522270  14.8042583  83.2257996
  28.9701920  15.5954132  82.8857803  27.6425571  15.0604029  83.3778534
  19.9554672   1.7312086  12.3651075  19.0378571   1.4717177  12.2821150
  19.9563274   2.3893893  13.0601101  54.8193665  53.5317841  23.2373943
  55.3033791  53.8755112  22.4865189  53.9251823  53.8493881  23.1117191
  59.6861000  32.6696014   2.2588961  59.1444817  32.1954956   2.8898470
  59.0685616  33.2242661   1.7822146  18.8799496  56.7907829  80.9664612
  19.7250614  56.3417091  80.9851913  19.0960693  57.7136040  81.1003265
  75.7855911   8.4701328  59.0414772  75.6579056   9.3625269  59.3632889
  75.3358994   8.4535398  58.1966515  68.3602219  65.1822433  48.7720184
  69.0449371  65.8482208  48.8342400  67.8468323  65.4374466  48.0055122
  32.3702850  51.4400826  76.4177017  31.8073826  51.7983894  75.7314148
  31.8714809  51.5634460  77.2252960  71.3406601  18.7141571  38.6017418
  72.1626663  19.0853157  38.9223328  71.3826675  17.7902699  38.8485222
  58.9787750  61.3473701  17.4311390  58.5325356  62.0617180  16.9763718
  58.8806801  61.5565186  18.3600464  62.5857239  45.0703430  17.1825600
  62.6446800  44.6011581  18.0147991  61.9065475  45.7292671  17.3266773
  17.5955677  55.1335487  88.2144241  18.3797817  54.7249336  87.8479919
  17.5859604  56.0136261  87.8381271  86.2080994  33.1661224  83.9648438
  86.6035309  32.3909760  83.5660782  85.2709274  32.9725723  83.9866638
  80.7086411  63.4062614  24.2175465  81.0156555  64.0535660  24.8523464
  80.9013672  62.5615845  24.6244984  82.9817963  20.9769745  64.0244980
  83.8675995  20.8289452  64.3556671  82.5014877  21.3285656  64.7741089
  42.2085838   5.2390480  71.1231232  41.7365875   5.1136045  70.2998886
  43.1289787   5.2925858  70.8657455  65.8183212  46.5032845  58.2414436
  65.9420090  45.7619438  58.8341866  66.7061844  46.7711754  58.0044441
  45.8408928   0.5215146  52.0866776  45.9400253   1.4452937  52.3169785
  46.2012558   0.0477839  52.8363113  53.0365219   9.0823336  22.8242722
  53.0471725   8.7341328  21.9327164  53.9413300   9.3480320  22.9884586
   2.2481468  16.0397644  45.6381302   1.3672534  15.7199936  45.4431801
   2.7883427  15.7049866  44.9223480   8.8956089  43.9710732  84.5403214
   7.9835072  44.2166023  84.6952972   9.4031076  44.5949936  85.0593567
  50.1690331  15.0535173   1.1832640  50.6434479  14.4340382   0.6288200
  49.5532570  14.5110378   1.6759782  51.4059258  65.5098724   4.5938177
  51.6377182  66.3345337   5.0209470  52.2284164  65.0219650   4.5527310
  67.8221512   0.7971287  83.4440231  67.6945496   1.7406473  83.3454208
  67.1477814   0.4049756  82.8893433  85.2172394  13.0847301  45.2198944
  85.7261734  12.3911877  45.6396828  85.2237091  12.8572769  44.2901344
  63.5618477  31.7505970  23.6733875  62.8958359  31.6459789  24.3528843
  63.8245392  32.6689873  23.7348671  31.1919804  41.7468834  73.3413925
  31.0368786  40.8289795  73.1186142  31.8310680  41.7158737  74.0533142
  54.1857033  30.6629429  20.7124767  54.1202431  30.8892136  21.6402416
  53.3146477  30.3392658  20.4828472  79.3619995  22.0387192  68.9643250
  79.8533936  22.3024216  69.7422867  79.9474411  22.2356625  68.2330856
  53.9463806  38.2561951  11.9068756  53.6974525  37.5870857  11.2692556
  53.7180328  37.8756104  12.7549591  58.7056389   0.9175046  79.9772415
  59.3166161   1.0979631  80.6916428  58.0894165   0.2832212  80.3435593
  20.5897923  63.6370583  86.6262283  19.7760105  63.7815742  87.1090393
  20.4086494  62.8767509  86.0736389  60.7938271  18.8862991  81.1940994
  61.0214195  18.0645924  80.7590942  59.9940987  19.1761589  80.7551804
  23.0849762  55.7039413  32.8941803  23.7284565  56.1914902  32.3799210
  23.5942230  55.3068619  33.6007385  37.6098480  68.8514175  27.4934063
  36.7717400  68.5457382  27.8403530  37.4351158  69.0322189  26.5698204
  44.3092918   2.5543697   0.5655336  44.2747841   3.3293281   1.1263194
  44.7570190   2.8516481  -0.2265505  79.5453796  14.4147110  46.7813377
  78.8024826  13.8171091  46.8662605  79.8740768  14.2637920  45.8950996
  22.8598270  58.1263275  70.6243744  22.9358006  58.8145943  71.2852478
  22.0497780  57.6679878  70.8479309   9.8089981  65.6730194  23.1683674
   9.3675232  64.8569641  23.4037170   9.4784622  66.3142166  23.7975235
  30.8574257   6.4513373  88.0401230  30.6280499   7.0897722  88.7154160
  30.1117821   5.8516889  88.0142746  13.7348137  59.5624809  58.9365044
  12.9044971  60.0311623  58.8520088  13.4814920  58.6532326  59.0956535
  73.4385529  28.4117680  38.2502518  73.2960892  27.4787045  38.0911140
  74.3806076  28.5337372  38.1324196  76.7430954  52.0742188  59.0285797
  77.3565063  51.3424911  59.0959167  75.9609146  51.6949501  58.6278419
  56.3823547  61.2266998  71.7867508  56.5634460  62.1581306  71.9127350
  57.2189598  60.7946243  71.9589081  70.9875412   1.0579112   9.8614950
  71.2435303   1.0200617   8.9399385  70.7897873   1.9813914  10.0174093
   7.2689900  20.0387344  85.6541214   7.6786184  20.8634243  85.9155121
   6.3759065  20.2817154  85.4100037  37.0026512  42.2759743  36.6009598
  36.6790123  43.0809975  36.1966972  36.4045219  41.5955429  36.2919464
   9.0862770  47.1182365  84.4598083   8.8595352  47.9895668  84.1348419
   8.9511070  47.1727715  85.4058456  84.2861404  24.9473991  65.1515961
  85.2338943  24.8694706  65.2608185  84.1625671  25.7990398  64.7324677
   5.9751353  19.7202759   3.3262277   5.7858539  20.4425259   2.7272627
   5.5160985  19.9520741   4.1335607  72.4175797   4.8507309  79.0642319
  72.6090012   3.9912271  78.6889420  71.6691132   5.1706820  78.5605850
  47.4568634  19.3855286  12.4377136  47.7871704  20.0171452  13.0766125
  46.7332420  19.8386879  12.0049896  63.9901581  39.2068176  47.8809967
  64.8679810  38.9087524  47.6426239  63.4299011  38.4451485  47.7319870
  85.6320496  16.8514004  32.2965622  86.3507004  17.0563545  31.6984215
  85.3654633  17.6999435  32.6503067  84.6153030  67.6212692  35.7949944
  85.1458664  67.9910278  36.5006905  84.1328125  68.3685074  35.4413452
  41.5417252  25.6616020  78.0649109  42.0243225  24.9747620  78.5248871
  40.8041496  25.8628578  78.6408539  21.9857311   3.8051434  86.1820068
  21.5351486   4.5531430  85.7899551  22.8673286   3.8349023  85.8103409
  27.4060192  27.7293034  71.6341705  27.3304024  27.6490841  72.5849991
  28.2031593  28.2418613  71.4996948  58.8674049   7.1041350  23.5252514
  58.0364571   7.5068312  23.2730675  59.2311058   6.7714558  22.7047157
  75.3402405  15.9580040  58.6451187  74.9460297  16.2265415  57.8152313
  74.6235199  16.0070095  59.2776871  54.4987259   2.9884732  83.8983002
  54.5559387   2.4017506  84.6524277  54.7131424   3.8524325  84.2501907
  37.0651207  63.7369614  41.1125107  37.9523964  63.4285355  40.9285278
  36.5397224  62.9384613  41.1634102  58.7846680  67.6765137   3.6732440
  58.6584854  68.5712051   3.9892116  58.3983917  67.6750870   2.7974465
   5.7378006  14.4370756  20.7273388   5.7937217  15.1863489  21.3203754
   4.8110905  14.3855114  20.4932842   5.1748629   5.7875748  10.6934261
   4.6046915   6.4596910  11.0667849   4.5881534   5.2364979  10.1754313
  66.3380737  54.4433556  69.6047363  66.5090942  53.5057564  69.6935577
  66.2804031  54.7626610  70.5052643  15.6778908  27.5361748  84.6842346
  15.6841793  28.2369595  84.0322418  15.2958536  27.9382668  85.4643631
  82.2841568  40.6865730  77.4283142  82.8135529  39.9218483  77.2021103
  82.7495117  41.4248428  77.0350723  76.9581909  10.5762739  40.0694771
  77.7350464  10.4477072  39.5252304  77.0663452   9.9570684  40.7913628
   1.6831223  56.7194824  76.4259186   2.2588260  57.3867950  76.0524292
   0.8008088  57.0031586  76.1865845  79.3780136  68.9210281  62.6904907
  78.8274765  69.6483994  62.9804344  79.2003479  68.8450699  61.7529945
  69.2578735  14.8281984  70.8454437  68.3287811  15.0059023  70.6989899
  69.6619263  14.9415703  69.9851456  73.3289566  61.4291458  44.7807045
  73.0803375  62.3133392  45.0502014  73.4359436  61.4892807  43.8314056
  62.2562866  55.8100662  68.3130951  61.7562637  55.9915886  67.5173187
  62.7474327  56.6152916  68.4762573  14.1366482  46.7573128  43.4278603
  14.8898878  47.1132050  43.8992424  13.4615440  46.6537209  44.0984802
  14.5684776  67.1540985   3.4632120  14.0253134  66.3926086   3.6665292
  15.3465662  67.0461960   4.0101743  65.9274521  54.9801483  66.3295135
  66.5868835  55.5735741  65.9700394  65.1152344  55.2292099  65.8884888
   9.0910501  40.0106544   0.0763821   9.6869678  40.1790199   0.8062915
   8.2720785  40.4344177   0.3331700  52.5143280  32.5794258  58.0625496
  51.8640099  32.2180443  58.6648102  53.3570633  32.3508797  58.4547195
  13.5392141  20.9089851  24.6694794  13.8890505  20.1371937  24.2242985
  12.8001032  21.1839523  24.1269474  33.8766251  41.1989784  68.5157089
  34.0325279  42.1433868  68.5116196  34.7151184  40.8166809  68.2568665
  67.8027725  26.6543903  28.1084671  68.3348846  26.0044937  27.6494179
  66.9578476  26.2236958  28.2382469  53.0956573  53.2510910  58.2682419
  53.0816956  52.9401474  59.1734200  53.0094261  54.2016792  58.3401794
  41.3523407  26.8508377  13.4652872  41.8593178  26.0803108  13.2093611
  40.4932404  26.5034676  13.7051001  76.6037979  68.8643723  11.8619690
  76.7922363  68.6202164  12.7681217  76.2894135  68.0562439  11.4565983
  12.4465027  36.3385010  16.3207722  11.5149965  36.1645546  16.4559441
  12.4697351  36.9810677  15.6116886  61.2673874  35.2309418  15.8508520
  61.2525063  35.6612396  16.7057514  61.2433701  34.2956429  16.0530281
  57.2573433  66.3466110  23.9864769  56.5636177  66.8245163  23.5319595
  57.7399406  67.0214691  24.4638710  27.2975864  40.2174110  86.1287689
  28.0154934  40.8492775  86.0889359  27.1722775  39.9397469  85.2213364
  70.3737793  61.3368874  82.2631378  69.6224976  61.8274384  82.5965500
  69.9909668  60.5590820  81.8572998  11.0412560   0.7681391   3.3227484
  10.8272829   0.0485441   3.9165752  11.6779795   1.2954944   3.8051510
  82.3506927  14.0293312  38.9150772  83.1576080  14.2740345  39.3681107
  82.6297073  13.8246870  38.0226059  73.2154160  34.0748711  50.8046150
  73.2474136  33.1248589  50.9172516  72.3911896  34.2338943  50.3446274
   6.8069859  52.5926514  50.9773712   6.0878100  52.1245232  50.5532608
   7.3847613  52.8467255  50.2577515  72.4372177  29.1647663  59.8147202
  73.0471649  29.7943497  60.1991997  72.5356598  28.3778839  60.3507767
  38.3079224  18.4409771  87.6512451  37.5705109  18.9080772  87.2584610
  38.5547028  18.9748077  88.4064636  50.4411812  44.0150871  13.0549650
  49.9319344  43.8930550  13.8562193  49.9909401  43.4801826  12.4012146
  20.3444786  19.4037895  18.9313755  20.4060917  18.8475399  18.1548309
  20.1805916  20.2810307  18.5852242  63.7814560  67.8579483  11.6590586
  63.9585609  68.7113419  11.2633553  63.3505554  68.0634232  12.4887199
  57.6844902  19.3358707  26.5557346  57.6875916  20.2728062  26.7516251
  57.6707344  18.9118290  27.4137726  48.9299583  54.0441093  23.9898643
  48.8643188  53.6480904  24.8588238  49.1663704  54.9560165  24.1594791
  69.9926376   4.9915738  34.1207008  70.6067734   5.6654091  33.8291245
  70.2688980   4.1998296  33.6591225   0.7638054  45.9411621  80.9152527
   0.6218511  46.3185387  81.7833862   0.1816371  45.1819153  80.8860168
  44.1282730  55.7318039   2.8285549  43.7236099  56.1991959   3.5593252
  43.5149498  55.8454666   2.1025069  64.7087708  41.7995224  60.5029640
  64.2032318  42.3908730  61.0606079  65.2228851  42.3802910  59.9420471
  64.2803116  48.4537926  36.7737961  64.3338242  47.9105606  37.5600967
  65.1847992  48.5225410  36.4681740   7.9312496  66.5813370  43.2717400
   8.2285938  66.5663071  42.3620186   7.0610862  66.9782333  43.2327805
  24.2420921  58.2778282  79.0686874  23.9218655  57.4924164  79.5123291
  24.0013695  58.9974442  79.6521530  61.2523117   4.8784175  33.6713715
  61.0457954   5.5028896  34.3667984  61.6576538   5.4090734  32.9855614
  49.4796219  18.7056026  62.7197647  49.0159683  18.3327198  61.9699554
  49.0193214  18.3573303  63.4833527   5.5389843  42.7837372  72.7217484
   4.8424416  42.5989494  73.3517532   6.0652647  43.4653740  73.1396332
  25.9676533  53.4988747  46.0835075  25.0624275  53.6335907  45.8030624
  26.0144978  52.5683098  46.3027840  14.4539728  12.5595140   1.0299118
  13.9823132  12.7119846   0.2110576  15.2901087  13.0103559   0.9122222
  43.6787376  41.7132988  67.4608536  44.3178520  42.4035454  67.2838669
  43.6611824  41.6421318  68.4152451  21.4189053  61.7996025  18.8025570
  21.5534801  61.7238235  19.7472153  20.6584930  61.2463799  18.6238136
  49.5336189   8.5759363  38.0949745  49.6880455   8.7079449  39.0303650
  48.5821571   8.5063810  38.0167770  86.3334885  24.6861763  38.2228889
  86.3489151  23.8620911  38.7095909  85.5479202  24.6284657  37.6790237
  67.4410782  48.2236710  44.6184731  66.6477127  48.4056396  44.1147995
  67.1433334  48.1808395  45.5271759  73.1415024  69.8176498   9.7818213
  73.4439392  70.7061844   9.5940075  72.4541931  69.6569138   9.1352940
  54.2112465  10.6480036  36.1526337  54.0266609  11.5823202  36.0566521
  53.3481941  10.2379770  36.2096443  21.5690918  25.3016205  16.4142818
  21.0031204  24.5898743  16.7131577  21.0211639  25.8074226  15.8141384
  52.5576820  38.3414764  43.9759598  51.8153839  38.6010017  44.5217361
  53.2893448  38.8656502  44.3017540   0.6960546  10.3082771  63.8459511
   0.8432421   9.4928617  63.3667183   1.5510103  10.7386332  63.8546753
  32.7867470  70.4882507  71.9148712  31.9006767  70.3172913  72.2340546
  33.0940590  69.6399155  71.5953217   8.2666130  59.8721428  55.0541992
   7.7638330  59.1333771  55.3972359   9.1235609  59.7939224  55.4734306
   2.0862963  14.2066574  26.9703369   1.8960906  15.0079899  27.4581070
   1.8158118  13.4997101  27.5562515  27.5266247   3.3637569  38.1537590
  27.2128372   3.0655198  39.0074730  28.3906078   2.9619851  38.0624237
  30.4686737  50.9073372  13.0886707  30.2554150  50.4776154  12.2603636
  31.4043503  50.7450829  13.2087259  50.4856110  45.8175545  40.2470894
  51.4067802  46.0768776  40.2264214  50.4519348  45.0119934  39.7311668
  63.5503578  47.0505981  69.8297043  64.0254593  47.5996323  70.4534607
  62.7487144  47.5391121  69.6427612  26.4490089  22.0191708  17.7110748
  26.6146698  22.5629463  16.9409485  26.8418636  21.1732254  17.4959641
  16.0459290  24.2274933   6.3010206  16.5917072  23.7700157   6.9406085
  16.6602898  24.5209064   5.6281896  24.8756104  52.7739754  87.9115906
  25.1287270  51.8690376  87.7292480  25.5865097  53.1170654  88.4530182
  54.0190506  42.2561226  65.4943848  53.7047844  41.8838882  64.6704254
  53.9042702  43.2006340  65.3897095  81.2823639  30.6376076  77.3635712
  81.8075180  31.0248470  76.6632233  81.3809280  31.2421741  78.0991135
  49.6758041  16.2757397  53.5625763  49.7672081  15.3259897  53.6390686
  50.3759995  16.5363235  52.9641991  55.0754280  55.1781082  45.0750122
  55.0394821  55.7126694  44.2818031  55.2285767  55.8065300  45.7806091
  52.8572235  50.8381310  27.3210926  53.3893623  50.0480652  27.2269974
  52.1957092  50.6051712  27.9725227  67.5197372  18.5487499  13.5245447
  67.5231552  19.2504272  14.1755962  67.2947769  17.7621231  14.0213795
  57.2102318  44.1361389  27.6841545  56.3670425  43.8276482  27.3523464
  57.5611382  44.6792831  26.9783974  79.0086517   0.2686360  88.8857498
  79.8005447  -0.2562935  88.7691727  78.5236511   0.1552575  88.0683441
   7.6170034  49.5755234  50.3564644   7.0670886  49.8315353  51.0969276
   7.1999774  48.7867393  50.0098534  64.7602539  22.0353088  40.2694588
  63.9407883  22.4638786  40.5165138  65.2732162  22.0154743  41.0773621
  47.7220993  25.6403294  72.3729019  48.6683044  25.4957542  72.3779755
  47.5360756  25.9778614  71.4967194  30.5680771   3.4208205  73.9344864
  30.2541027   2.9720547  74.7195053  30.9898949   2.7338154  73.4184189
   0.3387071  51.1961174  70.5943069   0.3984608  51.8841820  71.2570572
   0.4865900  50.3837395  71.0784607  53.6216507  55.7277451  39.0129662
  53.4169655  55.8785934  39.9357758  52.8131981  55.9463844  38.5494690
  28.6073151   3.8767371  66.3966293  28.9420395   3.1044757  65.9407806
  27.9737682   4.2578640  65.7886887  43.3829041   0.6898236  19.6923141
  42.8065109  -0.0656352  19.8075771  42.9595413   1.2123865  19.0111923
  49.6569252  30.5941525  84.8822479  49.7928467  29.6818123  85.1379700
  50.5216827  30.8964825  84.6047134  74.5788422  32.1419868  14.7374649
  75.0613098  31.4004631  15.1029816  74.8351746  32.8863335  15.2819557
  72.5929337  42.6652565  38.7319183  73.2603149  43.2221527  39.1327972
  72.1696243  42.2287254  39.4711685  11.5827599  38.0526619  81.0801086
  11.7146101  38.3608398  81.9766998  12.3247223  38.4102325  80.5923920
  13.0010872   3.8221197  70.2004089  12.9359369   2.9708586  69.7675781
  12.6414309   3.6742430  71.0750580  53.4566498  18.2977085  61.0677910
  53.3055534  17.4737930  61.5310020  54.1411552  18.7350998  61.5741310
  85.6472168  11.1416054  60.1380615  86.1362762  11.3212128  59.3350716
  85.7275314  10.1957264  60.2609177  49.4983177  11.2263651  58.9778862
  48.8246880  11.2143583  58.2979507  49.8151741  12.1295700  58.9851990
   7.0045748  64.7814865  61.0442085   7.6919141  64.9715271  60.4057121
   7.4773378  64.5683441  61.8487587  51.6532097  63.0125961  45.3161240
  51.6984482  63.9628487  45.2102432  50.8189163  62.8605118  45.7600365
  62.3343048  31.6389179  52.7368927  63.1547966  31.8323689  53.1903305
  61.8632126  32.4721222  52.7282486   8.5600843  59.1717033   5.7648726
   8.9078045  59.7298813   5.0693431   8.3875122  58.3336945   5.3356972
  59.1352043  28.4796562  22.2159443  58.9348221  27.6101360  22.5623722
  58.7450714  29.0845985  22.8468761  54.9887352  17.8295479  84.2776642
  55.4386711  17.5033169  83.4983292  54.2520142  18.3354015  83.9347458
  75.1589127  24.4949551  34.8665504  75.7143936  25.2678242  34.9682617
  75.5097885  24.0474644  34.0965691  29.7988491  53.5148354  26.5957260
  29.7278099  54.4439011  26.3765793  30.3622093  53.1501503  25.9131851
  57.3961449  52.4506111  86.7383881  57.5668716  52.9602585  87.5304413
  56.4988708  52.1349182  86.8454742   0.5897514  30.3933907  22.2433872
   1.4434403  30.6559772  22.5876179  -0.0150733  31.0601616  22.5687084
  30.2676678  28.6774197  17.5725155  30.4155159  28.9751091  16.6748772
  30.2663555  27.7222042  17.5109196  36.8847733  53.6196060  49.9205284
  37.1894684  53.3383217  49.0578156  36.0312309  53.1984558  50.0221329
  55.9043198  50.1025696  33.2891350  55.8503380  50.9431839  32.8345108
  56.3340607  50.3066444  34.1197395  13.0777607  19.6088314   6.1492085
  13.6738539  20.3577461   6.1547899  13.5357847  18.9419594   5.6376147
  79.1722336  35.8479042   1.2054834  78.6328201  36.6357956   1.1384566
  80.0057068  36.1576920   1.5598661  54.8902626  43.6322937   3.3281620
  55.6460686  43.9575043   2.8390546  55.2605896  43.0138855   3.9579687
   6.3936224  51.9205284  56.9240913   5.7915807  52.5653610  57.2955360
   5.8592854  51.4224167  56.3055458  61.7192268  48.7081528  84.8621597
  62.5072441  49.2115250  85.0668106  61.4690781  48.3061028  85.6940308
  20.3657417  21.4075718   4.5972304  20.6750622  20.5359020   4.3507671
  19.4193325  21.3741493   4.4578605  78.0180511   9.5404406  84.4291687
  78.2799149  10.2845392  83.8869705  78.8438492   9.1565189  84.7239456
  66.9001694  24.2545547  61.6605034  66.0160522  24.4720039  61.9559402
  66.8676682  23.3153801  61.4784966   0.4242538  64.5996857  75.9435196
   0.4693975  64.9274139  76.8417282  -0.1957130  63.8715782  75.9850998
  11.9022179  39.6106491  27.9152813  11.7459202  38.8565979  28.4837971
  12.3641644  39.2487755  27.1590500  40.0259705  -0.0822043  36.8522949
  39.4144669   0.4630469  37.3472672  40.5527267   0.5416207  36.3526955
  74.9446335  11.2243176  59.1202431  74.4709930  11.1658440  59.9499893
  74.3529205  11.7032061  58.5399208  69.8591614  60.0609016  75.4045334
  70.7850189  60.1451950  75.6323700  69.8207855  60.2793312  74.4733810
  67.8755646  43.9737892   4.4100509  67.1552429  44.4270287   3.9719405
  67.8431244  44.2893677   5.3131509  34.0560646  15.7847605  78.4810333
  33.2569275  15.4915485  78.9188004  33.7655296  16.0605736  77.6116943
  77.8553543  42.5397377  64.9491653  78.4555893  41.7989235  64.8646545
  76.9955292  42.1382370  65.0745850  84.3649292  31.5148830  44.6691628
  84.9862671  31.0178738  45.2012825  84.8851013  32.2260818  44.2952003
  86.2295685   3.2824898  29.2022228  86.0776215   2.7029610  28.4557037
  86.6776886   4.0414753  28.8289127  23.5840664   8.7193165  77.0530777
  22.6810646   9.0346127  77.0155716  23.5704250   8.0323849  77.7195358
  25.7768192  35.4234772  84.1134109  24.9163113  35.0308762  84.2604523
  26.1317787  35.5585060  84.9920425  19.9566593  23.5111141  17.7304020
  19.3023815  24.1664143  17.4880486  19.5107460  22.6723881  17.6123695
  26.5485821   7.9599352  46.2036057  26.1399250   8.7246065  46.6092072
  27.3614883   7.8348279  46.6932640  75.9453812  17.4208336  69.8020401
  76.5846100  16.7614975  70.0720367  75.3200836  17.4586926  70.5257797
   0.2847982  19.9464016  62.8820648  -0.3626556  20.2482948  62.2449646
   0.4568358  19.0374126  62.6363525  45.7072296  41.5747910  78.0358887
  46.3772049  40.9033279  78.1643448  45.2439270  41.6140137  78.8725739
  83.8061676  52.9558334  86.0765152  83.5756989  53.6938400  86.6408386
  83.4697571  52.1874809  86.5376968  74.8424377   3.0719247  23.0118408
  75.1567764   3.7927732  23.5575542  75.5948639   2.4855289  22.9329147
  33.5342178  49.7132149  19.5249996  33.8850899  49.4062653  18.6889973
  32.9524689  50.4360046  19.2896900  25.0115623  21.9313316  62.7398262
  25.2815990  22.7911510  62.4172974  25.5457211  21.3108978  62.2438774
  13.7450237   9.1826754   5.3160105  13.6978617  10.0402040   5.7386837
  13.0170946   9.1816597   4.6944404  46.8028412  62.9801483  16.7348957
  47.6047249  62.7846642  17.2196655  46.1056557  62.9102287  17.3870277
  39.4375191  45.6969795  69.5458984  39.6713524  45.6518593  68.6187973
  39.1670456  44.8061333  69.7683258  85.5667114   3.2510986  22.4016495
  84.8997116   2.5759003  22.2773418  85.1905060   4.0357108  22.0027943
  60.0753365  11.9648628  18.0358887  59.2647057  11.4562941  18.0142994
  60.5681038  11.5990295  18.7704487  17.4625969   1.3546271  56.9159279
  17.2510986   1.7168988  57.7763138  17.6733398   0.4368520  57.0877075
  61.0359497  20.4300137  49.5052299  61.2981071  19.5094624  49.5146790
  60.7046356  20.5756111  48.6190758  78.9050217  32.3530655  74.7957840
  78.7560349  31.5058804  75.2156830  79.8315811  32.3417854  74.5558014
  54.1370392  19.4893131  14.8806229  53.6252632  20.2569790  15.1355877
  54.9424629  19.5573196  15.3933544   3.2078426  42.0794067  82.8111649
   3.1592042  42.1651688  83.7632751   3.5097954  42.9358788  82.5086517
   5.1843505  44.4943390  77.0251617   5.6662459  45.3213882  77.0237732
   4.3307090  44.7139015  76.6519012  70.8829041  10.2701654  80.2066956
  70.7814331  10.2604189  79.2549362  70.4793777   9.4528704  80.4989700
  80.7012863  24.7723522  57.1924973  81.0314407  23.8878441  57.0347595
  80.6711731  25.1750698  56.3246574  19.1576557  14.8688374  77.7022018
  18.8051910  14.7429705  76.8212051  19.1727409  15.8185530  77.8207092
  76.8616486  67.3751144  58.7033463  76.2982330  67.9536209  59.2172699
  76.7602310  67.6807938  57.8019562  46.6947212  65.7482224  32.9959450
  46.1100693  66.4915848  32.8482246  46.9400635  65.4581833  32.1173553
  69.2610092  46.0876884  47.0113068  69.9832535  46.7068901  47.1170654
  69.1948853  45.9561081  46.0655060  16.0752678  47.9808655  39.1115227
  15.3548689  48.1785164  39.7100143  16.2882957  47.0644188  39.2875366
  73.1384125  44.1128540   8.5932264  73.8397980  44.1179848   7.9418726
  72.5936203  43.3634758   8.3526640  68.6204147  17.0076389   5.4790115
  69.0058136  16.1399193   5.3575149  67.6996384  16.8959999   5.2425075
  18.9220314  58.1734352  27.0132465  19.2363262  58.1078033  27.9149914
  19.5633526  57.6822739  26.4997311  22.8967171  46.6513672  36.5625801
  23.4323273  46.0124283  36.0923538  22.1156387  46.1634254  36.8234634
   9.4984980  59.5809631  58.5512581   8.5430517  59.5317497  58.5207214
   9.7688265  59.5608177  57.6332436   2.9804828  38.9977303  54.8231621
   2.4940548  38.3723564  54.2860184   2.6047802  38.9046211  55.6986122
  40.7122307  26.8400154  20.4265232  41.3022156  26.1107826  20.2358208
  41.0326500  27.1970253  21.2548389  28.7296410   2.6771910  85.9675446
  29.2217960   3.3518929  85.4997940  28.7349167   1.9240221  85.3768311
  68.7845078  21.5530739  17.5546989  68.5514221  22.4557590  17.7716331
  69.6565933  21.4338856  17.9308586  66.6000900  15.1691275  32.6345444
  66.8852768  15.9797506  33.0561981  67.0826340  15.1463842  31.8081856
  54.6161461  15.8766413  76.8174210  54.9612083  16.5465660  77.4076462
  53.7459221  16.1945724  76.5768814  42.0606728  68.9586334  44.7965355
  42.9545631  69.2146378  44.5692596  42.1641884  68.3540268  45.5313644
  28.0216675   2.3003571  83.3353500  28.8057957   2.5611045  82.8522491
  27.3167610   2.3438678  82.6892471  20.3781471  67.7277374  61.8353729
  20.2480106  67.0373840  61.1852150  19.5898018  67.6979141  62.3774567
  48.1745758  70.8824768  78.7692413  47.7307777  70.5339813  77.9960480
  48.8108635  71.5061722  78.4194183  49.2777443  51.6458588  86.5060272
  49.2483711  51.8450737  85.5702438  48.9823227  52.4507256  86.9316406
  71.1514511   6.9904771  80.0898209  70.8401871   7.1735492  79.2033539
  71.7064590   6.2165437  79.9937363  65.2214813  68.2736282  28.5916996
  65.5802078  69.1515503  28.4620819  65.1590271  68.1783295  29.5420933
  30.6668568   4.4739323  13.7291756  30.4159222   4.7121892  12.8367081
  29.8362961   4.3096485  14.1757298  40.0143738  63.6689453   5.9869456
  39.4235840  63.1605568   5.4313021  40.6142960  64.0932159   5.3734937
   3.5184016  37.9706001  39.6647758   4.0256696  38.0620995  38.8582153
   2.8931985  37.2706909  39.4764137  64.4877777  12.0642786  45.1270905
  64.8504486  11.4792633  44.4619141  64.9892960  12.8741217  45.0329437
  63.8322487  38.0144119  59.8093033  64.1905289  37.3817711  60.4319038
  64.6018295  38.4319954  59.4225235  16.2819653  19.3892784   7.8994379
  16.7464981  19.4536819   8.7338800  15.8242159  20.2256775   7.8149648
  75.4781113  18.6524754  62.1897202  74.7209473  18.1906834  61.8295975
  75.3871994  18.5585251  63.1379509  66.1103973   9.2060595  55.3836174
  66.2993622   9.0973825  56.3156662  65.6540222   8.4017992  55.1363945
  69.1332779  10.0535202   6.7671704  68.4287415   9.4294062   6.5929894
  68.8929977  10.4596806   7.5999560  52.0754623  49.8750610  64.3424988
  52.7363472  49.8874512  63.6501770  52.5288124  49.5046158  65.0997772
  74.5088654  43.9208412  55.4300423  74.8083649  44.7755928  55.7397652
  74.2907410  44.0628281  54.5089035  82.7744598  61.6707916  45.2749443
  82.9990616  62.1337051  46.0820999  83.6173172  61.4980507  44.8554382
  59.7441711  52.7949677  67.8889313  60.4143219  52.7854843  67.2055283
  59.1812706  53.5351944  67.6621475   0.6641871  42.7501602  85.7931061
   0.1151876  42.9623337  86.5479660   0.6803862  43.5548553  85.2749939
   0.7033174   7.6725082   5.6143818   1.1601015   7.6157398   6.4536419
   0.3911001   6.7825418   5.4509444   3.0260479  34.6331558  78.5670929
   3.0033288  33.6765709  78.5927811   2.8805118  34.8515587  77.6465759
  42.2382698   0.3336140   2.6221223  42.3641853   1.2216409   2.2877786
  42.2941628   0.4256215   3.5732493   7.2713213   2.2520573   8.8782749
   6.8277531   1.8022345   9.5973978   7.5998344   1.5466506   8.3208590
  77.4948349  12.9455051  28.5895691  78.0928116  12.2148399  28.7470016
  77.9582825  13.5041008  27.9655323  52.3848915  58.9449692  39.5791779
  52.0934372  58.1078568  39.2178917  52.9283562  59.3270416  38.8900452
  77.6067200  21.0310459  18.9102993  77.2058105  21.8581295  19.1775703
  77.7411270  20.5543194  19.7293835  77.9555283  52.2614822  53.2860947
  77.9623260  53.1183167  53.7127342  78.4955673  52.3787918  52.5045357
  41.5665474  67.3113403  60.4925575  40.9832764  67.0004425  59.8001938
  41.5751114  66.6018600  61.1350555  50.5094566  42.5771446  52.2850494
  50.5536842  41.6978645  51.9093628  50.3379097  42.4317207  53.2154579
  21.1075191  44.4102325   1.1818944  20.7850914  44.1798286   0.3105816
  20.6741123  45.2388573   1.3862807  67.4008713  11.9777431  14.8692980
  68.1063080  12.0715437  14.2291508  67.1389999  12.8761711  15.0704985
  78.8602295   8.3451481   5.3715658  79.6334610   8.6868401   4.9225698
  78.6984329   8.9695988   6.0787535  48.9144478  35.1614723  23.8402843
  48.1879539  35.7654686  23.6865883  49.5586052  35.6795120  24.3229084
  86.3492966  46.8946571  87.0266724  85.4958801  47.2993317  86.8712387
  86.9546814  47.6325722  87.0989151  42.0149574   6.9113202  66.8864441
  42.6607056   7.5848246  66.6728287  42.1530075   6.7336512  67.8168259
  79.0360565   5.9030757  84.3860703  78.3864288   6.1945310  83.7463303
  79.6387405   6.6420655  84.4691010  30.1931515  52.7287407  10.0056877
  29.5052357  53.3760834  10.1604509  30.9811268  53.2492714   9.8495655
  82.6036911  46.8426018  37.0517426  82.4416428  46.1914062  36.3691635
  83.5251923  47.0781555  36.9441185  70.3303986  39.3784065  32.5996437
  69.9956741  38.5068169  32.8106346  69.8725128  39.6225815  31.7953110
  12.1538754   2.8248773   7.0585318  12.7486992   3.2329371   7.6877398
  12.1496105   1.8983973   7.2990489  75.5844727   3.7829387  55.1644402
  75.7639847   4.6995263  55.3739014  76.3577652   3.3108053  55.4732132
  79.4864883  10.3151817   9.3623323  79.0350952  10.9138231   8.7672644
  78.8085556   9.7008495   9.6438265  32.5641212  44.7131844  46.1080551
  31.7241039  44.5286636  46.5282402  32.8156319  45.5738029  46.4431839
  16.7610912  51.9036217  17.1335106  17.2511768  52.2031631  17.8992271
  16.3644886  52.6985016  16.7769928  20.3546982  36.0039062  77.6856155
  20.1765938  36.4826508  76.8760986  21.2807922  36.1689415  77.8626709
  14.3934937  60.7545052  75.3065109  13.8744974  61.3940582  75.7942047
  15.2972984  60.9295692  75.5686646  35.8484879  66.6337585  11.2732906
  36.4868088  65.9416885  11.1005945  36.3737030  67.4302979  11.3500671
  30.0950909  67.9554291  12.8803596  30.0710850  68.1918716  13.8075876
  29.7485752  67.0636215  12.8515425  39.8138771  43.2983017   2.2493167
  39.7798424  42.3611412   2.0574651  40.5597115  43.6195755   1.7426198
  53.0170784  50.1344986  38.5612259  53.4899101  49.7990227  39.3228798
  52.7283974  51.0083771  38.8243446  16.2621326  45.1027756  70.3108826
  15.6535311  44.4920044  69.8951950  17.1058254  44.9184074  69.8980560
   8.2847147  70.4680252  86.1259537   8.4953413  69.6522675  86.5802689
   9.0296478  70.6171036  85.5436478  54.9720039  29.0565434  15.6287146
  54.1460571  29.1713428  16.0986786  55.6460609  29.1583405  16.3006611
  51.6594086  68.7659683  39.9696579  51.9619370  68.5873108  40.8600464
  52.4625549  68.8955688  39.4652901  52.2230339   2.4678040  61.9218674
  52.8890839   2.8749516  62.4757996  52.6115189   1.6354264  61.6526871
  23.1417904  63.2215843  37.7047119  22.2759972  63.2957649  38.1061211
  23.4344044  62.3379822  37.9279976   7.2193322  61.5774384  30.2353916
   6.9383678  62.4917259  30.2724304   6.4112425  61.0840569  30.0946980
  85.5504303   3.4659662  72.2571182  85.1031113   4.2570119  72.5577545
  86.4621658   3.7346697  72.1440887  79.9943924  17.5647430  41.9721184
  79.5691071  18.4066906  42.1348839  80.1931076  17.5738258  41.0358162
  37.0556412  43.6285706  61.2549820  37.3965530  43.2687607  60.4361153
  36.3110199  44.1675949  60.9881058   8.5942116  47.6304626  13.6914616
   7.7832599  47.1863251  13.4438066   8.3050604  48.4419746  14.1086779
  18.7002926  16.5940380  27.3351765  19.3632526  15.9066114  27.3996830
  18.7852516  16.9255962  26.4412613  29.4044151  68.7497787  66.7278442
  30.0742550  68.3857651  66.1490173  29.6975975  69.6444550  66.9005585
  38.3298340  27.1259212   4.1799731  38.4641228  27.5335732   5.0355535
  37.9609146  26.2655811   4.3798385  80.2663651  53.7680779   3.5875564
  80.2141342  53.4259300   2.6951222  80.1267929  53.0031967   4.1458640
  64.1790771  15.9164896  29.7902451  64.5811996  15.0500412  29.8518276
  63.2898331  15.7919502  30.1218624  50.5989571  58.2163124  62.1789856
  51.3531227  57.7081337  62.4776840  50.8793983  59.1283455  62.2550392
  50.4670982  48.6884651  84.1775208  50.1481476  49.4664688  83.7201309
  50.8301239  49.0244064  84.9970245  15.8782120  60.3786087  60.4623108
  15.1232748  59.9422112  60.0675240  15.6658220  60.4282227  61.3943291
   3.4963951  54.6467743  77.2025223   4.0098433  54.9723892  77.9418335
   3.0428541  55.4199867  76.8668518  32.9130363  71.1732712   0.0437730
  33.5309029  71.8942566   0.1648204  33.1006088  70.5733414   0.7656696
  69.8422241  30.3922958  83.5110016  69.0686264  30.4990311  84.0645294
  69.5267029  30.5613556  82.6232529  78.4603195  39.3299294  42.7802353
  78.2121658  38.4534340  42.4862862  78.6085663  39.8206253  41.9718590
  50.2736282  10.6473389  43.2757072  50.6608315  10.8271542  42.4189835
  49.6790123  11.3816786  43.4286957  17.0748253  42.9566574  59.8297272
  16.4066696  42.3300819  60.1075783  17.7467728  42.9075279  60.5096588
  21.8165627  51.0004387  21.1474934  22.3447914  50.9451904  21.9438305
  22.1989498  51.7276535  20.6564026  19.4147625  60.7840652  54.5969696
  19.4837265  61.1716499  55.4694672  18.7446632  60.1066475  54.6880989
   0.6129743  42.5305862  25.2858849   0.9861197  41.6610451  25.4304276
   1.0482421  43.0882187  25.9307251  45.6419067  26.9099197  75.5409393
  45.9457588  27.4357204  74.8010483  45.3541183  26.0862484  75.1472702
  60.8340149  42.3495140  77.6527481  59.9450684  42.4811745  77.9823990
  60.7131653  41.9562836  76.7884521   7.0714955  55.9667740  25.1586380
   7.7752075  55.3298264  25.2824078   7.3233085  56.4522705  24.3730717
  18.6572151  50.5716324  73.8814392  18.2610950  51.4217339  73.6900101
  19.1752949  50.7214355  74.6722565  74.3560410  15.6323376   2.5005064
  73.4431686  15.7020054   2.2211492  74.5847168  16.5143089   2.7938757
  35.9410439   1.9476284   8.5996103  36.2660446   2.4337366   7.8417807
  35.2727165   1.3637211   8.2409706  84.6225586  54.6427040  76.7069092
  84.9735031  55.4805222  76.4050369  83.6732254  54.7651367  76.7024994
  49.8956718  67.6402283  76.6731415  49.0121231  67.3675842  76.4256973
  50.3533707  67.7538605  75.8401794  24.5535927   3.5478442  30.1142025
  24.0861187   4.3793550  30.0348949  24.0160103   2.9234345  29.6270180
  57.1309929  39.5386887  86.9123993  56.7931442  39.5448570  86.0168228
  58.0813599  39.4891701  86.8095322  86.1568756   9.1603022  67.0722122
  86.7556915   9.8877993  66.9036865  86.5508957   8.6912127  67.8076935
  57.5447426  37.4464684  41.5947571  57.5371284  37.8895912  40.7463379
  57.6164284  38.1549721  42.2343788  66.5967102  27.9013004  10.6716175
  66.6450119  28.3279781   9.8161383  67.4252014  28.1227379  11.0968294
  79.4666748  23.0591145  12.5005779  79.0566406  23.3040714  11.6710596
  80.3913040  23.2777901  12.3844852  51.1199799  56.9449387  23.5033417
  51.6471825  56.3909645  24.0790176  50.3178062  57.1102066  23.9987602
  83.7604141  11.4615879  15.4029560  83.2667389  12.1709146  15.8145008
  83.6954269  11.6377239  14.4643478  83.5273590   8.7565775  66.8952560
  83.3982162   7.9805937  66.3499069  84.4450073   8.9935713  66.7611084
  67.2156982  47.1792679  34.2022896  66.6757126  46.5371590  33.7414856
  67.9203491  47.3846626  33.5878754  45.4860268  30.4626694  19.3501873
  44.7850876  30.9174137  19.8172264  45.2743225  29.5340767  19.4457264
  61.9636497  22.5468636   6.4010172  62.5009460  22.1404686   7.0810080
  61.9391174  21.8995018   5.6963525  46.0276642   1.7641746  30.6496677
  46.9763794   1.8387785  30.5466843  45.9116631   1.0886648  31.3178463
  54.2197266  27.4752312  74.6467361  53.9855804  28.3870373  74.8199844
  54.8644981  27.5234776  73.9409180  82.5609589   8.8170195  22.3984852
  82.9784698   9.5872946  22.7839603  81.6397705   8.8944511  22.6467609
  35.7606583  12.4360476  78.1835098  35.3499527  12.9396515  78.8863144
  35.0942955  11.7998705  77.9237595   2.5467558  69.2641144  39.4877853
   2.4354613  68.4259491  39.9364853   1.6554062  69.5916443  39.3675766
  29.8009510  49.1074524   3.7260563  29.8970795  49.8594284   4.3104558
  29.1994038  48.5219841   4.1860557   1.2798184   1.4164710  74.3994141
   0.9393246   1.8321923  73.6072769   0.5337746   1.3959930  74.9987717
  38.7200890  26.6181736  73.6001053  37.8076706  26.3881397  73.4245758
  39.0531311  26.9346104  72.7603607  23.8435516  43.8915710  36.5034828
  23.0782204  43.3547783  36.7092781  24.1545048  43.5533829  35.6637383
  49.7231979   3.1126988  60.7760620  50.2874985   3.8856502  60.7576218
  50.2100754   2.4730411  61.2956963  59.9257164  18.5534267  85.2215958
  60.4583130  18.0334988  84.6197281  59.1524429  18.7933407  84.7109833
  25.5322342  53.0121880  18.9871159  25.4806366  52.2353249  19.5439358
  26.4045238  52.9685974  18.5953979  67.8380661  65.8465347  21.7307377
  68.6685867  66.1072769  21.3326244  67.5008926  66.6490784  22.1288261
  29.1843204   1.3570063  78.7175446  29.6648312   0.5467006  78.5480042
  28.3476906   1.0676388  79.0816193  74.9163971  70.3319244  68.3606339
  75.6043091  70.9377365  68.0849609  74.6137619  69.9272156  67.5477066
  72.8749237  63.5956345  87.4982834  72.0435715  63.2365875  87.1881714
  72.9802094  64.4121475  87.0099716  81.3499069  21.2348633  76.7867661
  81.2156677  21.8390179  77.5169754  80.7966766  20.4817715  76.9941788
  49.9791641  36.9058456  26.0205116  50.8093452  36.4414101  26.1269665
  49.8961334  37.4331779  26.8150291  47.6025047  25.9348812  -0.2228456
  48.1807671  26.6700630  -0.4262007  47.6736259  25.8295174   0.7258756
  69.6044617  12.1480513  61.8116455  70.2018738  11.6637230  62.3815193
  68.9258652  12.4776077  62.4008179  10.8144474  65.0768280  52.5878944
  11.0947409  65.8948288  52.1773605  11.6052589  64.7348862  53.0049362
  22.4632492  17.6048641  75.9352570  22.8076057  18.4252720  75.5822906
  21.7241535  17.8709602  76.4822159   0.8299528  24.3247032  70.9605026
   0.8014234  24.9775982  71.6598892   0.8385640  23.4839230  71.4179382
  53.2749557  12.5280333   8.0954800  52.6359787  12.7265816   8.7799673
  53.3757439  13.3503838   7.6160908  54.1526718   8.3890676  84.2070312
  53.5214653   8.0172482  84.8231125  53.6412392   9.0055304  83.6829605
  74.7895660  36.9599762  76.9935303  74.2274323  36.5300369  76.3490219
  74.3459396  37.7862930  77.1849442  29.9704857   0.6902304  44.0598907
  30.3154011  -0.1995045  43.9848099  30.2335033   0.9760414  44.9347420
  42.0992317  66.2991791  84.2658463  42.2260933  66.9257126  83.5533905
  41.1719894  66.3764801  84.4905167   4.6000495   5.1714907   1.8899713
   4.5595102   6.1278081   1.8967036   4.5286407   4.9222441   2.8113880
  56.2985039   4.9338703  87.1123962  56.2143631   4.9299603  88.0658798
  56.7716522   5.7426915  86.9170227  85.2920761  66.6393356   6.3236337
  85.3494110  65.9079971   5.7087464  84.3630829  66.6909943   6.5484228
  72.3209152  40.1873169  10.5008764  71.8684921  40.5159950   9.7240162
  73.2299118  40.0795135  10.2209969  80.1219559  16.9874325  47.6199379
  81.0698318  16.9991894  47.7527008  79.9198914  16.0741520  47.4166679
  36.3336182  24.4294415   8.4018421  37.1108055  23.9387608   8.6691265
  35.8903809  24.6420250   9.2231712   4.3954000   5.3256512  14.9843225
   5.3270650   5.5307713  14.9058466   4.3258257   4.8379583  15.8050213
  19.8577328  45.4725647  73.3875427  19.0299187  45.8735619  73.1226730
  20.4727764  45.7127876  72.6945419  69.9475021  35.6047249  44.5007896
  70.5541763  35.3473663  43.8065643  70.3211823  36.4098358  44.8591156
  35.5639992  39.2202530  17.4918728  35.1380959  39.3518524  18.3389378
  34.8444366  39.0364990  16.8879719  68.4276123  25.9790535  63.4220543
  67.6635513  26.5317707  63.5862083  68.0930634  25.2616310  62.8838921
  58.9074478  59.3894272  62.4275932  58.0899239  59.8798676  62.5133286
  59.3259506  59.4697456  63.2847023  46.0508194  11.0522413  74.5046387
  45.9964485  11.6090679  73.7279663  45.6081276  10.2425642  74.2503281
  78.7360153  54.5366287  76.9032516  77.9913177  54.9979401  76.5174408
  78.7117004  54.7753677  77.8298798  76.6302109  60.9367523  83.3908310
  77.1898041  61.1609726  82.6473236  77.1782303  60.3797226  83.9436646
  39.9121475  56.5023270  65.1760864  39.0873146  56.3647423  64.7103043
  40.5710487  56.5607262  64.4842224  26.7456455   0.9554014  80.1174927
  26.3458004   1.5324012  80.7682037  26.5418854   0.0716533  80.4235992
  84.6728973   8.5521698  73.0268631  85.2485580   8.8544064  73.7293625
  84.2516174   9.3483963  72.7031708  69.9145737  68.5767975  53.9244957
  70.3917923  69.0555801  54.6021881  69.7736282  69.2207794  53.2304802
  35.4217224  32.8211021  81.3155365  35.7585068  33.5461235  80.7890854
  36.0075226  32.7817116  82.0715179  57.8555679  45.0400200  11.0380116
  57.7756004  45.9748650  11.2275009  56.9957657  44.7897758  10.6998539
   8.1426516   2.1627498  52.1386986   7.8820724   1.2454405  52.2216110
   7.6331320   2.6180043  52.8090477  54.4015083  67.7502365  48.0777740
  55.3268204  67.5336075  48.1922188  54.0348816  67.7091522  48.9610214
  77.7642746  24.6395950  79.5413589  78.3127747  24.8652687  80.2926559
  76.8701935  24.6609077  79.8825378  47.2005920  11.6721077   6.3541517
  47.8987770  11.0173044   6.3516712  46.4039230  11.1734686   6.1727457
  53.5991020  33.3357353  71.3346405  53.3712692  33.9700546  72.0143204
  52.8914490  32.6917267  71.3611526  59.2740669  21.8869286  68.5451508
  58.6273804  22.5579491  68.7636948  58.7599564  21.0881348  68.4274521
   5.2258277  16.2081985   3.0073400   4.7259994  15.8602409   2.2688763
   4.5886517  16.7158413   3.5098712  39.9505196   3.6153862  76.0068970
  40.4584007   3.1517091  75.3410950  40.5674820   3.7536855  76.7255478
  76.0433502   5.8734384  37.5858612  76.0977859   4.9181938  37.5579987
  76.5264282   6.1635375  36.8120995  69.0935669  60.4441719  53.6348877
  68.9800720  60.5258446  52.6879539  69.3103333  59.5219002  53.7714691
  18.5836201  63.9704399  69.3312836  18.1002331  64.1710358  68.5298309
  19.5001259  64.1268158  69.1037064  52.8348541  37.3783722  70.6364288
  53.2591400  37.8825645  71.3306961  53.5556412  37.0833778  70.0799408
  40.9484444   2.9924679   1.2421839  41.1888847   3.4139912   2.0672529
  40.2835159   2.3488691   1.4868981   0.6061318  16.0812244  18.9123116
   0.4347323  16.6421623  19.6687527   0.1236757  16.4923363  18.1950569
  60.1637383  14.8673201  14.1953802  59.8895531  15.7544184  13.9627647
  59.6598015  14.3001013  13.6118193  39.6829834  12.6802530   3.9811196
  40.2296410  11.9989195   3.5897357  39.5382042  12.3843231   4.8798394
  28.8851147  64.4891052  26.2734337  27.9617901  64.6849823  26.4326096
  28.8973064  64.0788422  25.4086971  20.2100716  34.6450768  -0.2302138
  19.5228043  34.9685059   0.3522706  20.6149349  33.9251938   0.2536105
  62.2889671   6.0186529  48.7007713  62.0316200   6.9235492  48.5242310
  61.8752747   5.8111057  49.5386314  64.2002106  18.7464676  86.4925308
  63.6226044  18.1099453  86.9137726  64.4060669  19.3767242  87.1829147
  43.2135201  53.0945663  74.7641068  43.4542885  52.1691933  74.8081894
  42.3273354  53.0945091  74.4022980  24.7663918  65.4448242  40.6051674
  24.8826275  64.7341766  39.9745331  23.9172115  65.8262482  40.3823662
  84.0321579  48.6304092  24.6644440  83.5598145  48.0440445  25.2554607
  83.3697128  48.9251442  24.0395222  20.0312901   0.0622028  25.0280094
  20.2647438   0.2603811  24.1211166  19.9308605   0.9192653  25.4422436
  83.0602341  65.6072922  22.5433273  83.0469589  65.7387466  21.5952892
  83.3692856  66.4415436  22.8965073  72.5683365  28.6200352  75.4987488
  72.7414169  28.6593800  74.5581436  72.2053528  27.7455235  75.6391144
  33.1712303  65.5940628  79.7638855  34.1274452  65.6073227  79.8052292
  32.9458389  66.3303909  79.1953430  38.6809540  56.2138939  18.3963299
  37.9697762  55.9382820  18.9746895  38.2395363  56.5329704  17.6091995
  33.5549850  43.8589020   9.4414005  33.2769432  43.8145332  10.3562527
  32.9903336  43.2323532   8.9888077  27.9371185  32.4484825  13.5841885
  28.6792564  33.0075836  13.8141184  27.2316074  33.0607681  13.3754044
  58.8626175  56.5627060  40.0533066  59.6455994  56.2386551  39.6081467
  58.5029106  55.7936974  40.4954262  65.5312195  37.4964142  71.8855515
  65.6027832  37.7286301  72.8113937  65.2833023  36.5718842  71.8889694
  25.4885597  30.8433762  78.9163895  24.9310989  30.7680283  78.1419296
  25.6789188  31.7789898  78.9843674  11.5915871  41.7375946  53.7126198
  11.9229240  42.5718651  53.3803024  11.0761852  41.9745941  54.4836082
  73.8007584  29.7990475   9.1345539  74.6795425  30.1762905   9.1752596
  73.4282913  30.1464329   8.3241081  80.5567856  27.2357140  42.5060005
  80.5201645  28.0963211  42.9234276  79.8275833  26.7508278  42.8924980
  47.0623932  20.0260220  77.1154022  47.0264091  19.0745564  77.2136383
  46.1773605  20.3223782  77.3278351  40.1678696  46.9641800  54.8049507
  40.0418854  47.6435661  55.4673653  39.7617416  46.1837387  55.1820450
  21.5325909   6.8768506  13.8292837  21.9675198   6.3063745  14.4630232
  21.6744728   6.4488940  12.9849176  68.2773438  50.0660477   6.5031047
  69.0167389  50.6644211   6.6102285  67.5163269  50.6395149   6.4124084
  37.8218842  13.4480581  22.9948444  37.6629601  13.8317204  23.8572693
  37.6462097  14.1601906  22.3798351  22.5026512  48.8239670  33.6756973
  23.2915363  48.5708580  34.1550980  22.7707138  48.8247986  32.7567978
  13.2645388  51.2308388  76.3538132  13.3379660  51.4853897  75.4340134
  14.1598511  51.2816010  76.6885834  82.9868774  15.5420618  75.6086044
  83.2265854  14.6245785  75.4782410  82.7249756  15.8469524  74.7398758
  26.0981178  18.1126938  74.2151337  25.2137032  18.0041370  73.8654785
  26.3813400  17.2240391  74.4303284  81.4747314  46.8994026  51.4193573
  82.2370071  46.6484985  50.8976212  80.7289352  46.7617455  50.8353424
  37.8058243  59.8832130  79.4659882  37.7508736  59.4250450  80.3046112
  38.2228966  59.2547874  78.8766098   8.9169617  34.4770470  40.8939323
   8.6160927  34.9960442  41.6398239   9.8589993  34.6415100  40.8521194
  12.2387085  39.7698936   2.6067307  13.0382452  39.2878189   2.8178654
  12.4973707  40.3670235   1.9047621  14.1774492  36.4894638  68.6304092
  14.0569582  36.2817078  67.7038269  13.2906656  36.6328278  68.9610062
  22.1297817  33.6657486  71.6801605  22.9817295  33.2508163  71.5450745
  21.9826984  34.1756287  70.8835297   3.8525205  26.9981136   0.2057202
   4.3898878  27.7874336   0.1390667   4.4705663  26.2768784   0.0870979
  24.6550217  52.0232391  25.0967731  24.6855965  52.5994034  25.8605347
  25.5734844  51.8751717  24.8715305  58.2932167  40.5707626  15.6076841
  57.7076302  40.6333656  14.8530979  57.7273827  40.2914543  16.3274422
  77.2283478  70.5271454  56.0368996  78.1449203  70.7475281  56.2029457
  76.9384613  71.1757965  55.3954582  24.3807068  66.4869690  80.5316238
  23.6041965  66.8616638  80.9473953  24.4874306  66.9912491  79.7250595
  74.7358398   3.4800978  19.3066273  74.9426651   3.1570930  18.4296303
  75.5697327   3.4504256  19.7756348  50.8373795  58.9337807  57.3612251
  50.1890411  59.3804054  56.8167915  51.6813965  59.2177162  57.0101547
  77.2826614  66.1835251   8.7124958  77.0164871  67.0683212   8.4624701
  76.8682709  65.6160736   8.0624838   1.1741796  40.7156487  49.5795021
   1.5893759  40.5832977  50.4317513   1.3331659  41.6373940  49.3761826
  28.5127125  62.9053116  40.5237923  28.6436310  63.1340866  39.6035995
  28.8214722  63.6715164  41.0073547  50.6587753  16.3997631  42.4332504
  50.7925987  16.5361595  41.4953156  51.2988625  16.9747791  42.8526268
   1.9876878  49.3964043  44.7595901   2.0392644  48.4663582  44.9800224
   1.0520865  49.5970116  44.7848549   8.5384188  68.7084122  59.0836754
   7.7286763  68.9517670  59.5323715   8.7028036  69.4308243  58.4775887
  48.9619751  35.4742699  29.4099178  48.1082573  35.2696800  29.0284157
  48.9666214  36.4281960  29.4888954  73.5586548  70.9563522  38.2736397
  73.7487717  70.7476883  39.1882668  74.3487244  70.6969528  37.7995720
  42.1334496  70.8182983  86.7829132  42.9077339  70.2820587  86.6121140
  42.4845276  71.6708298  87.0401306  65.1350784  31.2393951  50.7008667
  65.0156097  32.1121521  51.0753746  64.7829361  30.6444359  51.3628731
  86.7306747  69.3715820  60.7705879  86.1686172  68.6995544  61.1561966
  86.5209045  69.3523941  59.8368530  10.8021202  49.8633194  16.7738476
  10.2869806  50.2225151  17.4962330  10.4327593  48.9927216  16.6259804
  25.4027996   0.6671180  83.1606903  24.6413231   0.5820372  82.5869827
  25.2699947   1.5001780  83.6130295  85.1265488  11.3064909  64.7264633
  84.8165054  10.7534246  65.4435577  86.0092010  10.9858837  64.5410995
  12.4796991  11.2382851  13.3067503  11.7358379  10.7176361  13.6097803
  12.2308130  11.5222816  12.4271860  25.4851761  35.1566505  26.0553455
  24.7861004  35.6238632  25.5979214  25.3941193  35.4248772  26.9696732
  18.8918571  67.6844864  52.2931099  19.6990051  67.8418274  52.7829971
  18.9111443  68.3295288  51.5861626  51.3640976  10.2354784  36.1063652
  50.9163704   9.6469965  35.4985313  51.0738487   9.9508104  36.9729424
  13.2571650   1.0756537  39.6932831  14.2002392   0.9383717  39.7827110
  13.0024681   1.5220214  40.5008240  23.3353958  58.3286324  76.2591858
  23.1975861  58.1422119  77.1878891  23.2325706  59.2775917  76.1875534
  81.9729156  54.8086662   5.4825330  81.2871552  54.6096077   4.8450799
  82.7015533  54.2388687   5.2362623  12.8530607  69.7183456  20.6903019
  12.2729359  69.3069839  21.3309803  12.4076443  69.5977020  19.8516827
   6.2607341  20.0720119   9.7088747   6.3994956  20.9734116   9.9994841
   6.8125315  19.9832630   8.9317808  47.3657150   5.3348165  64.3435440
  47.5919533   5.8229709  63.5518646  46.6083031   5.7975059  64.7019806
   4.0166101  24.6921940  66.6111069   4.0059118  25.3880424  65.9539032
   3.1604095  24.7500439  67.0351410  55.9884987  65.6848602  67.7943726
  55.8756294  65.8593292  68.7287445  56.1192207  66.5487747  67.4034882
   3.7826962   0.2276710   3.3499575   3.6057537   0.5589346   2.4695101
   4.6617842   0.5468782   3.5537791  81.2454224  18.9637699  56.6280556
  81.5262146  18.6268654  57.4788704  80.5356293  19.5721359  56.8337440
  75.1773376  30.2569294  33.9431953  75.6313858  31.0404053  33.6329765
  75.5926514  29.5361385  33.4696884  57.9336891  31.4031906  32.0928078
  58.4918900  31.6158199  32.8407593  57.0783424  31.2137985  32.4784813
  83.3893661  34.3918648  28.5703354  82.7516403  33.7097549  28.3599396
  83.1817856  34.6445618  29.4699383  66.2727509  55.7222595   7.5628405
  66.7590637  55.0142975   7.1403222  66.9369583  56.3806610   7.7667322
   8.5700741  62.8212395  24.0134869   9.2039957  62.6134949  24.6999378
   7.7175832  62.7296944  24.4390564  67.5332413   8.0731573  61.5261612
  67.3800049   8.8211155  60.9488335  68.4824524   7.9504728  61.5123749
   3.6524813  21.2929821  56.1727257   3.5100591  20.4201908  56.5390358
   3.9160485  21.8271275  56.9220276  14.1480732  64.2282944  50.2923927
  14.0339470  64.9616928  50.8968239  13.3438911  64.2183380  49.7733307
  63.8758125  46.8468018  38.9734497  64.4485779  46.1659660  38.6204147
  64.1502762  46.9414825  39.8855553  80.8852615  57.6446266  17.2165108
  81.3947372  57.7696609  16.4158649  80.0321655  58.0319595  17.0204926
  85.0518417  27.8353081  76.0615768  84.2698593  27.6415710  75.5446548
  84.7233353  28.3139381  76.8226547  78.4428024  59.7733727  63.6309624
  78.3255997  59.8981285  62.6891899  78.1558990  58.8743172  63.7910080
  75.3200760  22.5404243  82.1623688  74.8348618  22.3931141  82.9742203
  75.1652374  23.4618950  81.9546432   9.0975380  36.8199921  70.7885437
   8.7128420  36.2193108  71.4268417   8.5528250  36.7207947  70.0077209
  81.4370193   0.0551236   7.0513377  81.9821243  -0.5771825   7.5196171
  82.0620422   0.6199253   6.5968332  75.3734818   8.4028177  48.7935486
  76.2198715   7.9674654  48.8951874  75.1788254   8.7538490  49.6625252
  36.7960052  57.5534325  59.8596535  37.1972427  58.2327919  59.3176994
  36.8265381  57.9070892  60.7486000  85.1664963  27.5784264  25.1654491
  86.0814896  27.5501842  24.8857613  85.2097092  27.6700554  26.1172714
  62.7665939  13.4021540  37.5566597  63.2918510  13.8694487  38.2062569
  63.0554504  13.7561255  36.7155304  64.5274963  15.6420765   7.4797416
  63.7312508  15.5772266   6.9524627  64.2799988  16.1959400   8.2201567
  49.2982178  39.8783989   7.7585878  48.8913536  39.8475456   8.6244640
  48.9730301  40.6904640   7.3699522   1.6891127  32.3134460  51.9506912
   1.5918118  32.6634789  51.0651169   2.2018719  31.5132160  51.8369331
  42.6866074  34.2599144  59.9652214  43.6033211  33.9867249  60.0004120
  42.2042427  33.4557571  59.7731667  84.9297028  38.2030907  45.9114609
  85.0749512  38.5972595  46.7715569  85.1029205  38.9112053  45.2911377
  55.4860229   1.8552455   1.0975387  56.3800278   1.5587045   0.9270986
  55.5708008   2.4605598   1.8341792  45.0290871   9.8153143   9.3850079
  45.7073021   9.3149118   9.8387156  44.2622108   9.2425604   9.3943548
  53.4614487  61.6853218  77.9062042  53.3104477  60.7980003  77.5804825
  53.9052238  61.5602493  78.7450409  45.2662010  39.0493126  30.3464260
  44.7992058  39.3028564  31.1425819  45.1397591  38.1024361  30.2858391
  22.3351097  71.2341995  58.1226616  22.0899315  70.7665253  57.3242874
  22.1821537  70.6034927  58.8262558  43.5126343  22.3707981  20.1452427
  43.9960594  21.5644932  20.3252583  42.6789703  22.0738621  19.7804565
  29.2951946  54.8201256  11.2675791  28.8987236  55.6856384  11.1679420
  29.1257668  54.5825806  12.1792250  48.0199394  61.0713615  67.4651947
  48.8151360  60.6733856  67.1109238  47.7583389  61.7127800  66.8046036
  60.8775940  41.2040443  57.9439125  61.3051605  41.7546768  58.5998268
  61.0387154  41.6518631  57.1134148  51.2734718  40.0533752  51.2422180
  51.0755920  39.3644028  50.6078758  51.7858009  39.6140366  51.9209938
  49.0530090  62.0274353  21.5422478  48.9312592  61.0806770  21.6133842
  48.1656265  62.3779068  21.4650898  39.1426468  42.1987152  78.9140778
  38.3090210  42.6569138  78.8075180  38.9296036  41.2769318  78.7686157
  84.8014832  10.5539484  12.6571054  85.2853394   9.8145857  13.0251570
  83.8914261  10.2580013  12.6360760  39.5165367  70.1000061  34.5592079
  39.0257721  69.2783051  34.5456390  39.4678154  70.3930893  35.4691277
  86.1908875  59.6299744  49.4324188  85.3974686  59.6037102  48.8976097
  86.7883530  59.0164185  49.0048485  41.7647858  47.6460800  52.7282028
  41.1770248  47.3934250  53.4401970  42.4676743  46.9969254  52.7560883
  60.9554405  54.3099709  70.3872223  61.2744064  54.6964684  69.5716782
  60.3724136  53.6047821  70.1061096  15.0380154  17.1659412  11.4535427
  15.3586903  17.2961712  12.3459768  14.5723572  17.9760151  11.2457600
   5.6773453   2.0508261  73.7468872   5.0548615   1.3528541  73.9507980
   5.3689837   2.8022635  74.2533264  76.9902191  61.1065598   4.8771000
  77.3473434  61.3381310   4.0197382  76.1900787  61.6266060   4.9516792
   8.9502811  64.4662857   6.8661799   9.6376724  64.6521759   7.5058455
   8.2982683  65.1523590   7.0090604  74.5076752  57.5112839  75.7049484
  74.1908188  56.7507591  75.2176743  75.2611160  57.1840019  76.1963272
  28.5227070  65.6186142  48.4132080  27.7035294  66.1127014  48.3807449
  29.0273018  66.0370255  49.1107368  29.9689598  48.0366859  25.0898418
  29.6881275  47.7141304  25.9461842  29.1562557  48.1416969  24.5951538
  38.1465492  45.3909531  58.3742447  38.2390709  44.4822960  58.6606293
  37.4207344  45.3727608  57.7504730  16.2936954  16.2061634  87.5458145
  16.4600124  17.0024757  87.0413742  15.4284086  15.9160833  87.2570877
  52.8723640  41.2831039  72.7903748  52.2888680  40.8183212  73.3901596
  53.2122688  42.0146408  73.3056870  68.2937012   7.2661705  27.9315300
  68.3347778   6.4255600  28.3875103  67.8187866   7.0767498  27.1223297
   6.2232375   1.1247159  46.9982491   5.7971640   0.8694997  46.1799850
   5.5441298   1.0201299  47.6646614  86.5900040  51.4332809  42.3422661
  85.6749115  51.6981163  42.2489662  87.0871201  52.1405220  41.9312744
  37.4688759  62.8322868  30.0675316  37.7373466  62.7895737  30.9853172
  37.0684242  61.9801292  29.8952141  81.7551422  18.5736122  63.8639374
  82.5037613  18.3019886  64.3949966  81.7729340  19.5300980  63.8963699
  25.2807884   8.5911627   5.4706407  25.9273376   7.9176965   5.6819429
  25.5426025   8.9121866   4.6077218  43.9421196  41.2834663  51.5357628
  43.8788376  40.3413887  51.3785515  44.5151329  41.6045265  50.8394852
  78.0219955  30.1255417  30.5318451  78.3496170  29.3272934  30.1174812
  78.7816925  30.7068615  30.5659084  84.6359406  46.3498306  50.1040306
  85.5558624  46.4574394  49.8623581  84.2317581  45.9477654  49.3351288
  27.1592464  12.3152399   2.7383349  26.6128464  12.6281681   3.4592755
  27.9449806  11.9728088   3.1644733  63.6623383  32.8770256  37.5624046
  63.5104485  32.5018044  38.4297981  63.6994820  32.1203918  36.9772949
   0.1909859  46.1344604   3.5335975   0.5703610  45.8375168   2.7064764
   0.2110921  45.3613091   4.0975690  66.7739868   7.2453747  53.0464935
  67.2957153   6.5910735  52.5818176  66.0804443   6.7408605  53.4715767
   9.7811823  60.9458580  14.4520922  10.1461515  61.4176216  13.7034492
   9.7613831  61.5934067  15.1567335  14.4682360  42.4543610  11.7635708
  15.0248251  42.4738808  12.5420694  13.6182718  42.7715721  12.0688114
  80.9585419  21.6919231  88.5464172  80.8288879  21.9693089  87.6395111
  80.1346359  21.9080524  88.9831009  29.9326954  45.9526062  54.5164490
  30.2544289  46.3128700  55.3428459  29.2533550  46.5659218  54.2361412
  74.8627472  42.7790871  25.3756580  74.7742691  42.1576920  24.6529732
  75.0965271  42.2377930  26.1296997   2.2844479  50.0176773  28.1775398
   1.9893032  49.9398918  29.0847721   2.7942922  49.2225304  28.0225258
   7.2944841  32.0949593  81.1146774   8.0883741  32.5600052  81.3786850
   7.1371555  32.3813210  80.2149658  10.1946945  40.3984833  22.2759914
  10.0598602  40.5675850  21.3435440  10.4221649  41.2524033  22.6438293
  68.8227921  44.7611618  80.6391296  68.2535782  44.8143730  79.8714142
  68.2950211  44.3096313  81.2977676  44.3331261   6.0104856   5.0586095
  43.7314072   6.2660007   4.3594112  45.0356560   6.6594224   5.0190620
  56.8717499  24.5292282  29.2626534  56.3040352  24.5969219  30.0303440
  57.6930542  24.1741638  29.6026878  35.0061760  30.0087509  17.2911263
  35.6776848  29.7203922  16.6729336  34.2133942  29.5486031  17.0154648
  61.4531517  30.1339169  86.7273712  60.7089081  30.0025730  87.3148041
  61.1486168  30.7869759  86.0972824  70.8465652  58.4941673  29.9923115
  71.2467422  59.0784111  29.3483028  70.3260193  59.0726509  30.5496426
   9.4357605   3.7052295  37.7107391  10.3409138   3.5540283  37.9828911
   9.0094938   4.0676227  38.4874001  32.0389252  46.0009651  30.0739269
  32.1022339  46.9162827  30.3467312  31.4234009  45.6085320  30.6930847
  50.6391335  51.8550758  16.0457687  49.9697647  51.1997261  15.8490582
  51.4519463  51.4746284  15.7128639  75.3478470  40.4676476  29.9319363
  75.9368439  41.0581360  30.4016628  75.6845093  39.5920792  30.1223831
  42.9360313  61.9980545  50.2956314  42.6329575  61.2635117  50.8293152
  42.4978561  61.8787575  49.4530144  86.2600021  43.6932335   4.6387053
  86.9308701  43.0906487   4.3176823  85.7884827  43.1936378   5.3052654
  76.1125946   1.1737354  72.6502838  75.5898666   1.7434490  73.2145691
  75.8615341   0.2864965  72.9072037  29.6807823  69.8631668   9.1929026
  30.4175186  70.0376434   9.7785730  29.4964409  70.7076874   8.7817612
  55.2133331  12.8537579  12.5433359  54.7821770  13.5415745  12.0361423
  54.8810768  12.9686737  13.4336357  54.4966507  38.5437241  46.1816368
  55.0696869  38.6590004  46.9396400  54.9395065  37.8869553  45.6442719
  66.0382385   3.2691445  40.2153740  66.8210449   3.2601364  39.6645775
  65.6595078   4.1376119  40.0791435   1.4340298  11.0532465  67.0379715
   1.5839635  11.0455122  67.9833298   1.7081357  11.9269447  66.7591400
  52.3527718  15.6928101  17.4071980  52.0348587  16.5871353  17.2833138
  52.2263489  15.2736101  16.5560093   0.6369315  68.2302551  64.0168152
  -0.0956669  68.3209686  63.4074707   0.8559483  67.2988052  63.9910698
  79.6942596  61.8911476  68.0011139  79.2366028  62.1510506  67.2015915
  79.0813217  61.3082886  68.4492416  15.0326500  68.9189224  18.1512280
  14.7234735  69.8193283  18.2507706  15.6053457  68.9456940  17.3847198
  27.3888817  69.7339859  50.9176903  26.5980778  69.2894897  51.2231140
  27.2603760  69.8299789  49.9740257  43.6267281  47.9044876  44.3622437
  44.4054146  48.4598198  44.3237267  43.0379028  48.2715683  43.7028694
   2.9818945  64.9065704  23.3319969   3.4463782  64.0700455  23.3589115
   2.1345131  64.7231674  23.7376347  81.4644928  49.4252586  30.0371437
  81.1870728  48.5368385  30.2607059  80.8693161  49.6929550  29.3369026
  54.9320908  42.4175453  59.1850815  55.5633354  42.7843704  59.8041153
  55.3976364  41.6912231  58.7704048  36.5504112  62.6076698   6.3239274
  36.7159767  62.0699158   5.5495620  35.7029839  63.0187569   6.1533260
  53.5897102  10.5479774  29.3654480  53.0171814  10.2934427  28.6418076
  54.3420639   9.9605799  29.2936325  18.4351120  61.0948830  60.1479340
  18.9771843  60.5304604  60.6991272  17.5429306  60.7750473  60.2819023
  85.6485367  68.8024368  12.7631760  85.8143997  69.2215729  11.9187565
  86.5166092  68.6953201  13.1520195  33.5353394  28.9776134  87.3508606
  32.6952972  29.4053822  87.5169220  33.9623070  28.9477634  88.2070312
  35.7639885  70.5039215  84.7729340  35.0467224  71.1343231  84.7069397
  35.4013939  69.6908722  84.4212189  34.3241196   1.4681548  54.3343315
  33.6419258   2.0519814  54.0026855  35.0248985   1.5253581  53.6848145
  66.4317169  64.4647903  23.7871170  66.6092072  65.0778046  23.0737190
  67.1602554  63.8446732  23.7568817  53.0833054  38.1399117  30.4213333
  53.6409187  37.8024940  31.1223660  52.3285141  37.5513344  30.4113827
  28.3213425   2.1346567  70.7672653  29.1646366   2.4543562  71.0880127
  27.9719372   2.8594203  70.2487411  64.3013992  29.7221394  21.9316673
  64.0509033  30.3969116  22.5626698  63.4817772  29.2745686  21.7215862
  45.1062813  64.5957413   1.4555312  45.3815575  64.5418625   0.5403531
  44.3588486  65.1936493   1.4460186  50.1066170  33.5205116  56.0511589
  50.6651611  33.5938187  55.2772789  49.4922256  34.2503471  55.9731102
  28.7303772  58.7921982  58.3564453  28.9550972  58.3310051  59.1645508
  29.3337040  58.4383087  57.7030029   1.6655976  48.5524521  66.9811325
   2.1124182  48.9405289  66.2288132   2.3242657  48.5497322  67.6756668
   8.6826029  67.0718231  63.1036949   7.8682733  67.5516586  63.2548752
   9.1760311  67.6228485  62.4961357  76.7243652  43.6086845  41.4599152
  76.8893356  44.4987450  41.7710571  77.5921249  43.2638397  41.2494507
  26.4369526  21.7124119  88.7362900  25.5299416  21.5659389  88.4677582
  26.6581535  22.5706673  88.3747635  47.8704300  61.0490913  43.3598022
  47.2957764  61.2907104  44.0861778  47.9286766  61.8418579  42.8265533
  58.1346550  42.4250832   1.5197533  58.0028610  41.9311180   2.3289881
  58.7437820  43.1227570   1.7615182  28.3037090  17.3617535  79.5727615
  27.6857643  17.5403614  78.8639069  28.4512177  18.2142105  79.9823837
  37.2565193  33.8454247  15.8870564  37.9169350  33.2612114  15.5145273
  36.8632660  33.3397598  16.5983124  56.3687172   8.1349421  56.7284584
  56.2247925   9.0313416  56.4251671  57.2161522   8.1654758  57.1724739
  41.2569351  41.6224670  48.1259232  40.6656380  42.3473053  47.9229202
  41.5427361  41.2999458  47.2712135  68.1536560  46.7770996  85.5030060
  67.2354050  46.5496941  85.3569565  68.2405396  47.6620255  85.1486206
  52.4484596   2.9661882  73.4842148  52.7493286   3.2635021  74.3428802
  52.3268814   3.7713361  72.9810333  65.7738647  61.8540726  83.4697342
  65.1551285  62.1127396  82.7867432  65.5066681  60.9673233  83.7116318
  30.6546974   9.2154751  18.9884377  30.5444336   8.7360067  18.1673508
  30.3056564   8.6272211  19.6580334  14.2588263   3.0837719   1.6199077
  14.4180632   2.1592653   1.4297429  14.4671373   3.1764092   2.5495620
  81.0911026  42.5107880  83.9360733  80.7064285  43.3872261  83.9464645
  80.5997543  42.0415382  83.2618256  29.6393814  23.2316170  77.3941345
  29.8482075  24.0781994  76.9992676  28.8643990  23.4017200  77.9295807
  44.1445312   8.1458578  68.4581680  44.6961975   7.5348883  68.9466400
  43.5325737   8.4890985  69.1092606  63.4878883  63.8305740  37.7785187
  63.6129303  63.9519920  38.7197151  63.0639992  62.9758110  37.7015152
  67.6326828  23.9247379  30.6543388  68.5239334  23.5937939  30.7656555
  67.3809891  23.6437416  29.7746124  58.9469643  23.4079285  25.0153122
  59.5524445  23.6550007  24.3163261  58.5288582  22.6074066  24.6981659
  62.7736282   6.2302256  39.2852554  63.0082359   5.7058940  38.5195732
  62.6976891   5.5944567  39.9967766  56.3717155  50.0045204  43.4204750
  55.5373306  50.4496536  43.5684395  56.5130234  50.0683403  42.4759178
  28.6096344  60.4548531  48.5184517  29.2467346  60.9862404  48.0410004
  28.1009998  61.0881958  49.0248108   3.2374852  17.2698860  59.6280022
   3.3810434  16.9158382  58.7503510   3.3090611  18.2180958  59.5184174
  43.5885315  24.6822166  79.5611496  42.9776535  23.9453259  79.5681992
  43.9822617  24.6585865  78.6889954  81.8006058  14.1059265  48.9604034
  81.6842728  14.8835783  49.5062561  80.9916382  14.0468397  48.4521675
  25.6889534  56.0506210  55.7559166  24.8410950  55.7200890  56.0527611
  25.8094425  56.8684883  56.2384186   4.9620991  54.8481636  55.8082504
   4.2578712  54.3708000  55.3695946   5.4357085  55.2819443  55.0984917
  69.8902359  31.1326294  30.4726925  70.0950928  30.2192516  30.6727142
  70.3840866  31.3195591  29.6743202   6.1211081  37.0569687  32.7127571
   6.9115653  36.5989037  32.4271278   5.9296026  37.6697197  32.0027618
  75.2740784  48.8824921  55.1809731  74.8056335  48.3646278  55.8356628
  76.1475067  49.0052490  55.5528412  13.9337301  67.3330688  30.0815392
  14.4400806  68.1240234  30.2665730  14.1837893  66.7211761  30.7738457
  42.9296494   3.6534905  15.0891399  43.7114677   3.3110909  14.6558332
  43.2073975   4.4927549  15.4561872  26.3673553  64.6680603  75.8101425
  27.0893669  64.4505768  75.2205429  26.6069813  65.5183029  76.1787949
  14.5554686  18.4863243  24.2327061  14.2989912  17.7553596  23.6704407
  14.2419643  18.2404823  25.1030560  30.1192780  63.8602791  11.5426722
  30.7993240  63.1959496  11.6542053  29.6178513  63.5645256  10.7828484
  47.9762306  43.4037285  52.8644524  48.4702988  43.7716904  52.1318321
  48.5065575  43.6041565  53.6356964  23.2264538  48.4689140  87.2375336
  22.7626305  48.9925728  87.8908997  22.6896610  48.5404320  86.4482498
  45.6855316  27.5515881  10.3893948  44.9204979  26.9763050  10.3912144
  46.3057213  27.1234894   9.7992001  72.6760025  59.0900688  38.5823936
  72.0165787  58.5246391  38.9844933  73.0999222  58.5354195  37.9274979
  76.8879395  32.7615395  67.9919281  77.7492599  32.4341927  67.7327042
  77.0190582  33.7000694  68.1268234  65.1539688  33.5035553  78.7772751
  65.4613419  33.6613731  79.6699448  64.3333664  33.9925880  78.7165527
  18.7941189  29.2211742  70.6453705  19.5308647  29.6711655  70.2319183
  18.0671978  29.3402081  70.0341034   8.3659410  55.6483994  12.8622007
   7.4420228  55.5363922  12.6384544   8.3693600  55.7705803  13.8115644
  51.2298431  39.2551231  79.0061722  51.2592964  39.4106560  79.9501953
  50.5600815  38.5803032  78.8953934  71.1339874  22.3342648  75.3809814
  70.2718506  22.7491474  75.4097061  71.7494125  23.0493393  75.5427094
  15.0753613  65.8052368  21.2519608  14.3140516  66.0592651  21.7736034
  14.8278971  64.9682922  20.8588734  50.3197060  35.9609795  17.2850361
  49.4244843  35.6568413  17.4344044  50.6421280  35.4139671  16.5687599
  18.4979553  66.5475159  59.9906845  18.4418659  65.7082977  60.4476204
  17.8663979  67.1082153  60.4412231  20.2971764  71.2078705  45.6407776
  20.4309006  72.1284180  45.8664818  20.9443893  71.0322647  44.9577637
  64.4736557  20.4416180  67.0095825  65.1483536  20.7506084  66.4049759
  63.6583138  20.5072517  66.5124512  38.7937737  42.5801620  59.1622887
  39.2816811  42.3600502  59.9558411  38.2177620  41.8291779  59.0192337
   8.1774092  37.8137321  40.7749825   7.2312212  37.6696548  40.7608261
   8.5538721  36.9337387  40.7640915  64.0219421  27.4678440   1.4257730
  63.6475258  27.4935722   2.3063312  64.3843842  28.3439064   1.2939292
  24.1789684  52.3965988  16.0106392  23.6733150  51.5892830  16.1043854
  24.6610641  52.4742203  16.8339195  47.5696373  22.1959743  25.8693867
  47.9316750  22.9272270  26.3698158  46.7807503  22.5525017  25.4610043
  83.1863785  26.1621971  74.3668594  82.2941284  26.0260334  74.0481339
  83.7320709  26.1062279  73.5824432   7.2626343  42.2968292  88.0993042
   6.9068532  42.9706268  87.5199509   6.8310738  41.4891396  87.8206863
  76.9459305  59.9634857  40.5875206  76.8529816  60.5851936  39.8656693
  77.0007324  60.5117264  41.3702469  18.5004101  27.0429306  84.4640350
  18.7260590  26.2728691  84.9858780  17.5453987  27.0198402  84.4035950
  44.6362114  64.2603683  37.7519264  44.9228134  63.5370369  38.3094940
  45.3238411  64.3402023  37.0908508  32.9258194  50.6869965  80.7458038
  32.9756470  51.4931183  80.2320786  33.8225899  50.3523865  80.7539978
  60.1564674   8.5909853  72.2976151  59.4840813   8.4540138  72.9649658
  59.8686867   9.3716497  71.8243561   2.5250838  59.3781586  68.1185074
   3.2717285  58.9771767  68.5634460   2.1290181  59.9459343  68.7795639
  64.4681625  14.9050875  48.1568871  63.5623016  14.6560831  47.9734688
  64.5065079  14.9841795  49.1100426  18.5682144  58.6791954  39.7971649
  18.3678932  58.3608437  38.9169617  18.5713673  57.8919411  40.3416443
  39.6792221  49.6030426   5.6804976  40.0710182  48.9174957   5.1394310
  38.8179436  49.7529068   5.2906675  17.9124317   0.9911100  15.9859753
  18.8632507   1.0389525  15.8865452  17.6091251   0.5630681  15.1853399
  11.8920975  63.9792824  14.0046177  11.8816929  63.1544724  14.4902191
  12.0995131  64.6423035  14.6631107   4.5470490   5.6290970  33.8583412
   4.2490144   5.2268052  34.6741638   4.9232244   4.9051275  33.3577499
  25.5648289  50.8518372   3.2731149  24.6217384  50.8176003   3.4332404
  25.9277592  50.1646843   3.8319821  84.1382065  35.7574844  64.4908752
  84.2842026  34.8210068  64.3569870  84.8626938  36.0350914  65.0514908
  17.4452934  51.4770622   7.2354064  17.3396835  52.2298737   7.8170881
  18.2742729  51.0811234   7.5042086  10.5164957   6.2013922  86.0877151
  10.5129538   6.7763410  86.8529968   9.7125654   6.4230995  85.6178513
  61.9867744  14.9001675  19.1348362  61.4529800  15.6946936  19.1394405
  61.4538651  14.2562895  18.6682949  74.5167618  50.5113220  58.0253029
  74.0747070  49.8841324  57.4530640  73.8178711  51.0881462  58.3336143
  13.4497814  61.3143005   9.4807281  13.0490503  62.1277428   9.7872496
  13.2070827  60.6643867  10.1402283  69.8079300   2.6748238  44.9657745
  68.8891754   2.4158616  44.8946266  69.9456024   2.8142774  45.9027023
  57.0781555  50.0723000  56.6894608  56.2292061  50.5121193  56.6439056
  57.5838165  50.4526825  55.9712334  22.0702591  34.8886299  20.3725681
  22.8696022  34.6523476  20.8431568  22.1619473  34.4671822  19.5180454
  20.3866310   2.2288799   6.3291526  19.6373825   1.8497686   5.8696623
  21.1193047   1.6541320   6.1075997  25.2346153  17.7251148  35.7142143
  25.9529533  17.1077042  35.8521500  24.7885418  17.4025078  34.9311600
   5.1741328  18.9852676  12.5932951   4.5665855  19.5762672  12.1485043
   5.4520845  19.4686356  13.3713255   2.7867749  54.4022026  71.7104568
   3.1987998  54.6646576  72.5336151   1.9151994  54.0990982  71.9648438
  16.7933979  67.9774170   6.7853279  16.3858624  68.4596024   7.5048013
  16.9667187  67.1083984   7.1472640  66.9127121  61.8831787  15.5681505
  66.1454163  62.4163094  15.3601408  67.3836899  62.3892899  16.2301636
  38.4226913  37.8925018   2.3564265  38.6318436  36.9648094   2.2474592
  37.4679947  37.9167786   2.4212346  71.3938980   5.8864479  36.6561432
  70.9511414   5.5711093  35.8682594  71.5024872   6.8261719  36.5099945
  61.6215553  44.8250656  88.6229630  61.1952934  44.4570770  87.8489380
  61.1072998  44.4945145  89.3595123  79.4497070  15.7714386  44.2488289
  80.3270187  15.4297085  44.4213943  79.4202652  15.8871307  43.2991028
  40.9889336  70.2414246  74.9038773  41.8090134  70.4447556  75.3537216
  40.6646233  71.0898895  74.6019440  44.6343040  69.7560272  78.7642136
  44.7693062  68.9403534  79.2465897  44.3149376  70.3734207  79.4222870
  63.6286011  67.0046387  14.8375978  63.2190742  67.6962128  14.3177471
  62.9529877  66.3309631  14.9146233  23.5115528  21.2914352  17.5306110
  22.8563900  21.8434238  17.9575806  24.3391380  21.5397511  17.9425259
  78.8202972   3.2183170  24.7413483  79.5250626   2.9137254  25.3129768
  78.4949875   4.0127931  25.1646881  48.5100555  33.0913544  85.7289810
  48.7597885  33.6347084  84.9815674  48.5793190  32.1930275  85.4057999
  44.8820267  50.6559563  53.9172173  44.1735191  51.2863045  53.7871819
  44.6569633  50.2074318  54.7323265  57.2176743  14.0721483  77.7892151
  56.3703537  14.2809887  78.1824951  57.0802994  14.1876020  76.8489914
  53.0529747  61.7989922   2.6583481  53.0684166  62.5261459   2.0360625
  53.7804680  61.9780846   3.2540936  45.2674217  55.8142242  10.2960901
  46.0119133  55.7544594  10.8947458  45.3567772  56.6754417   9.8879852
  80.1496277  27.2392597  23.2525558  80.9725037  27.0363998  22.8076324
  79.4941559  26.7118454  22.7960243  72.4418259  13.7013483  49.8462372
  71.6386337  13.7361507  49.3267059  72.3507233  14.4162083  50.4762421
  74.2233124  49.2658920  18.6932945  74.3529205  50.1358414  18.3156395
  74.3580551  48.6643829  17.9609928   2.9802501  11.6990395  64.2082901
   3.5378852  12.4369345  64.4548416   2.6584918  11.3533182  65.0408630
   3.0404010  40.9737930  88.1020584   2.6912851  41.7458649  88.5473175
   2.3719468  40.3007393  88.2301178  44.2585068   9.1567049  18.9131851
  44.4224281   9.8154278  19.5880527  43.9440117   8.3923330  19.3959465
  63.4672394  13.1372786   5.5322762  63.2287636  12.7153692   6.3577180
  64.3373337  12.7933378   5.3301110  75.8615189  19.9897041  76.2306976
  75.8800659  19.5389271  77.0749054  76.1120224  20.8907299  76.4347382
  42.6905785   4.2813993  84.6354370  41.7479820   4.2677879  84.8014450
  43.0876961   4.2068686  85.5031815  43.9647217  38.4655838  48.1062469
  44.3628311  39.3105240  47.8969154  44.4354744  38.1650352  48.8836098
  74.8135834   8.3690805  66.9275970  75.0401840   9.2885952  66.7883987
  73.8566208   8.3583841  66.9460831  52.7235031   3.0838211  38.2334671
  53.6164246   3.4283564  38.2484055  52.2321815   3.6666422  38.8123932
  41.0981941  50.6133766  27.2167645  40.7272797  51.4080124  27.6004448
  40.6359291  49.8981094  27.6537247  59.3207664  39.5340157  48.2173767
  59.5427589  40.4530411  48.3668480  59.6299744  39.3542709  47.3295059
  61.0109329  39.7361717  73.0434799  60.9744568  40.1923714  73.8841782
  60.0951767  39.5638351  72.8245621  75.7482986  62.5963364  67.6016312
  76.2003555  61.8154449  67.2821198  75.0409698  62.2562523  68.1495895
  10.1145267  33.0194817  29.5383778  10.6116505  33.4084549  28.8187943
   9.8932076  32.1410294  29.2292290  54.0662003  25.8149719  79.7697220
  53.2066841  26.2361603  79.7615509  53.8832855  24.8937969  79.5847626
  63.2964554  31.1341972   7.0961256  63.9112701  30.5218849   7.5002370
  63.8437195  31.8596859   6.7954602  66.2572479  38.6705704  55.9713631
  65.5958939  38.9364471  56.6102333  66.6626358  37.8932571  56.3556480
  40.5918655  68.6438446  72.4260941  40.2429237  69.4425583  72.0304642
  40.9411621  68.9278336  73.2708282  82.5394592  30.4413109  46.5417862
  82.3396225  29.5254745  46.3480339  83.0487442  30.7399139  45.7883263
   2.8830936  44.1118126  26.5665226   3.2008560  44.2686691  25.6773357
   3.5273845  44.5401154  27.1301537  20.8408337   3.4563060  72.2144165
  20.7831860   4.0530519  71.4682236  19.9586639   3.0950172  72.3008804
  58.4685822  42.5650787  79.5246964  57.9851265  41.8202858  79.8821793
  57.9216805  42.8831215  78.8063812  12.4809694   9.9190378  29.1249199
  12.3755922  10.8692532  29.1720085  13.4240856   9.7871513  29.0281277
  63.1602249  50.2131805  32.0036392  63.9285049  50.7492790  31.8072414
  63.1069298  50.2120361  32.9593544  85.8231049  23.1910400  62.6499863
  84.9555664  23.4545708  62.9568443  85.6831970  22.9153671  61.7440796
  76.2704468  21.0329609  38.9978333  75.9731979  21.7405834  39.5697975
  76.4475479  21.4605942  38.1599808  12.2984686  59.6114464   7.0120206
  12.9140186  59.9351044   7.6697249  11.5753479  59.2446365   7.5207253
  46.1213303  51.0253296  57.3770790  46.9220276  51.5188103  57.1993408
  45.9646912  51.1519432  58.3128471  34.7204514  61.6529503   8.3872433
  35.5487328  62.1095390   8.2399092  34.9624023  60.7282104   8.4377174
  72.0792007  57.0374641  88.8225479  72.7526245  57.7107315  88.9197235
  72.0848923  56.8260040  87.8890152  10.7079363   1.7864935  67.1181641
  10.1182756   1.3558397  66.4992447  10.1267843   2.2655807  67.7089005
   3.7829125  28.1910591  41.0602226   4.5996580  28.5405121  41.4166489
   3.1098621  28.4790955  41.6768799  13.3640909  44.9030113   3.6778810
  14.0393934  45.0513420   3.0159161  13.6155643  44.0796318   4.0962572
  17.8805771  65.4658508  53.0949059  18.1371784  66.3170700  52.7402039
  18.7060738  64.9945374  53.2073746  32.8503380  40.6678734  25.8749924
  33.5489235  41.3220406  25.8914452  32.5326805  40.6339455  26.7773094
  73.7128754  56.0772820  60.7717056  74.5462646  56.1714439  61.2330360
  73.9083633  55.4901352  60.0414467  67.8038483  10.6306782  20.4726295
  66.9160156  10.8534765  20.1927204  68.3087692  10.5932055  19.6603012
  14.2107716  16.6323872  18.4168301  13.9325914  16.3273926  17.5532169
  14.8015633  15.9490004  18.7333412  66.0416107  63.6611977  58.2366524
  66.3762970  63.6647034  59.1334229  65.3409882  64.3133926  58.2399330
  79.5459442  70.0865707  23.8233948  79.1978607  70.5905457  23.0878181
  80.2106934  69.5197601  23.4321537  55.2322006  52.9174118  78.9512405
  54.3271790  52.8709145  78.6430130  55.3384247  53.8216362  79.2467499
  22.7147198   6.2327657  68.0715561  22.6327400   5.9440098  67.1626358
  23.6397629   6.4588761  68.1685181   9.6079950  48.2712746  28.0017109
  10.3514128  47.7039375  27.7975254   9.5677586  48.8862419  27.2693005
  29.2850342  55.4041328  46.8203430  30.0637264  55.2616043  46.2822418
  29.3457680  54.7426224  47.5095062  44.7578545  40.4965172  10.3752623
  44.3943863  41.3377304  10.6518183  44.1376686  39.8470688  10.7066517
  57.7523499  39.3177299  68.0055466  58.4316139  39.5883865  67.3878326
  58.0844383  38.5043449  68.3854828  47.0695496  14.7539158  69.4663239
  47.8201408  14.4646320  69.9851303  47.3869209  14.7503633  68.5632782
  72.3470917  56.5456009  67.2349091  73.1207123  57.0582161  67.4693527
  72.6979904  55.7114220  66.9230652  83.1454697  32.0686226  48.7116165
  82.6415176  31.6549244  49.4124146  82.9678116  31.5313835  47.9395752
  85.8893967  23.5276623  34.6148605  85.0991211  23.5322952  35.1549301
  86.1183701  22.6018333  34.5333557  77.5073090  25.3301640  26.1036434
  77.8090057  26.2358589  26.0334702  76.8710480  25.2340717  25.3950024
   4.3897491  37.6025734  21.4346085   3.7689903  38.0651207  21.9975815
   4.0442195  37.7202072  20.5497322   1.8328671  62.7161674  41.0841904
   1.4935499  63.5080528  40.6670380   1.1514471  62.0593262  40.9411621
  76.8323746  31.6567917  39.5606499  77.5733032  31.3224258  39.0552254
  76.3071671  32.1413307  38.9237747  49.4416008   4.4721646  39.9182167
  50.2865181   4.1753359  40.2562027  49.6656075   5.0721331  39.2068176
  56.3985634  61.4371109   2.0784185  56.3174171  60.6202698   2.5707822
  56.1898766  62.1216660   2.7140808  27.5726013  45.5278893  89.0041656
  26.9162560  46.1424294  89.3324738  27.2026119  45.1968765  88.1857758
  11.4639759  50.5424614  36.6349602  11.8812580  50.1446228  37.3990479
  11.9028502  50.1398506  35.8856087  59.4934273  40.9859314  75.5169830
  58.8564720  41.2107811  74.8387756  58.9636765  40.8132019  76.2952881
  27.1474171  42.7079430  25.7688541  27.8675385  42.3216591  26.2672939
  27.2951336  42.4160728  24.8692856  46.2326164  40.1832161  42.6850281
  47.0299683  40.0407486  42.1749611  46.1897430  39.4323883  43.2771873
  49.7853470  30.6259270  11.9444132  50.7235298  30.4745903  11.8297720
  49.5298767  30.0261555  12.6452990  18.7431641  41.4588928  64.0810852
  18.9137764  40.6877060  64.6218185  19.3981819  42.0979309  64.3618164
   0.9965113  49.1453781  88.5258255   0.8456331  49.0878716  89.4693069
   1.2978946  50.0430298  88.3857422  40.7523079  51.4507141  10.9546642
  41.4837990  51.6988564  11.5199709  41.1578369  50.9602776  10.2396460
  17.8119621   3.8990781  69.4920273  17.0819912   4.2719960  69.9863052
  17.4958057   3.8619201  68.5893173  28.2093639  48.7486496   0.9086031
  27.6032944  48.5925674   1.6328617  29.0721760  48.5467033   1.2705481
   7.9859009  15.5836000  13.6566830   7.1312423  15.7849512  14.0377989
   8.3937359  16.4384079  13.5180988  57.8423347   9.5486155  85.1266022
  58.6611938   9.8858328  85.4899063  57.5673065  10.2150030  84.4969101
  75.5242691  33.8956795  55.9687729  75.0473862  33.2859993  55.4056511
  75.1088104  34.7432823  55.8100510  85.0386887  17.1834679  82.7346268
  85.9586029  16.9374218  82.8318558  85.0394821  17.8447247  82.0425491
  62.0678940  69.3570862  49.5458870  62.9158783  69.1003876  49.9081879
  61.9937782  68.8576279  48.7326965  35.8694839  52.1910782  80.6641846
  35.6985893  51.2564926  80.7807083  36.6754036  52.2247658  80.1488342
  31.0654221  47.0747604  68.7580719  31.7494736  47.6670113  68.4457550
  31.4221611  46.1986084  68.6120224  81.6250992  24.5138683  24.8716660
  80.9963379  24.4027462  24.1585407  81.1552429  24.2220631  25.6528931
  68.6553268   9.1443739  17.6825867  68.1949463   9.9803839  17.7558727
  67.9600143   8.4865627  17.6903534  48.0432434   3.7747414  42.1399879
  47.2446556   3.3006268  41.9082375  48.5256691   3.8482301  41.3165245
  52.7267876  30.6809502   9.6442814  53.2876854  31.1973572  10.2230301
  52.3537102  31.3212337   9.0384064  54.1204605  22.2925568  36.2226143
  54.2429352  21.4050789  35.8855438  54.7478523  22.3642521  36.9419670
  72.9559479  49.9745445   8.3982620  73.0777512  50.4953690   9.1920757
  72.5157471  50.5666885   7.7884903  64.2802429   0.6815192  52.2945633
  63.5601883   1.2521411  52.5631523  64.4625778   0.9356503  51.3899078
  26.8223553  51.1439171  12.5141439  27.7272911  51.1551361  12.8259058
  26.3635921  51.7571640  13.0883341  52.9128952  15.4207926  36.0459328
  53.4283485  15.4413462  36.8522339  52.8199120  14.4895983  35.8447762
   7.5600595  34.4154587  12.2554932   8.0371828  35.2285728  12.0898657
   8.2107038  33.7253914  12.1262627  11.4516983  58.7430382  72.4268570
  12.2708960  58.6862526  72.9187088  11.4623775  59.6203804  72.0442505
  64.7202148  18.6693058  73.8135223  64.5227432  18.9515629  74.7065887
  64.5924988  17.7207813  73.8283539  70.1066971   4.8359885  83.3950653
  70.7379684   5.5122647  83.6407928  70.3509140   4.5935779  82.5018539
  67.6454391  31.0190697  10.8058004  67.6998825  30.6664009   9.9176044
  68.4785385  30.7778606  11.2107582  79.4339142  54.1883659  31.3105927
  79.9129105  53.4076691  31.5886478  79.5887604  54.2411270  30.3674755
   8.4509954  12.5642567  48.7233238   7.6793351  12.0260954  48.8998299
   8.9923515  12.0249529  48.1468544  74.6959839   1.8494576  56.7707901
  74.0703049   2.1862159  57.4121552  74.6381378   2.4603462  56.0361481
  17.6612778  49.7647362  37.5010071  17.0639801  50.2655449  36.9454384
  17.0931530  49.1630440  37.9820786  62.2952194  29.9408607  43.7587204
  61.5747948  30.1601810  44.3495865  61.8698006  29.5395050  43.0009880
   9.8378429  32.1923943  74.9760284   9.0324926  31.6757793  74.9485931
  10.3481007  31.8030262  75.6861420  22.4094944  57.4043388  44.7769203
  21.9429379  57.6341743  45.5804977  23.3198204  57.2943993  45.0516014
  41.4738541   9.1634293   6.7480259  41.8756676   8.2953949   6.7120385
  40.6343842   9.0575085   6.3004718  24.4910927  17.8731594  60.1090660
  23.6703091  18.3118362  60.3329124  24.5626659  17.9690666  59.1593742
  86.0736694  35.6405792  82.6586456  86.2378311  34.8203926  83.1240234
  85.2238235  35.5111313  82.2376480  35.9547501  52.0692596  60.9695702
  36.0910835  52.7955093  61.5780144  35.0042610  52.0153389  60.8701057
  56.7569199  44.0266800  72.2201080  55.8241501  43.8151550  72.1822586
  56.7822914  44.9661026  72.4019547  40.2635498  69.2811050  38.7259293
  40.4367104  69.9541016  38.0676575  40.9938698  69.3535843  39.3404274
  14.4060183  50.3719444  68.0022202  14.9075680  49.6992455  67.5416107
  13.5869532  50.4381943  67.5113220  17.1626911  68.3269882  10.8434439
  17.8603153  68.9545670  10.6545057  17.5803661  67.4703979  10.7538061
  54.5419846  38.7150040  79.5712967  53.5959587  38.7886658  79.6971588
  54.9052467  38.7564468  80.4559174  65.1903229  65.6706314  36.3622742
  65.2392273  64.9172668  35.7738152  64.6144714  65.3839035  37.0710869
  80.7914124  44.4918594  22.9741917  81.0288467  45.0634842  22.2440510
  81.1672440  43.6418953  22.7449665  63.4647102  30.9236107  75.5733566
  63.9303551  31.1555405  76.3768539  64.1028290  30.4262962  75.0617752
  72.1921844  49.8426132  86.0743408  72.4131317  49.5241127  85.1991425
  72.8748779  49.4817429  86.6399689  63.4602623   0.7589507  78.3744965
  62.9863091   0.3803978  77.6340179  63.1054955   1.6439794  78.4587250
  19.2898064  53.7963600   2.4854898  19.2353039  54.6184502   1.9982264
  20.2227211  53.6893463   2.6710994   1.2282600  20.6364613  27.1856174
   0.5626630  20.3647499  27.8175869   1.0823772  21.5757580  27.0730457
  73.8787918  62.1133308  27.4423943  73.1114120  61.8317108  27.9404469
  74.1581039  61.3295326  26.9692421  64.7781296  54.7362976  86.5753174
  65.2414932  54.4550819  87.3642654  63.8737259  54.8642693  86.8615112
  44.8230324  50.9464149   9.0318489  44.1363182  50.3006935   9.1982756
  45.0723267  51.2603683   9.9010544  67.4578094  66.9496918  82.4946518
  67.9011078  67.5047760  81.8530884  67.0531921  66.2566986  81.9728546
   5.6688008  52.7780991  12.6817770   5.2780914  53.6372185  12.8414526
   6.2189851  52.6189156  13.4487123   5.4440517  20.9667072  54.2648506
   4.7976136  20.8039780  54.9517784   6.2427316  21.2001057  54.7379951
  79.6354523  46.0449791  48.9117088  79.3536224  45.4409027  49.5986557
  79.9304123  45.4772453  48.1997337  54.0649338  69.8490524  41.2491608
  53.9038887  70.6846619  40.8109131  54.8738251  69.9888000  41.7415009
  56.3115540  59.2671700   3.6179519  55.4474258  59.1789513   4.0201087
  56.9263382  59.0943336   4.3309727   0.2746301  50.2486229  33.5928841
  -0.1549233  50.7964058  32.9358864   1.2076489  50.4339981  33.4863777
  15.3481913   3.4086871  59.9891129  14.6822367   3.9384313  60.4274139
  15.9419756   3.1417792  60.6908340  19.6455250  55.7079849  10.0084715
  20.4397831  55.3001404  10.3535013  19.9609928  56.4582024   9.5046005
  30.2640133  68.7470932  62.6997147  29.6576271  69.3177185  63.1718483
  30.8403473  69.3482285  62.2278023  10.9345379  18.9287891  70.1670990
  10.0549726  19.1112709  69.8364944  11.1111097  18.0285587  69.8938980
  77.9266663  66.3993454  63.5273705  78.4265213  66.8512802  64.2071762
  78.4873581  66.4374619  62.7525139  11.1202097  58.6069603  47.8013535
  11.9080067  58.1739998  48.1302223  10.9647951  59.3222237  48.4181786
  18.0175419  51.0575981  65.3079987  18.6833344  50.8754921  64.6448288
  17.1853981  50.9061661  64.8598480  33.5882149   0.8533378  83.3820343
  33.0214081   1.5658110  83.0864944  33.0885315   0.4214193  84.0748520
  78.6548157  43.7160225  88.1210403  78.0928192  43.9114876  88.8708267
  78.0452423  43.5298462  87.4068985  11.6743011  13.6154757   4.3224735
  12.3276157  13.2595205   4.9247260  12.0468712  14.4469452   4.0290766
  31.5740967  25.9408131  44.9751472  31.4717216  25.3152332  44.2579269
  30.9514084  26.6394844  44.7742767  17.7812786  -0.0207942  63.6320076
  17.1019421   0.0951620  62.9677162  18.5922470   0.2347632  63.1924057
  70.0023727  66.0476379  52.9895477  69.8240204  66.9201431  53.3404884
  69.3272247  65.9144821  52.3242111  71.8228912   1.5742247  34.7229729
  71.0885391   1.0255895  34.4473724  71.7173157   1.6573445  35.6706924
  75.9631195  28.4765434  85.5336609  75.2285233  28.7053986  84.9642487
  75.5569839  28.0537395  86.2903137  81.4407272  67.7016907  55.0642738
  81.5073929  67.8140488  54.1160316  80.5969162  67.2692490  55.1954803
   5.2439680  11.6780548   2.0623336   5.8990340  12.2072659   1.6072997
   5.6997666  11.3454971   2.8355637  80.2605209  28.5070992  28.6851883
  80.8522873  29.1127377  29.1315575  80.4900818  28.5866261  27.7593327
  69.3921738  35.4301949  60.3069763  68.5269089  35.8001137  60.1316986
  69.6514893  35.8139267  61.1446724  84.0182571  12.3763876  33.6475830
  84.8256149  12.0771570  33.2294159  83.3665771  11.7169409  33.4095192
  31.2370014   1.6565179  31.5844421  30.6883354   0.8889663  31.7458763
  31.7045536   1.7942560  32.4082451  42.2681389   2.7530348  63.8368492
  42.4121437   1.9178886  63.3918495  43.0046654   2.8314812  64.4431610
  78.6516037   1.0797638  29.3492775  77.8327179   0.6804112  29.6428318
  78.3964920   1.9483446  29.0382805  49.3271942  67.3495712  81.6169586
  48.6896858  66.6854095  81.8790665  48.7957726  68.1004791  81.3524475
  28.2835369  70.3282623  33.9789085  28.0894585  71.0798798  34.5389328
  29.0516911  70.5970459  33.4749947  54.3038139   0.9459030  73.2947845
  53.6123543   1.6048650  73.3570786  54.8909569   1.2782769  72.6157990
  81.2478256  51.1927147  69.2194366  80.4956131  50.8406258  68.7435760
  81.9966888  50.7024384  68.8802185  53.9811134   6.7246757  32.7718697
  53.4224014   6.2891121  32.1281624  53.6780701   6.3915071  33.6164932
  82.5300369  41.6638069  70.9565201  81.7416763  41.1722717  70.7260513
  83.2435379  41.0340691  70.8536835  35.1482353  41.2613144   3.1113865
  35.7655830  40.5441895   2.9670110  35.6685371  42.0545807   2.9839113
  46.7466431  23.2482204  80.3938751  47.4063072  23.0416183  79.7317657
  45.9463196  22.8331356  80.0722885  18.7806034  66.7781143  43.8914223
  18.0756855  66.2105713  43.5796242  18.4760933  67.0926361  44.7426453
  73.7587814  63.5554390  11.4591265  73.8177719  64.3647003  11.9669189
  73.3942566  62.9152336  12.0702667  80.7574921  44.2067490  47.1700325
  81.3875961  43.8749733  47.8096657  81.1207809  43.9523468  46.3217773
  66.3232193  30.1084061  42.8538933  66.1419449  29.2070942  43.1203690
  65.6053467  30.6181736  43.2294235  75.1385193  31.5909557  74.4031372
  75.0385437  30.9980640  75.1479263  75.4309845  32.4156837  74.7911072
  12.4306698  35.2008209  37.6346359  12.9919081  35.1444016  36.8612900
  12.0594397  36.0823135  37.5973663  66.5489883   6.6376276  67.6502686
  66.5276031   7.3603339  68.2775345  65.9732285   6.9201136  66.9396820
  31.0032959  37.5638504   1.6998818  30.9718170  38.2255516   2.3908160
  31.0548611  38.0678444   0.8877470  55.9067039  10.0007114  12.9035702
  55.7314377  10.9114799  12.6668978  55.0479660   9.5783682  12.8829231
  24.2602272  67.8764267  78.1891937  25.0184250  68.4594498  78.1511002
  23.5295868  68.4133224  77.8823700  71.6777573  12.1669102  11.1228237
  71.8787689  11.2774763  11.4139118  72.2409439  12.7268333  11.6571817
   1.3798746  34.9176216  13.6136913   1.4307736  34.1885681  12.9955292
   0.7537312  35.5239029  13.2179689  62.7986603  39.4256897  13.2222805
  62.2577858  38.6832466  13.4914722  63.6104546  39.3231773  13.7189817
  77.7371216   8.8680305  55.2604027  78.3535080   9.1264400  55.9456177
  77.8008270   7.9134865  55.2284889  58.4614677  51.9549942  16.4948082
  58.3135681  52.8689308  16.2517414  59.3554916  51.9396858  16.8364468
  84.0025024  17.8241920   7.9733386  84.7201691  17.2595119   8.2602587
  83.2379990  17.5007172   8.4499187  70.1680603  46.6569481  13.9010544
  69.6253357  46.9484596  14.6336546  69.5999451  46.0716743  13.4001284
  59.6105995  11.3960276  44.7665939  59.8593597  12.0201101  45.4484100
  60.1565781  11.6308069  44.0162468  22.9771023  56.9694862  59.0954590
  23.8142262  57.4278717  59.1685295  22.3276310  57.6681213  59.0158882
  40.2452965  16.4668941  71.9054489  41.1589050  16.2796288  72.1210556
  40.2628670  16.7116795  70.9802475  13.1218605  67.0032578  74.7664490
  13.2430668  66.5360718  73.9398422  12.2419634  66.7585831  75.0530624
   2.2069376  56.4866753  79.2177200   1.7058740  56.7341309  78.4405899
   2.3302863  57.3074379  79.6945496   9.7944489  53.6689034   6.4493952
   9.0224476  53.1536636   6.6834321   9.8130903  54.3779106   7.0921969
  60.8407021  70.7127991  34.0098419  61.0939789  70.3376007  33.1664505
  61.2905960  71.5570984  34.0411797  49.7605286  11.8088140  72.0548935
  49.2710648  12.5651045  71.7313461  50.6579170  11.9593639  71.7578125
  50.7728043  68.7265320  18.5481606  50.6994400  69.3901520  19.2340603
  50.2014961  68.0161667  18.8400917  62.2252235   9.9896708  24.5420055
  63.0396500   9.5487862  24.7840042  62.4101944  10.9203749  24.6677303
  13.7495279  49.2414322  62.7698250  12.9985247  49.4721489  62.2230186
  13.3652153  48.8246040  63.5410538  58.3544159  63.7754631   6.1833663
  59.2728043  63.9919662   6.0223751  58.3855515  62.9829178   6.7192154
  73.2532349  23.3375645  10.9108133  72.5650787  23.2025318  11.5623026
  73.8564529  22.6064873  11.0445490  32.2745552   8.2699642  43.9768791
  32.9874992   8.8431578  44.2586479  32.2082176   8.4163599  43.0332680
  21.2622032  25.8427315  57.0610809  21.7744465  26.1378345  57.8139114
  20.8344269  26.6353035  56.7369347  76.2167358  12.9705896   6.6177430
  75.7703705  12.2096109   6.9891028  76.1557541  12.8454762   5.6707163
  75.3272934   4.0224705   1.6544061  74.6222000   3.4804177   2.0083270
  76.0729599   3.4269185   1.5800391  52.2251854  17.2828712  46.2205658
  51.6305008  16.5932846  45.9255180  51.6897926  17.8319683  46.7933502
  65.7344208  34.8398819  84.3612289  66.3381500  34.2671890  83.8881989
  65.9549408  34.7107468  85.2836838  10.4406118   9.8247252  85.7013016
   9.7103481  10.4416704  85.6530762  10.0724392   8.9938307  85.4008102
  29.8137074  53.5852165  35.5766106  30.4897709  54.1424904  35.9621201
  29.8691692  53.7568474  34.6365547  37.3485336  34.1963882  12.8381367
  38.2732658  34.4398956  12.7956619  36.9329529  34.9159546  13.3132677
  17.7149525  69.8941193  75.4799652  18.0553265  69.2990036  76.1479568
  16.9333763  69.4553146  75.1440735  40.5156250  64.2820435  53.8287010
  40.2202911  64.5355682  52.9542084  40.3641930  65.0587921  54.3671875
  15.9608736  69.6815948  49.0580139  15.2586679  69.2213745  48.5983009
  15.5148296  70.3759766  49.5429001   4.3084130  11.6958904  22.5237656
   4.4768271  10.8875628  23.0079899   4.4402370  11.4573126  21.6061954
  11.3404598  18.4018917  80.4283829  10.9736004  18.9590874  79.7419586
  12.1224260  18.8685780  80.7232819  64.0116425  20.4322300  69.5928040
  64.1838913  20.3347893  68.6562881  63.6745911  19.5785065  69.8644409
  19.1250324  14.5424128  24.5412178  19.7432499  13.9137230  24.9137611
  19.6243477  14.9954348  23.8617420  60.3598976  47.0926361  43.5799713
  60.1923790  46.8779030  42.6623344  61.3124924  47.1655998  43.6388359
  68.8436508  50.3791161  25.8171215  69.3595581  49.6369667  25.5020313
  69.3931656  50.7855072  26.4872780   7.8355889  50.9397163  21.1324577
   7.7894130  51.8780518  20.9490795   6.9416394  50.6251030  20.9979038
  25.0803776  63.9387093  56.9278450  25.5238514  64.2572021  57.7140541
  25.1733208  62.9869385  56.9693871   8.8085613  60.8943329  18.0585060
   8.1448774  60.2431679  18.2859631   9.6325903  60.4072990  18.0606709
   0.9836538  64.1513672   3.1042829   1.4853053  64.5078506   3.8374238
   1.1577517  64.7525940   2.3801000  61.2020798  17.7806625   0.5471972
  61.7933922  17.3953629  -0.0994256  60.3253517  17.5838852   0.2172612
  26.9891911  47.0891533   2.9893842  26.3024540  47.6139183   3.4007838
  26.7485123  46.1836700   3.1853495  76.8756943   0.7578089  67.4193802
  76.9739380   1.5823659  66.9432602  77.5671616   0.1956396  67.0699921
  49.0978394  49.9927101  60.0580406  48.6603928  50.6606827  59.5301285
  48.6886444  49.1698647  59.7902336  69.8435516   6.6914926  50.3307686
  69.0554123   6.7560973  49.7914276  70.5648193   6.8430600  49.7200050
  46.9619331  11.8125372  62.1678886  46.9855003  12.2166576  63.0352783
  46.1044617  11.3893995  62.1240196  26.3517628   4.8112583  75.5825577
  26.4031525   5.4796581  76.2658081  26.5312157   5.2847891  74.7702789
  83.5855942   1.5935816  34.0449753  84.5382996   1.6670779  34.1014175
  83.4215393   1.2852844  33.1537552  42.2079659  60.9849777  78.1873322
  41.6197281  60.6421471  77.5145187  41.6547089  61.0818825  78.9624100
  76.5358505  21.9125595  30.0665798  76.2043839  22.2252064  29.2247887
  76.4470520  20.9606094  30.0203342  71.4260559   1.5340983  71.9493484
  71.1432877   2.3661664  71.5699615  71.7873764   1.0444571  71.2104797
  68.0724258  56.5386581  78.9862595  67.2005844  56.4654198  78.5979767
  68.1675110  55.7450294  79.5128937  71.5978470  63.3596001  73.1530991
  71.9790268  64.2237549  73.3085480  72.2841873  62.7448883  73.4125214
  83.5425873  42.2575302  39.5233269  83.9619751  41.6221695  40.1035576
  83.9179840  43.0999947  39.7793884  75.9955215  28.2710037   6.4398570
  76.5858383  27.9053135   5.7810464  75.4317474  27.5387230   6.6891642
  23.0354195   2.6685190  15.0941982  22.1265068   2.9686937  15.0966759
  23.2820320   2.6438622  16.0187550  40.3571930  68.0423737  56.3908768
  40.4756851  68.8887177  56.8220367  40.7636147  68.1525040  55.5312691
   7.8103700  54.0488358  53.4127121   7.2387533  54.8165016  53.3995895
   7.6542339  53.6195488  52.5715408  55.3746681  11.3099356  50.7191238
  56.1472702  11.8709793  50.7865257  54.7298546  11.7200146  51.2955666
  31.8804970  64.7011490  26.7684956  30.9390411  64.6436920  26.6054230
  32.0232048  65.6108246  27.0299511  69.1960678  70.3041840  51.5485573
  68.7141418  70.7601852  50.8586006  70.0778656  70.6745300  51.5096703
  62.7909851  48.7781258   9.1577616  62.8601494  47.8624802   9.4280148
  62.1889877  48.7634277   8.4137077  76.1628723  20.5144787  60.3724365
  75.9958954  19.8652153  61.0556717  75.4082642  20.4461327  59.7875214
   8.0345821  16.3330688  79.5287018   8.4027424  16.9889317  80.1207581
   7.8264704  16.8200932  78.7313766  22.3308506  62.3570786   5.7693272
  22.2740688  62.8363075   4.9426775  21.4203873  62.1847038   6.0092721
  27.1304855  58.7538338  80.1983643  26.7469425  57.9399757  79.8716202
  27.3040638  58.5821457  81.1239014  53.7588768  37.7002792  65.5510941
  53.3436127  37.1307411  66.1987152  53.3205070  37.4860382  64.7275848
   0.5733218  24.4898510  87.2666702   0.7673422  25.4185257  87.1395798
  -0.1519475  24.3125343  86.6676941  78.6951981  56.2179337   9.1742458
  79.5109482  56.7049141   9.0574770  78.6556396  56.0386848  10.1136799
  72.7006760  24.9539547  33.1207581  72.6263580  24.8342781  34.0675354
  73.0529175  25.8380375  33.0180092  22.7038097  67.0352249  57.3505096
  22.9407082  66.2947388  56.7921295  23.4510307  67.6302948  57.2889671
  83.4344482  68.2495575  45.8156319  83.0790329  68.2124252  44.9276352
  82.7572327  67.8500748  46.3615608  60.0686607  56.4684067  11.5635328
  60.7868195  55.8719521  11.3520555  60.4981728  57.2362213  11.9406385
  69.0419006  19.2997189  26.9545479  69.8106461  19.6222916  26.4842167
  69.0980377  18.3470497  26.8803711  46.6145439  43.4445686  23.4400616
  47.2482986  43.6551819  22.7543278  46.6664505  42.4930305  23.5301094
  64.9682159  43.7302742  35.0452614  64.7112198  44.6497955  35.1135712
  64.1916580  43.2895279  34.7003899  80.0052032  14.3542299   2.4984710
  80.3183365  14.1948977   1.6080836  79.3651199  15.0597172   2.4046011
  12.3415194  69.2075500  85.7442474  12.2378702  68.5740738  85.0341797
  13.1293354  68.9219818  86.2068863  75.1734848   6.2380209  42.7491722
  76.0508652   6.0713854  42.4046860  74.6473618   5.5052023  42.4291687
   1.6281663  71.5168915  14.5032606   2.2502770  70.8849640  14.8636494
   0.7682065  71.1561966  14.7191238  47.0585175  61.8467712  34.6789207
  47.0986519  61.4470139  33.8101196  47.1316109  61.1097527  35.2852974
  75.8456726  10.6157446  25.2821598  75.1742630   9.9493036  25.4280891
  75.3812943  11.3331966  24.8510609  60.6453362  55.6580887  50.2684746
  60.3042221  55.0748291  50.9464722  60.9270020  55.0709381  49.5669403
  63.0247688   5.8582802   5.2282677  63.2358665   6.0072060   4.3065901
  62.8017731   4.9286275   5.2757215  46.1130371  67.7847137  77.0886765
  46.3406258  68.7127228  77.0317154  46.6797409  67.3591919  76.4452438
  45.2711143  50.4052620  65.2074051  46.0992393  50.4346886  65.6865463
  45.2009239  51.2673035  64.7972946   5.0000129  17.0638428  82.1658478
   5.4864025  16.2411747  82.2194595   5.6422482  17.7019863  81.8551483
  20.3863888  61.7734375  78.9421692  19.7005310  61.8163033  78.2758408
  20.3546429  62.6271896  79.3738327  40.1873970  52.7760124  25.2935734
  39.9808846  51.9111443  25.6479588  39.3498917  53.1089592  24.9711437
  29.2104912  44.7715340  39.2251740  29.7128677  45.0131493  40.0032921
  28.4259624  45.3183174  39.2672691  70.5441666  21.2237015   8.0974264
  69.6361160  20.9209061   8.0955734  71.0198517  20.5513325   8.5851479
  72.4056778  64.0639954  45.1639938  72.1747437  64.1802216  46.0856171
  71.8276062  64.6653900  44.6945419  65.1352158  38.5034332  32.1855507
  65.5321198  37.9199791  32.8323021  64.2036209  38.2843857  32.2051697
  85.6588058   5.8578634  86.7870407  86.0278854   6.5055604  86.1866226
  86.3663559   5.2279830  86.9243393  76.2530975  23.5684643  32.4115677
  76.9129562  24.2466526  32.2670708  76.4758606  22.8801403  31.7848110
  34.7721367   9.5106411  17.5326748  35.2574654   9.1676216  16.7823238
  35.2909431  10.2570601  17.8325558  73.5424271  45.9081573   2.6332295
  72.9725723  45.8592072   1.8657006  72.9904785  46.2866287   3.3175874
  63.0480156  42.0585785  41.7195015  63.1125069  41.2356186  41.2349281
  63.9256859  42.4369354  41.6668625   7.1820431  66.0928192  21.0361748
   7.7008724  65.4294357  21.4911137   7.1721554  66.8404999  21.6337662
  77.6242065  15.8295336   5.0927896  76.7505035  15.6351557   5.4320526
  78.2032242  15.2317495   5.5656767  37.2174911  15.3334856   1.2913238
  36.9044762  15.2938423   2.1950271  36.6388550  15.9656315   0.8649408
  15.4520483  63.4535103  24.2184582  15.2436838  62.7554665  23.5975323
  14.9229937  64.1969986  23.9293919  18.3658371  34.0980148  15.0196400
  19.0922661  34.4420509  14.4998598  17.7119560  34.7969894  15.0095129
  10.0038786  35.0833664   7.0936508  10.0959606  34.8205223   8.0094385
   9.1909113  34.6680489   6.8058515  34.6033974  37.3736191  14.5732689
  33.8174400  37.8841362  14.3786488  34.4378204  36.9995346  15.4386444
  44.5487976  65.8607330  81.3463058  44.3850441  65.3846664  80.5321960
  45.4925194  65.7806549  81.4849167  14.3238621  70.7492599  67.3695679
  14.0084124  71.2180099  66.5969086  15.2335577  71.0310669  67.4658508
  31.9716244  57.7286682  73.4962540  32.9155464  57.8755569  73.5568390
  31.5910931  58.3623772  74.1043930  61.9412041  63.5383492  48.5072212
  61.8837738  62.6153793  48.7543221  61.3109245  63.6348305  47.7933121
  16.5564365  42.1845779  29.1187439  15.9522657  42.0302505  28.3925266
  17.4216347  41.9978714  28.7543182  44.9077682  62.2486191  77.9700089
  44.1695709  61.6522713  77.8448334  45.6577530  61.6731415  78.1202698
  25.4053307  64.6556854  66.4225922  24.6711540  64.9259949  65.8710938
  25.2542171  65.0996246  67.2570496  61.8790512  11.6970558  42.6781769
  61.9921265  11.6296930  41.7300682  62.3489647  10.9408779  43.0297546
  52.7396889  11.7333193  71.1300049  53.5880013  11.3299398  70.9459381
  52.3648338  11.9073095  70.2666092   6.0423584   2.7913563   5.9835134
   6.9752264   2.7337139   6.1900716   5.6089740   2.3316371   6.7025876
  28.5638447  69.5645065  70.1471939  29.3211575  69.0941544  69.7986526
  28.4135685  70.2734070  69.5218048  35.3233528  67.1550217   1.0000367
  35.7844658  66.3440170   0.7858275  34.6457291  66.8883438   1.6212775
  45.3883667  52.7447853  69.3880463  45.1870689  51.8331146  69.1769333
  46.0721893  52.9896355  68.7646179  80.0772934  33.4356689  77.3772812
  79.7882462  32.5274811  77.2884979  79.4798965  33.9328575  76.8185730
  46.7337990  53.5515594  22.5992908  46.4079933  53.0718880  23.3608685
  47.5787430  53.9024162  22.8807106  64.1791000  66.9092102  60.2670403
  63.4676743  66.5428009  60.7922478  64.8318176  67.1881027  60.9092407
  76.9121323  61.8917236  21.5496979  77.1902771  62.5116653  22.2238960
  76.1132355  62.2745819  21.1871910  77.2875519  68.5039597  70.6717911
  76.6994247  69.1750031  71.0182648  78.1621628  68.8823547  70.7618561
  53.2899704  59.2876358  67.8726044  53.9053116  59.6230583  68.5245895
  52.5360374  58.9935684  68.3838196  74.5942612  32.9703674  41.1239815
  75.3343506  32.5537949  40.6824341  73.8384018  32.7583733  40.5762901
   8.6630907  37.1988564  22.7622585   9.2563829  37.0754776  22.0213032
   9.0135117  36.6292725  23.4470997  48.5691986  61.4566040  18.1142178
  47.9022484  60.8265266  18.3869991  49.1572723  60.9539452  17.5505390
  47.8263168  55.9397926  85.9657745  48.4329758  55.7224846  85.2579803
  47.1892662  56.5295677  85.5625839  42.2399902   0.8912939  83.7075119
  41.9747200   1.4598428  84.4304352  41.6252403   1.0968057  83.0031815
  63.3109894  25.7345505   9.2113562  63.4654274  25.7575684  10.1557350
  62.3641434  25.6229553   9.1261539  23.1168671  68.6151657  83.2791443
  22.7225380  68.3943405  84.1229324  24.0506706  68.4419785  83.3985138
  32.5293961  39.6953964  70.2298355  32.9775505  40.3172684  69.6565399
  33.1527328  39.5294952  70.9370499  73.9226913  61.6397438  52.3117104
  74.7231140  62.1548119  52.4130020  73.2830963  62.0782318  52.8728485
  73.3285828   1.0040863  88.2805481  73.3576584   0.2645010  87.6735840
  73.3690720   1.7774090  87.7179031  82.2844086   5.6396747  77.6618652
  82.7224045   5.2829990  78.4346390  81.4145432   5.8895087  77.9735336
  80.1251450  11.2226524  21.6812649  80.9787216  11.5419226  21.3885078
  80.0548325  10.3460321  21.3033447  79.3264694  30.5107384  34.3932495
  79.8547897  31.3086262  34.4151802  79.9362869  29.8130188  34.6331215
  72.1054611  62.9368896  70.2896347  71.9168625  63.0233345  71.2240753
  71.3942795  63.4094353  69.8570328  37.4232559   0.7982013  49.3457527
  36.7068634   0.2948567  48.9588928  36.9897652   1.5166932  49.8062820
   6.9956040  54.8160820   1.1738050   6.4848471  55.6243744   1.2188174
   7.6993198  55.0115776   0.5550986   3.1751816  31.9184380  78.5222015
   2.9633577  31.0094223  78.3099442   3.3299544  31.9140148  79.4667969
  13.8417349  47.3347588  28.5972900  14.5376844  46.7044983  28.4111290
  13.0325460  46.8637962  28.3981991  86.2411194  29.0023193  86.9687195
  85.3717880  28.6336060  86.8120651  86.8399048  28.2665157  86.8411255
   0.3774598  55.6144104  22.4860096  -0.2394850  55.7693939  23.2012672
   0.7388337  54.7463646  22.6652737  27.2014027  57.8871803  24.1715794
  26.3591518  57.6207161  23.8030090  27.7624474  58.0288506  23.4090900
  16.1923561   7.6497808  82.4096298  15.4459906   7.1443529  82.0875854
  15.8258209   8.5073795  82.6250534   9.4928169   3.3680902  32.0899925
   8.8923950   3.1302307  31.3834896   9.1486731   2.9147506  32.8595886
  41.1897774   1.5478661  17.7565155  40.5838890   0.8068467  17.7610359
  41.9042587   1.2695671  17.1835384  10.3059950  68.4623413  61.1826591
  10.7155085  69.2483597  61.5442047   9.6479511  68.7944107  60.5719681
  62.8740692  13.5394764  66.8330383  63.7673531  13.6848192  67.1447372
  62.9823570  13.0683537  66.0068741  55.2395897  58.2913475  80.5624390
  54.8857498  58.0816307  81.4267578  54.7426376  59.0591545  80.2800446
  27.7751904  58.8183861  15.6917114  27.3425827  59.3539352  15.0266781
  28.1038361  59.4500961  16.3313732  19.1681023  47.3297768   7.0249524
  19.3178120  47.0888557   6.1107440  19.7104340  46.7199974   7.5252314
   2.5436015  69.3607635  68.7850800   3.2918103  68.7642365  68.8089371
   2.9290695  70.2322083  68.8758698  66.5658798  22.7729702  28.2465477
  66.4030533  21.8297710  28.2366905  65.6978455  23.1667995  28.1590767
   7.0010686  65.8511429  82.7011337   7.5902858  66.4096222  82.1940308
   6.1535878  66.2938385  82.6560669  84.2775726  53.2769814   7.7210269
  85.0848083  53.6932716   8.0231791  84.4223328  53.1231766   6.7874207
  44.2319298  40.5664062  27.7369690  44.3157654  39.9765549  28.4861546
  44.3632622  40.0041084  26.9735508  55.1496353  14.2822685  37.5643044
  54.9742661  13.8870792  36.7103157  55.2542839  13.5372086  38.1560555
  32.0996208  61.2121925  22.7147903  32.0754623  61.6886978  21.8849754
  32.9088593  60.7025185  22.6748409   1.7816074  58.5220947  13.1866856
   1.7937434  59.1606712  12.4737329   2.4717999  58.8145485  13.7819462
  72.2752991  32.0654869  34.3048210  73.0455933  31.6306725  33.9390182
  72.4640045  32.9998970  34.2182236  34.9772911  14.7389984  11.5128689
  35.1134338  15.6702089  11.3381023  35.4848061  14.5674782  12.3061161
  83.9248123  53.7965660  46.0787048  83.0913849  53.7222672  46.5435905
  84.4824829  54.3059464  46.6667290  56.5801086   2.8738050  56.9602203
  56.8907890   3.6292236  56.4611702  57.3147888   2.6440134  57.5291443
  70.8838577   8.2426357   4.6629720  71.0496979   7.6531811   3.9272583
  70.8256989   7.6651707   5.4241438  50.4282265  51.7756386  70.7262421
  51.0591621  51.6245079  70.0224609  50.2573509  52.7169991  70.6966629
  61.1228867  60.3222313  32.3591805  61.9665451  60.0346451  32.0102272
  60.4753075  59.9319115  31.7722187  14.3203945  38.6440773  80.0851364
  14.0179787  39.5521736  80.0733719  14.9924326  38.6066017  79.4045563
  51.7935982  47.4662132  74.8873291  51.4241104  47.4938889  74.0047531
  52.4029922  48.2038422  74.9151077  80.9289932  20.0802517  40.0201149
  81.7866745  20.1344051  40.4416351  80.9202423  19.2178783  39.6048241
  20.7941895  58.2412109  36.1274681  21.0095253  57.7584724  35.3294563
  20.6219139  57.5617485  36.7793007  75.9512558  68.9882355  86.7048035
  75.6180420  68.2663498  86.1718140  76.3104935  68.5644760  87.4842987
  78.0783310  33.7941971  44.4766693  78.6490555  33.7150154  43.7123146
  77.3385620  33.2181625  44.2839165  68.1869431   3.9711790  36.0955124
  67.4491043   4.5076475  35.8056259  68.9479294   4.3550763  35.6599121
  83.0474777  43.1996918  80.7185059  82.7590942  44.0615120  80.4179535
  83.4254532  42.7889671  79.9409027  24.7207222  49.7528572  42.3434448
  24.0918636  49.0427551  42.4719925  24.5814400  50.0354385  41.4395752
  49.8512077   4.5937719  34.0013237  50.4659691   3.9932318  34.4228134
  49.3656921   4.9873466  34.7263107  84.2217255  32.7739792  64.2231903
  83.3984528  32.5587921  63.7848396  84.8743057  32.7691536  63.5229378
  37.4900284  63.7307320  60.3296127  36.5486221  63.5598335  60.3575211
  37.6004639  64.5442581  60.8217697   6.3998251  59.3973999   3.4062440
   7.2700629  59.7958450   3.4189200   5.7967625  60.1401176   3.3759360
  54.6105499  16.9943810  22.9678631  54.3444481  16.4248829  23.6897316
  53.9610138  16.8330288  22.2835388  23.1612682  11.5033474  74.3357391
  23.6603241  10.7043409  74.5053329  23.4786129  11.8080530  73.4856339
   4.5831432  37.6923523  65.3746338   4.6995559  38.4853630  64.8513565
   3.6714945  37.4402084  65.2278214  47.7972374  17.0501251  86.7797470
  47.4353294  16.8519726  85.9160385  48.5420952  17.6242294  86.6013641
  73.2351074  54.1391983  78.9131851  72.8917923  54.5917816  78.1427765
  73.7744598  53.4337044  78.5559692  29.0197201  27.0765915  23.6064796
  28.6716061  26.3565369  23.0805817  29.9595509  26.9026642  23.6584492
  59.3562012  43.4392891  81.6712570  59.1202965  43.1421738  80.7924423
  58.7753830  44.1818619  81.8369904  37.3342476   2.6905146  40.5961571
  36.4725876   3.1030450  40.5361900  37.5488472   2.7185597  41.5285683
  76.0710678  27.8207588  17.7042904  76.9642868  27.9387913  18.0274963
  75.6810608  28.6934853  17.7540703  32.4033775  55.1949081  72.9577255
  31.5439911  54.8125343  72.7802963  32.2154388  56.0975761  73.2148209
  43.1458092  54.8885803  48.1896362  42.6030045  54.1682434  48.5101166
  42.8953094  54.9869270  47.2710457   2.6940596  61.7222137   3.4147153
   2.2013850  60.9652519   3.0976770   2.0586617  62.4381027   3.4159880
  71.3639374  21.6527348  65.0116959  71.7062912  22.5192623  65.2311401
  70.7732086  21.8081799  64.2747421  54.1416092  43.7223854  51.2364731
  53.6235924  44.5149727  51.0961380  53.5841331  43.0124016  50.9180794
  45.5954323  64.3711166  71.8197632  44.7665558  64.6681519  72.1952133
  46.2530098  64.6072845  72.4740143  80.9568634  25.7542057  63.6486931
  80.9329605  26.5578365  63.1292343  81.0892258  26.0541592  64.5479889
  39.4634552  41.8218498  37.7702980  38.5655365  41.9897079  37.4842873
  39.6323967  40.9163322  37.5100517  75.5613251  11.8690844  48.4975433
  75.0673904  12.4519644  49.0741806  75.3023911  10.9883022  48.7684860
  22.7435036  31.6999283  84.1090698  21.9510479  31.4625359  83.6275177
  22.4225826  32.1379890  84.8973236  20.5459518  35.1865997  13.5614681
  20.9726181  35.2021179  14.4181757  21.1862106  35.5789833  12.9678879
  38.8241386  38.8885536   7.0830555  38.9147682  37.9356766   7.0763259
  39.1778336  39.1568031   7.9310951  36.7933846   3.8249862  48.4255829
  36.6856613   3.6644511  49.3630562  36.2487640   3.1598854  48.0045547
  47.2930412  46.4800301  54.0519447  47.5918083  45.8454323  54.7032928
  46.4329453  46.1586761  53.7813911  82.2513199  41.7095718  56.4962234
  82.5292892  42.0693321  55.6538811  81.9003906  40.8448563  56.2832718
  34.5058708  69.4957809   1.9116582  34.8227310  68.7140808   1.4591401
  34.1734161  69.1700974   2.7481010  46.9137154  55.5811882   2.4416165
  46.0064774  55.5553856   2.1374998  46.8695450  55.2889404   3.3520405
  61.7800026  16.7081089  84.3007507  61.2696571  16.0647354  83.8089676
  62.6904869  16.5090351  84.0825195  68.3058243  43.5872269  42.4682884
  68.5627670  44.2437134  41.8208008  68.8027420  43.8177299  43.2532578
  52.2597694  34.4361496  40.9119110  52.5320625  34.4519081  41.8294334
  53.0499954  34.1886673  40.4317780  86.3449554  13.5100880  82.3233566
  85.7635803  13.0594320  81.7108612  87.1677017  13.6086617  81.8441849
  27.0713558  69.6568069  16.0320587  26.2420521  69.5815353  15.5600195
  27.5345116  68.8429108  15.8338165  56.2863426  66.8380814  32.1571960
  56.3682365  65.9313812  31.8615341  57.1883163  67.1277008  32.2942848
  20.7574081  70.2758255  60.4214096  19.8280525  70.4802399  60.3177414
  20.7806416  69.6069565  61.1057396   9.1534262   1.3254319  61.9258080
   9.9258041   1.2901664  62.4900932   9.1748457   2.2033932  61.5450745
  18.4124889  40.5622101  70.8013535  18.4947891  39.8559761  70.1604996
  17.4707165  40.6376915  70.9549713  66.2032013   7.2458301  32.0248413
  67.1314316   7.3456035  31.8134880  65.7478943   7.7402329  31.3433056
  62.4279938  67.7663193  18.3717346  61.9608040  66.9386444  18.4853992
  63.3315315  67.5082550  18.1893711   0.8468035   5.1233296  74.4088364
   1.3426532   4.7888670  73.6615067   0.7592536   6.0610557  74.2378464
   2.0032110  47.6418419   7.7397666   1.6921293  47.7357483   6.8394103
   2.7751043  48.2059555   7.7865396  74.2107391  69.3594360  50.2840652
  74.0744553  68.6337891  50.8932457  75.1588974  69.4904175  50.2758789
  38.7807617  54.1303329  66.3140793  38.5537643  54.6189346  65.5228958
  38.6762886  54.7631416  67.0246201  46.9204903  52.4596367  28.9092712
  47.0274506  53.0956345  29.6165905  45.9820595  52.2714539  28.8962612
  52.9956131   9.2559958  33.0525055  53.3042374   8.3748913  32.8412285
  52.1919975   9.1147060  33.5529747  65.3753052  24.5011845  58.0324821
  64.4630661  24.7870960  57.9843788  65.5375061  24.3741436  58.9672470
  21.5027256   7.3936048  20.8843975  20.6362133   7.1614051  21.2182732
  21.6947002   8.2412529  21.2854805  22.0897293  46.0400734   5.1876788
  21.1351299  45.9847946   5.1439295  22.2978153  46.8940468   4.8086514
   7.1542077  36.8564911   4.1318245   6.9158750  37.1127510   3.2408924
   7.4158187  35.9389267   4.0552468  74.2814102  58.6715698  48.7799301
  74.4168854  59.3237991  48.0925636  73.9110489  57.9160538  48.3235741
  18.8349323   7.2378860  21.8131962  18.0678501   7.0179739  21.2845612
  18.8010330   8.1905613  21.8997574  20.0719585  68.9483566   7.9018908
  20.9403572  68.6989746   8.2179947  19.7170353  68.1461716   7.5187960
  34.1706657  71.0478210  75.9477997  34.1627235  71.1167297  76.9024811
  35.0945511  71.1252670  75.7097473  79.0289764  52.2379608   7.6881146
  79.6717987  52.2588692   8.3970375  79.0030670  53.1374092   7.3616910
  46.9583359  62.5019608  69.9170609  46.0741806  62.8649979  69.9691162
  46.9948158  62.0825539  69.0574112   5.8080521  59.9400864  37.9204140
   5.5048738  60.4386253  38.6792107   5.9726677  59.0610352  38.2615929
  22.7433472  62.5314140  71.3003311  23.2928047  62.1622086  71.9917221
  23.1229534  62.1962280  70.4880676  32.0095062  10.0662556  12.7817745
  31.0784702   9.9619169  12.9780312  32.0807533  10.9502249  12.4215622
  49.7327843  64.0799332  74.8771820  50.4986687  64.3952560  74.3973618
  50.0799141  63.4156075  75.4724960  76.9263763  51.7705994   5.3196306
  77.8379745  51.5658798   5.5277514  76.5989532  50.9857712   4.8802323
  60.6553192  11.2541780  20.8293381  61.0509033  12.0215635  21.2426929
  60.1153107  10.8636780  21.5164566  73.5955582  45.0949287  78.3137207
  73.1461334  45.8193474  77.8784409  73.3434067  45.1747818  79.2336578
   8.1499548  55.3546104  42.2480240   8.8908262  54.9210701  42.6715622
   8.5436020  55.8642845  41.5398521  84.8677063   6.4074225  65.1892471
  83.9475555   6.5011950  64.9427643  85.3402939   6.9573860  64.5643997
  11.9025087  49.0109596  80.1422958  12.8055973  48.8825226  79.8521805
  11.7500200  48.3049583  80.7704239  26.7497559  14.7373123  21.9455585
  27.5272884  15.2626076  22.1346073  26.8678532  14.4521494  21.0394859
  43.1659775   7.8112645   9.9018564  42.4827232   7.2505493  10.2692690
  43.4310074   7.3688097   9.0954905   5.8646879  41.7549629  65.1600037
   6.7482338  42.1182632  65.2199326   5.7991800  41.1600075  65.9069824
  40.3980560  54.9768524  28.4017811  40.7926598  55.0459671  27.5324459
  39.8623505  54.1847343  28.3593597  40.0687141  43.9497681  64.1165848
  40.2579384  44.6929436  64.6893997  40.8390770  43.3867149  64.1923828
  58.4572449  53.5852165  -0.0005944  58.4681396  52.7554169   0.4764193
  58.8062706  54.2236252   0.6213754  71.3444214  64.5157776  47.6552773
  71.0838928  65.1786575  48.2947655  70.6801224  63.8313217  47.7356224
  34.9378510   8.5903492  75.5072327  34.8980484   7.7919111  76.0336761
  34.0816727   8.6398592  75.0820999  70.0862808  34.1779213  49.7986221
  69.3868408  34.6571045  50.2429199  69.6302261  33.5177689  49.2766571
  75.9791489  52.9729538  74.5678787  76.4583664  52.7423439  73.7720108
  75.1074066  53.2202072  74.2593918  82.5832138  31.9263706  31.9591999
  83.0679932  31.3222027  32.5215225  82.3627090  32.6614075  32.5313301
  49.4888649  34.9331474  83.8070145  48.6375427  35.0230255  83.3787613
  50.0692291  35.5093079  83.3095779  85.3538895  67.2482529  72.4431152
  85.8624268  67.7279816  71.7892990  84.4589767  67.2562180  72.1035461
  74.5941620  35.4195595  37.1793213  73.7853317  35.2791290  36.6870766
  74.6995773  34.6227646  37.6991615  36.0591888  42.7406921  71.8668518
  35.9782562  41.8854828  71.4445953  35.1954231  43.1405373  71.7655258
  50.8382301  45.3057137  51.7542953  50.7664452  44.3512573  51.7445641
  51.1213951  45.5155449  52.6442490  49.4161949  34.8128128  36.1740265
  49.7580070  34.8804169  37.0655594  49.6623383  33.9327278  35.8892403
  79.9653854  70.6660919  56.4430008  80.3180771  70.8082047  57.3214340
  80.3228378  69.8193893  56.1754761  48.3203964  22.3395519  59.1889877
  48.7588768  22.0781307  59.9986916  47.5080681  21.8332825  59.1822968
  67.3344498  43.2463837  54.8626328  67.5334091  42.5077057  54.2873039
  67.4601135  42.9019318  55.7468224  85.2389679   5.9879999  45.4162216
  84.7986679   5.3350601  44.8721313  84.8967667   6.8270001  45.1076660
  42.6705170  65.8950500  87.1847916  42.3595505  66.7498474  87.4828796
  42.2445564  65.7674789  86.3371429   0.5509166  12.3077793  40.2199364
   0.5018626  12.5078268  39.2851601   1.4884050  12.2914314  40.4124985
  15.7255802  50.0469780  64.3487320  15.6294985  49.4399033  65.0825272
  14.8928270  49.9900970  63.8801994  66.3057709  36.8411751  44.9141006
  66.0923386  35.9260712  44.7317162  65.9641266  37.3216782  44.1600304
   5.4621763  54.7094803  32.0759201   6.0899820  55.0308914  32.7230568
   4.6536565  54.5782394  32.5711975  35.6044388   0.7319937  24.0042744
  35.3891029   1.6626991  23.9438610  36.5373955   0.7153738  24.2176991
   3.1745574  56.7215157  45.9846382   4.0041733  57.1983261  46.0096130
   2.5160913  57.3738670  46.2235756  79.0025864  20.9148827  24.5240040
  79.9376907  21.0938206  24.4250069  78.6222458  21.7578545  24.7709236
  31.7439938  15.5263700  17.1788330  31.8586540  16.4153061  17.5148048
  32.5797157  15.0941439  17.3548489  58.1554070  31.9128380  29.3580322
  57.8150902  31.1285686  28.9275227  57.9989700  31.7613831  30.2901382
  69.6295929  16.9006920  81.6920547  69.7092361  15.9678955  81.4926071
  68.8563919  16.9604816  82.2531433  13.2819672  58.1069450   4.5766301
  12.8084650  58.3138313   5.3823752  13.1677523  58.8815918   4.0260763
  43.7845192   9.8749676  16.1455383  44.6696396   9.9333191  15.7858257
  43.9149208   9.6566095  17.0683308  20.9096394   8.8247404   4.6025047
  20.9088764   8.2745047   5.3857493  21.5059605   9.5427685   4.8148003
  29.3504753  50.7204475  58.5605736  28.7341118  50.4264183  57.8898430
  30.0299473  51.1867027  58.0735855  64.5981140  67.1759720  48.7422256
  64.2093811  67.2791824  47.8736229  64.5647049  66.2340469  48.9091988
  37.6882401  41.4849854  86.7630997  37.8636093  41.3497696  85.8318710
  38.2845840  42.1884689  87.0194473  37.6731682  48.7820206  17.0342979
  37.7384605  47.8358917  16.9046440  37.8410034  49.1545372  16.1686783
  40.8232269  46.9874611  65.4186172  41.0556908  46.4427719  66.1706161
  40.5942993  47.8355637  65.7988129  81.6035919   7.8102684  15.8782034
  81.6913681   8.6508465  15.4288082  81.7282944   7.1566410  15.1901245
  35.5124664  44.1392784  30.9846325  34.8040276  44.2058640  31.6248798
  35.6076813  45.0270309  30.6395817  48.0464783  53.2831268  56.9652748
  48.8332748  53.4068451  57.4961929  48.3393707  53.4281769  56.0656052
  33.3507805  57.6722832  58.7407608  33.0485840  57.4406509  57.8625488
  34.3052979  57.6844177  58.6701584  38.4604874  61.1762314  65.8556290
  37.5999031  61.2190399  66.2725143  38.9508209  61.9010735  66.2434540
  83.6185608  27.0236530  68.8800964  82.9401016  27.4552517  69.3993683
  83.1396713  26.5877914  68.1751709  45.4493904  65.0423737  87.6836777
  45.5836334  64.5674973  86.8634949  44.5551414  65.3782120  87.6223907
   4.7630572  26.8704834  57.0759468   3.9631999  27.3962040  57.0847893
   4.4545207  25.9646168  57.0970039  40.2065163  31.4669781  11.7475576
  40.8283501  30.8999176  12.2036257  40.7271309  32.2222214  11.4740686
  72.8181152  60.5825462  82.8441162  72.8572998  59.6458054  82.6512070
  71.8823700  60.7813263  82.8772507  33.2208176  68.3994827  83.5801010
  33.2352028  68.4865417  84.5332184  32.3823547  67.9783783  83.3906784
  30.5627155  45.0270882  65.0703049  31.5053978  44.8818398  64.9897919
  30.2663422  44.3468208  65.6749725  25.5754147  66.2030716  32.9759903
  26.5056381  66.0244370  33.1138496  25.2237206  65.3846664  32.6256294
  43.1458664  25.8200703   3.1655967  43.5317993  25.1409416   2.6123617
  42.8599701  26.4958801   2.5509605  20.1463451  59.6038132  49.1720314
  20.8900375  59.2987823  48.6523094  20.3672695  60.5070496  49.3991585
  35.5386581  56.3688698   6.1085796  35.3929176  56.1890259   7.0373673
  34.7509041  56.8348618   5.8283610  29.8722992  58.2347755   7.8170428
  29.3285007  58.7010727   7.1821566  29.3750362  58.2754364   8.6339321
  53.6992111  50.1595917  82.1990891  53.5803299  51.0566788  82.5110703
  54.2417793  50.2484322  81.4155350  39.8185310  40.0051155  13.2200489
  39.6541214  39.0694427  13.3371630  40.7222786  40.1277122  13.5106421
  57.4769440  34.0007896  17.9022198  57.2438469  34.0083504  16.9738674
  56.8971748  33.3449020  18.2894058   6.7646809  57.4868355   8.5953474
   5.9420338  57.0781174   8.3262129   6.8194818  58.2842484   8.0687008
  52.6246452  36.2709694  55.6749191  52.6277237  35.6330490  54.9612846
  52.0568352  36.9758835  55.3636017  67.6666718   0.3065823  70.8112717
  66.7463455   0.1510996  71.0235214  67.8338470  -0.2483548  70.0494766
  44.6577606  18.0095158  67.5190353  44.2540779  17.3701935  68.1060104
  43.9810371  18.1986294  66.8690262  31.0104961  59.8225708   4.3701968
  31.0376396  60.1512451   3.4716041  31.0449982  58.8704376   4.2781143
  56.8601990  39.2070389  13.4942970  57.4150009  38.4517555  13.6891613
  55.9754562  38.8461037  13.4377871  63.1229630  35.9625244  67.2354050
  63.1922531  36.9011612  67.4097290  62.1988029  35.8251343  67.0273514
  66.6641846  68.3960953  46.6571236  65.9363861  68.6429214  46.0864983
  66.3634033  68.6177292  47.5383949  11.6757269  61.7900009  30.3616123
  11.7558289  60.8887100  30.0493755  12.5727806  62.0526352  30.5678883
  76.2184677  48.1066399  60.0459480  76.8501740  48.7947121  59.8368225
  76.1641693  47.5807686  59.2479820  54.6751442  12.6950836  67.7028427
  55.3241501  12.2331762  68.2335587  53.9213753  12.7994909  68.2835007
  17.1026268  19.8125763  62.6870842  18.0206890  19.6747780  62.4538307
  16.8470325  20.5964737  62.2008667  25.1080227  56.5252724  83.9748840
  24.2169609  56.4671059  83.6301270  24.9933071  56.6190224  84.9205551
  82.4761963  67.5160828  71.8409729  82.3368149  67.9420624  70.9951935
  81.9543152  66.7150040  71.7945786  85.7416916  60.7355232  86.1208954
  85.1355515  60.3963776  85.4622498  85.3433990  61.5553017  86.4133911
  72.6255112  21.0237885  34.7942009  72.0082474  21.5638199  34.3006516
  72.7127151  21.4691677  35.6369743   3.1555834  22.1580906  23.2843742
   3.6859729  22.9418964  23.4277916   3.6176894  21.6787205  22.5967026
  11.8698568  65.2764587  68.5424271  11.2810831  64.9973679  67.8412247
  12.4879303  65.8690262  68.1145554  16.3380852  27.2077770  80.7324524
  15.5244112  27.6362610  80.9981003  17.0293465  27.7904453  81.0469208
   1.0035657  16.4846649  78.2942123   0.0689024  16.6862049  78.2492828
   1.2461678  16.6742439  79.2005386  15.2481127  34.4486694  19.8905277
  15.0562668  34.4416199  18.9527760  14.7258759  35.1724586  20.2364044
  20.6485710  45.4053993  37.3503609  19.8491764  45.5582695  36.8465385
  20.6347218  44.4678726  37.5429153  11.9303942  19.6853390   8.5925741
  11.2153397  19.0513077   8.5384140  12.2507238  19.7624359   7.6938653
  74.4288635   8.9808807  11.7560005  75.2848740   8.9290047  12.1811876
  74.6286163   9.0382385  10.8216352  30.8810215  52.2554932  53.8321915
  30.1607075  51.9104805  54.3597717  30.5075970  53.0144615  53.3841324
   4.7111974  31.8818798  34.9297981   4.8278995  31.4499321  34.0836105
   5.3742929  32.5721245  34.9398384  85.9306946  39.2601929  56.0112915
  86.0663452  39.8701630  56.7363892  85.9602432  39.8092041  55.2277451
  43.2195892   8.8075714  64.9543076  43.6077347   9.2524471  64.2008743
  42.8221054   9.5101748  65.4686890  26.9808826  23.7100334  15.1925459
  26.7290611  23.2023220  14.4211531  26.6646156  24.5949554  15.0105629
  42.5089073  44.5403824  19.0325699  41.7677727  44.8339119  18.5026684
  42.6432533  45.2442398  19.6672077  84.1723938  49.5579529  29.9547062
  84.4777069  48.8862267  30.5644588  83.2176514  49.5065117  30.0001144
  83.0109558  65.6777649  34.7875366  83.5839920  66.4434814  34.7482796
  83.2413864  65.2481461  35.6112862   2.0961239  36.0011444  84.7185059
   2.9722042  36.3605957  84.8581848   2.2317467  35.2642708  84.1228104
  82.6735153  38.4395370  39.6519699  82.5658646  39.1930695  39.0716019
  83.2040100  38.7695961  40.3771324  19.7960510  56.4571266  22.2395306
  19.4463120  56.1520119  21.4023819  20.6351261  56.0049934  22.3276329
  52.7330322  14.2150145  86.0958633  52.5774384  15.1582518  86.1440811
  53.2944260  14.0261278  86.8477859  59.6621056  57.1664162  69.0149078
  60.5737305  56.9239273  69.1772919  59.7125778  58.0363388  68.6187820
  22.7238159  51.2213669  62.2388954  22.9266567  51.4571152  63.1441650
  23.5475674  51.3479424  61.7681046  75.1024017  65.1840134  33.7812843
  75.3737106  64.2855911  33.5929718  75.5359726  65.7108459  33.1099396
  83.7092819  10.5117226  24.3975544  84.1859207  10.8613596  23.6446934
  83.4533463  11.2855787  24.8994236  45.2095184  43.0415993  40.4236641
  45.1378365  43.4373665  41.2922592  45.8619690  43.5754662  39.9703140
   5.4333715  31.8944511  87.7669907   5.8717270  31.3472691  88.4186554
   4.5782380  32.0866203  88.1517639  35.6578598  24.3187523  19.5449524
  35.6901817  25.0635967  20.1452789  34.7299500  24.2248116  19.3295708
  37.7453499  28.7171726   0.3362883  38.0438652  27.8484688   0.0670771
  38.0981064  29.3083916  -0.3287352  45.0395584  34.6225204  73.7909164
  44.3276634  34.5106926  74.4209366  45.6005211  33.8586540  73.9252930
  84.5089188  42.8440781  63.6573792  85.3340073  43.1756973  63.3031425
  84.6608658  42.7820129  64.6004028   2.8723907  53.5443306  20.5175819
   3.1819189  53.7499619  19.6354599   1.9226046  53.4679985  20.4264145
  18.3255482  46.3655968  12.9089584  18.7913876  46.3088074  12.0746918
  17.6582432  47.0366745  12.7654743  30.1946259  70.8395844  55.5499840
  30.3930969  71.6398468  56.0362053  30.7246132  70.9043503  54.7555351
  33.8944168  58.6671333  28.1455841  34.3233032  57.8705368  27.8329735
  32.9694710  58.5396919  27.9347210  25.7508907   5.4767275  45.4679985
  25.7747841   6.3238649  45.9129944  26.6656933   5.2920523  45.2552490
  64.4674683  12.1489019  18.1340294  64.2971268  12.9960032  17.7221622
  63.8268661  11.5574074  17.7390671  33.0749130  66.0746078  64.5959854
  32.6524124  65.6006622  63.8796768  32.4100723  66.1117401  65.2836227
  67.9551086  60.9453392  25.1667690  68.0729828  60.1955223  25.7499561
  68.6047668  60.8158340  24.4758282  55.8932762  59.5981522  76.3765259
  55.5469398  59.4158974  75.5029831  55.1411972  59.4926376  76.9591675
   5.7513976  58.9558105  63.0683098   5.5796900  59.8634949  62.8175964
   4.9211044  58.6461067  63.4301529  31.2400951  61.6757202  77.0811005
  31.9965267  62.2456856  77.2196121  30.4846420  62.2256165  77.2887955
   8.1837330  10.7465668  67.5710449   8.7479773  11.3240805  67.0569077
   8.4953852  10.8459482  68.4706192  33.0279121  34.1811104  82.1196747
  33.7335510  33.7050667  81.6818542  32.9775238  33.7870598  82.9905472
  67.3740768  49.6757584  60.3734589  66.5318146  49.4508781  60.7687531
  67.3084030  50.6121788  60.1862717  57.5027924  14.6619749  84.3647614
  56.8392792  14.1929770  84.8707504  57.0078316  15.1134624  83.6810913
  13.6648350  24.3095627  25.8283234  13.0938501  23.5743141  26.0510712
  14.5128717  23.9064655  25.6423702   9.9446440  49.4119911  68.6983566
   9.0799990  49.4674568  69.1052246  10.4559822  50.0976410  69.1280670
  39.0251884  65.6211319  56.2999229  38.7464027  65.4138412  57.1918564
  39.4876480  66.4552460  56.3812828   2.9352949   6.1786032  46.6712112
   2.3337023   6.9225726  46.6424408   3.8029418   6.5678225  46.5619926
  54.5794983  46.1035805  74.5069199  55.3506317  46.3450661  73.9938278
  53.8970070  46.7063065  74.2116928  75.7717819  65.0944595  87.8276749
  76.0665512  64.4828186  87.1529617  75.0105057  65.5279236  87.4419403
  15.6036158  21.1852741  82.2743607  15.2456818  20.9503040  83.1304626
  15.1746912  22.0121841  82.0541916  15.5227604  49.3752937   0.0375498
  14.8769541  48.8912849   0.5522327  15.0107393  50.0356445  -0.4293596
   0.8147773  12.7923689  29.4889641   1.7030213  12.4872370  29.6737576
   0.3552375  12.0145016  29.1727715  62.6979332  53.4634056  36.4254150
  61.9397125  52.9284058  36.6601639  63.0062141  53.8204803  37.2582970
  61.2280045  46.3484612  62.6799355  60.9645348  46.9758759  62.0067596
  60.7305717  46.6067085  63.4558830  21.4156208  13.4860373  78.4800949
  21.4127617  13.5153961  79.4368362  20.5247955  13.7315016  78.2302704
  35.5652008   7.8061342   9.8604078  35.5544624   7.7911625   8.9033852
  35.4297485   8.7261877  10.0870895  12.9461365  52.2651939  39.9847298
  12.1594534  51.8760529  40.3667412  12.8457861  52.1319237  39.0421791
  33.4423676  16.8755150  13.4998980  34.3418236  16.9921360  13.8058596
  33.4365005  17.2575016  12.6222401  17.3711147  67.0019836  56.8465691
  16.9512558  66.4343491  57.4928970  18.2821369  66.7089615  56.8263206
   2.4741492  36.1281281  49.2907753   3.1291778  36.5576782  49.8409195
   2.2481878  36.7838631  48.6310921   7.7660365  12.0572405   3.7294075
   8.1486778  11.3853397   4.2936473   7.2723269  12.6189899   4.3268361
  67.2593231  65.9211121  64.8738098  66.8950729  65.3340378  65.5363007
  67.2071915  66.7909546  65.2699051  60.9131165  43.4087753  40.6350861
  61.2923622  43.8727264  39.8886604  61.6686211  43.1262398  41.1504707
  79.5224915  26.6590691  86.8083344  78.8127289  26.8427620  87.4237366
  80.1422729  27.3772278  86.9362335  52.8932800   5.8587699  67.4189224
  52.7770195   6.7241640  67.8111038  53.3555946   6.0279756  66.5980225
  78.7062607  55.7534866  79.8962402  79.5765228  56.1517448  79.9125443
  78.6004105  55.3734436  80.7683640  52.3618431  20.8739510  38.3559761
  52.2965202  21.0349541  37.4146767  51.4536285  20.8155384  38.6525688
  16.9485397  47.7624016  29.0540371  17.4120483  47.7743568  29.8914433
  16.6718807  46.8524017  28.9463863  57.0685272  60.2587700  55.9622803
  57.8104744  60.8425941  55.8045044  56.9959564  60.2159843  56.9157639
  42.3313217  65.3345871  56.0690765  42.3989296  64.4806595  55.6419106
  43.2174911  65.5168610  56.3816643  68.1299438  14.7713337  40.7157898
  67.7930527  14.4661493  41.5581665  68.9732742  14.3286638  40.6205330
  74.8773651  32.0779572  20.8982029  73.9648514  31.8949890  20.6744442
  74.9464798  31.8519344  21.8257637  85.6698914  47.5077629  55.3089676
  86.5435944  47.7512321  55.6149101  85.3681107  46.8551254  55.9408073
   5.5915575  20.1043949  15.2672062   5.4252634  20.9605885  15.6615534
   5.1733842  19.4815788  15.8617344  13.9963646   8.8787966  60.3410988
  13.1416636   8.5587463  60.0525055  14.0541220   8.6132736  61.2589188
  65.7183456  33.9777794  40.3852005  66.2245178  33.1857872  40.5662308
  65.9635391  34.5837784  41.0843964  70.3688354  23.2604656   6.1668181
  69.4435043  23.1216984   5.9649920  70.6132889  22.5050259   6.7014065
  48.7384415  25.6805706  22.5979595  49.5850716  25.2571812  22.7400436
  48.5351906  26.0967522  23.4356422  71.4101181  54.2144890  61.0673103
  71.5366287  54.8559875  61.7663879  70.5623245  53.8141289  61.2601700
  82.5788116  26.2288399  35.4333153  81.7454147  26.6074944  35.1535072
  82.8983307  25.7578945  34.6636734  78.5290680  37.3990250  62.1849670
  79.1767044  37.7857170  61.5956764  78.6890717  37.8230286  63.0280876
  67.6026688  34.1689148  31.0644302  68.5021133  34.2521057  31.3811512
  67.4591217  33.2250061  30.9961452  86.4294510  25.5879631  76.2536316
  86.1392059  26.4825897  76.0757675  85.8121414  25.2615814  76.9083252
  68.1832733  36.0194130  51.0712929  67.5382538  36.5794754  50.6394272
  67.9524994  36.0599251  51.9993744  21.1157017  50.3337708  14.0247326
  21.3154945  50.6917114  14.8897142  20.8285561  49.4370689  14.1970778
  49.6829033  17.5177345  75.1742020  49.8532867  17.1711712  76.0500412
  48.8499107  17.1219387  74.9178696  77.9010696  49.7847252  79.6066895
  77.4227905  50.6101990  79.6845779  77.3480453  49.1443405  80.0542374
  61.8252144  49.2296143  69.4407272  61.1489906  49.7225914  68.9760437
  61.6071777  49.3380547  70.3664322   0.6016529  48.3820000   5.0459952
   0.2968124  47.7622757   4.3832393   1.2378238  48.9302216   4.5866776
  64.3466949   7.2401972  74.4707794  65.0149841   6.5574341  74.4120178
  64.8401260   8.0602732  74.4554062  43.6307526  40.7875061  88.5559082
  43.5510941  41.7407722  88.5900345  42.9915619  40.5171928  87.8966675
  26.5254173  24.5648193  18.8405704  25.6926422  24.9228363  18.5330887
  26.4194660  23.6162243  18.7686329  20.8176689  21.5397320  10.1057577
  20.8943310  22.2160263   9.4327183  21.3776493  20.8282337   9.7952375
  81.4494858  32.9492722  73.6177750  81.3580170  33.9003830  73.5606842
  82.1590729  32.8141708  74.2458420  57.3363914  48.9744377  86.4207840
  58.0125694  49.5313225  86.0349274  57.4885330  49.0316238  87.3640823
  12.3093891  54.2211075  13.2844095  12.5167351  53.3873177  12.8624725
  11.6835442  53.9926414  13.9716892  45.8436508  35.2430458  77.8196716
  46.3856163  36.0104179  77.6362457  46.4266739  34.4978638  77.6746902
  30.3769112  70.9158554  41.3825188  30.9329510  71.4687347  40.8335381
  29.6725578  70.6313095  40.8001556  16.9233646  55.1716537  39.3259583
  17.1868877  54.2517853  39.3008614  17.6137486  55.6049728  39.8277893
  33.6338882  32.3913727  18.4451809  33.7567329  31.8948555  17.6361008
  34.4715767  32.8330193  18.5846977  64.7723236  42.1422386  64.2283859
  64.2226715  41.3900452  64.0085831  65.6428146  41.9041672  63.9093170
  59.4804192  49.6610603  26.9278679  58.6996956  50.1456375  27.1959953
  60.0091629  50.3024559  26.4532337  79.0345535  24.3568649  35.6545258
  79.2138901  25.0655460  35.0365906  78.3339157  24.6962605  36.2114372
  57.2871933   9.0897961   0.8080527  56.9911804   9.8081379   0.2489510
  57.2846069   8.3233194   0.2346952  77.5169678  49.3428078  29.5669174
  76.7270737  49.7273788  29.9469261  77.9767456  48.9551659  30.3116131
  52.6605682  45.7218704  66.3685608  53.2593575  45.3628387  67.0233688
  51.7953491  45.4181175  66.6430893  80.1191559  65.8342972  87.3030624
  80.0637589  66.1006088  88.2208023  79.7130356  64.9678268  87.2801743
  72.6290665  39.6951447  68.7006454  71.6947937  39.7309380  68.9058075
  72.6831665  39.1332970  67.9275818  13.2547359   1.5170698  75.6713181
  12.8511801   1.2674614  76.5026245  12.7371292   1.0614361  75.0074539
  48.0836868  42.0992088   6.0521097  48.8254280  42.6443748   5.7897263
  47.6420975  41.8840828   5.2305546  20.4165668   5.0821776  70.1772690
  19.5362206   5.0719514  69.8016129  20.8914604   5.7302837  69.6570129
  83.2684631  59.1272469  61.1589966  82.5758057  58.5765839  61.5240135
  84.0769043  58.6493187  61.3440208  23.3812103  69.2952271  11.9089956
  23.9721565  69.7761002  11.3295345  22.6459007  69.8916779  12.0497227
  13.4121943  52.8165817  69.9793243  14.1199780  52.8383369  70.6233673
  13.8181229  53.1193047  69.1670303  28.2536793  39.3869667  71.7594528
  28.2437420  39.5439873  72.7036285  27.6534348  38.6522369  71.6325073
  11.9689522  11.4854460  59.1161461  11.2618637  11.2440052  59.7144470
  11.5212240  11.8026161  58.3318138  58.6403618  11.8125458  13.6096964
  58.6592712  11.0575981  13.0215397  58.0153809  11.5686588  14.2924471
  46.3074684  43.8520699  49.5462914  46.1997910  42.9967499  49.9622993
  47.2133179  44.0975800  49.7344246  27.7871552   4.1186218   3.0391850
  27.9475899   3.2216475   3.3323231  26.8592587   4.2676458   3.2209299
   5.3927708  63.2845535  45.1225090   5.5142088  62.4602318  45.5936546
   4.6654081  63.7132759  45.5734787   0.4376272  60.9696350  25.3604126
   1.1878672  60.4413986  25.0877647   0.3717714  60.8230667  26.3040295
  71.8395386   6.8813267  83.3178101  72.4742126   6.3085327  82.8873062
  72.3135300   7.7009153  83.4586563  47.3420486  61.6650352   4.6310010
  47.5872192  61.0656853   3.9260869  46.4481850  61.9328461   4.4176397
   4.7826614  65.3043594  51.3377419   5.3620796  65.5529633  50.6175346
   5.2812099  64.6542435  51.8327484   0.7547680  53.5270500  14.6010094
   0.8859825  54.4186020  14.2782869   0.3496576  53.0640755  13.8676805
  81.0335922  44.9693718  87.3561630  80.2848282  44.3920326  87.5053864
  80.8057632  45.4574280  86.5648804  29.8703403  11.9634657  81.6496582
  29.0507050  12.4164343  81.4515457  30.2372742  12.4454489  82.3908005
  59.3516579  29.7610302  68.8877335  59.2548828  29.4214897  69.7774353
  59.6854172  29.0191879  68.3832397  73.0100632  13.7788982  59.2436676
  72.7495804  12.9626389  59.6703987  73.7959824  14.0553627  59.7149773
   8.7667494  45.4238739   9.4081573   9.1910934  45.4049873   8.5503654
   9.4867992  45.3415489  10.0334425  68.1479263  54.3657341   5.9433513
  68.8020401  54.9328003   5.5349355  68.4905396  54.1986008   6.8213668
   1.4991235  48.9341164  80.7292099   0.8611526  48.9244614  81.4427414
   2.0096526  48.1340332  80.8535385  13.7116013  51.4455948  88.0331039
  13.8836384  52.3697891  88.2133865  12.7586508  51.3665047  88.0762482
  57.0984344   7.5827951  79.3630981  56.5307655   7.1331015  79.9890060
  57.9628944   7.5732956  79.7740173  14.2739906   7.2265449  36.0996132
  14.2617979   7.0845218  37.0461388  14.8228712   6.5204167  35.7585182
  34.5364838   1.9857396  89.0120850  35.3115349   2.4276750  89.3588181
  34.1689148   2.6057596  88.3822403  74.2152405  47.0082703  72.6588821
  74.5993195  46.1735649  72.9271851  73.9264297  47.4129562  73.4768295
   2.6669037  28.3503208  47.6133537   3.5316217  28.5261898  47.2424583
   2.7270432  27.4552746  47.9472809  50.6930122  32.5233116  35.2227898
  51.4900627  32.4357910  35.7455559  50.9980125  32.5024910  34.3157234
  50.0244980  10.7134619  84.2794800  50.0387497  10.0038824  84.9217606
  50.9137154  11.0674582  84.2938843  34.1432037   0.7060026  31.2478542
  33.7364769   1.0601262  32.0386772  34.9485931   0.2917635  31.5576649
  70.8872528  63.7250099  76.1639481  70.6995926  62.7869301  76.1320114
  70.0255280  64.1408615  76.1910782  68.9061203  62.1788445  11.6459274
  69.2716141  62.8054047  11.0213699  68.6927261  62.7053452  12.4163132
  10.5088472  58.5768471  63.3737411  10.4224024  57.6450615  63.5750771
  10.6489210  58.6053886  62.4272728  48.1685791  64.4828033  24.5331268
  47.3951759  63.9449043  24.3636055  48.5552177  64.6253815  23.6691742
  55.1327782  11.6399260  79.2356644  55.9296188  11.2309942  79.5733795
  55.2813873  11.7114639  78.2927780  14.1801357  61.2880745  13.4457512
  15.0701399  61.6403427  13.4514093  13.7159948  61.8202934  12.7995691
  40.7600174  17.7778454  13.4334326  40.4091682  18.4804020  12.8861217
  39.9909859  17.2719688  13.6959343  38.4721298  50.9091339  30.6203918
  38.3843269  50.8633156  31.5724545  38.2134895  50.0399933  30.3139076
  66.7936935  70.7703857   5.9029727  67.2279587  70.8818970   6.7486720
  67.2622757  71.3611603   5.3133621  62.7887840  68.9199142  42.7059479
  61.9314270  68.8036499  43.1154099  62.6167831  68.8525009  41.7667465
  46.2852631  50.1643753  51.2538033  45.7042198  50.1978836  52.0137367
  46.9001312  49.4584389  51.4533730  25.2230110  70.9922485  10.5611439
  25.8869381  70.3420486  10.7906666  25.5772285  71.8206635  10.8843918
  82.3464661  53.4936218  70.4143677  82.1477890  52.5667076  70.2817383
  81.4932404  53.9269485  70.3926392  49.5859184  27.7590408  78.5375214
  49.2692642  26.9201870  78.2024307  48.8710709  28.0833836  79.0852661
  50.3285103  43.9157295  71.1708221  50.1114082  44.3521652  70.3470383
  50.9132576  43.2017555  70.9167633  46.4859657  61.3307877  26.9554024
  46.1570091  60.4320297  26.9714718  45.9821777  61.7823715  27.6325302
  15.5170040  65.6457138  58.4844780  16.2757454  65.1084061  58.7121849
  14.8035297  65.0174789  58.3726234   5.1102147  24.7478886  53.1595078
   4.8883824  24.4518337  52.2766876   4.3717871  25.2983665  53.4201431
   2.4420550   9.9522171  86.3940277   2.2464273   9.3222790  85.7003860
   1.9405731  10.7324467  86.1574020   9.9426765  40.6834908  76.6637344
   9.3008795  40.0047607  76.8726730  10.3896542  40.3580704  75.8823547
  83.2794418  67.6483612  20.6394291  83.4605560  67.7456665  19.7045689
  83.9369583  68.1955185  21.0689983  38.8878212  55.2364960  42.3940849
  37.9465904  55.1869621  42.5610008  39.0700607  56.1737442  42.3263588
  65.0607452  70.8379593  86.1536789  65.7721024  70.2036896  86.2425537
  64.8136978  70.7929153  85.2300034  52.5212975  23.4398956  47.5347252
  52.3454628  22.6014767  47.9617729  52.8772850  23.2025509  46.6784706
  86.0700378   6.8841825  40.9605713  85.4731369   6.1374812  41.0093651
  86.3055954   6.9424028  40.0346375  25.1322632  54.9816017  62.6153488
  25.7413712  55.7191429  62.5798950  25.3956146  54.4182854  61.8876419
  55.8577271  16.0960236  26.6693363  56.4428177  15.5415678  26.1531200
  55.5899239  16.7889309  26.0656834  13.1677313  37.5782509  18.9424896
  12.5837107  38.2971878  19.1839085  12.9541054  37.3929062  18.0280266
  62.6647949  43.8884544  19.6079350  62.8473396  44.3892479  20.4029922
  61.9548492  43.2961388  19.8556690  76.6774979  42.7726974   8.2354050
  77.6342010  42.7496147   8.2560310  76.4555817  43.6828423   8.4319267
  20.7404518  38.8555336  78.0725403  21.1054668  39.4806862  77.4462967
  21.5033894  38.4005852  78.4291687  57.9032860  53.2069283   6.7110181
  57.0507736  53.2545662   6.2783670  57.6961174  53.1662445   7.6446447
  35.4719543  61.3778114  44.4697723  36.0659790  61.6204491  45.1800499
  35.9248466  60.6711273  44.0096397  22.4677258  48.6559334  68.9371033
  22.7699547  47.9336853  68.3864288  22.4443016  48.2895584  69.8210983
  75.9911575   1.6452463  41.3464699  76.0012817   0.8499297  40.8139305
  76.8552322   2.0345247  41.2120438  53.3307343  49.8537254  61.5206413
  54.1405602  49.3436279  61.5058098  52.8930702  49.6322365  60.6986771
  43.0212555  29.7776680  66.0442200  43.0625000  28.8687191  66.3414383
  42.5264206  30.2306938  66.7269592  68.7836456  32.5538635  37.2749786
  69.4595184  32.7555618  37.9220848  68.0146942  33.0402870  37.5722084
  49.1178665  68.4937592  45.4682274  48.2978096  68.3083878  45.9258003
  49.7917938  68.4160461  46.1435165  66.3659210  69.5370636  65.8585052
  67.2797928  69.8187485  65.8999786  66.2097702  69.1060791  66.6987991
   5.3314095  65.5713882  40.8186646   5.6096334  64.9545898  41.4957085
   5.9331932  66.3105927  40.9061775  81.5292206  66.8032913  74.8550644
  81.4278488  67.6614456  74.4433365  81.5475006  66.1870041  74.1228867
  68.5573196  48.1719513  88.2665863  69.5097961  48.2272949  88.3437653
  68.4106216  47.6850090  87.4556656  34.4297409  64.0859451  35.8351898
  33.9508362  64.8348770  36.1901360  34.8170242  64.4124069  35.0229950
  52.3039398  64.9086075  30.8024406  52.6757507  64.8176270  29.9251080
  52.8972702  65.5096893  31.2528763  29.0469036  51.1797676  34.6466713
  29.6085091  50.9250107  33.9146004  29.3606052  52.0484200  34.8982048
  22.6321049  50.3041611  16.6879845  22.5373726  49.3517456  16.6750851
  22.9968128  50.4969025  17.5517368  31.8660831  48.3246231  39.8943863
  32.2084427  49.1873589  40.1282883  31.1492481  48.5079803  39.2871323
  16.1199474   6.2623582  71.3109283  15.2873631   6.1186872  71.7608109
  16.7717571   6.2754216  72.0117874  42.8996544  57.9226913  65.4940872
  42.6194458  57.6467476  64.6214066  42.4601822  58.7616806  65.6326141
  62.1868782  26.2387314  88.5025253  62.5153542  26.2812920  87.6044617
  62.8122902  26.7549877  89.0110245  51.6931610   4.4161119  43.4637794
  51.0770493   3.7451696  43.7578430  51.2852173   5.2438579  43.7180481
  19.9681339  61.6383591  31.1061897  19.2811871  61.0741959  30.7511520
  20.6469269  61.6429176  30.4313183  49.2690239  18.3882942  18.6317444
  49.2362480  17.4318886  18.6106739  48.6048584  18.6366024  19.2747536
  39.4143600  28.0258064  86.7426834  39.7804184  28.8722477  86.9991455
  40.0691833  27.6500568  86.1542511  55.7688828  22.9247284   5.7114711
  55.1608505  22.5991955   5.0477266  56.5836258  22.4515438   5.5425930
   8.8858795  21.4765568  80.4748917   8.9033241  20.5236835  80.3856659
   9.6238642  21.7801647  79.9462738  15.2746134   1.2535129   4.6618395
  14.7123213   1.9782363   4.3882790  15.0773115   0.5504734   4.0429378
  44.0858459  42.0796204  22.4784985  44.3629494  42.4237289  21.6293621
  44.6946754  42.4701424  23.1054344  38.3730049  61.7478333  72.0252609
  37.6709023  61.3243332  72.5191498  39.1064720  61.1350975  72.0783386
  17.8982220  42.0984535  67.1024857  17.3676834  42.7179489  66.6015015
  17.3644161  41.3050194  67.1442795  67.3531876  60.3005219  13.4906998
  67.7028046  60.7879295  12.7447519  67.4193878  60.9089928  14.2266445
  30.8094273  42.9579391  85.0705414  30.2726288  43.7504501  85.0713806
  30.8746853  42.7138367  84.1472931  27.0068378   9.1993465  31.1884747
  26.6243687   9.7594757  30.5130463  26.4024105   9.2684517  31.9274769
  18.3469620   1.0817329   5.1814513  18.0925941   1.7821809   4.5807004
  17.7178936   0.3804964   5.0118222  31.4246578  33.7230682  11.9062233
  30.7722721  33.7691574  12.6051502  32.2495117  33.5490379  12.3596096
  79.7679672  28.3316460  68.6021271  79.0563202  28.8733559  68.9431992
  80.4558716  28.3949661  69.2647095  37.4624939  52.2724304   4.9665585
  37.0853920  53.0610161   4.5764856  37.8625946  52.5760880   5.7813859
  15.0219936   4.1720743   4.0785408  14.8538656   5.0522618   3.7420375
  15.1076469   4.2896619   5.0246215   3.1227338  25.4165745  47.8840218
   3.6380100  24.7268448  47.4656982   2.2127891  25.1632328  47.7289352
  53.6618576  -0.0380761   0.9911658  53.0845757   0.4914684   0.4411098
  54.5318527   0.3377865   0.8567524  58.9507523   8.2601833  38.7816696
  59.2273026   8.5593901  37.9155121  59.3094711   8.9104948  39.3855324
  74.8578796  11.8721409  39.0546646  74.7701187  11.0961208  38.5011978
  75.5417557  11.6417274  39.6835136   8.0909166  70.2050171  62.2406693
   8.4536705  71.0907822  62.2489052   7.2982783  70.2757492  61.7087364
  40.1953468  54.2859840  81.6056442  40.0575523  53.3927345  81.9208298
  39.5188560  54.4122391  80.9403229  80.4225006  41.8359528   5.2548342
  80.0813980  42.1507721   6.0919571  80.1584244  42.5039444   4.6221538
  55.4763260  20.2689610  69.3845978  54.5455093  20.0642319  69.2956924
  55.7301140  19.8729038  70.2182388  72.9500351  54.7793007  70.2965622
  72.4378510  55.5090027  70.6450348  72.5269699  54.5652504  69.4650421
  15.7045956  40.6500053  60.6971626  15.7067394  39.7793922  60.2993431
  15.6407452  40.4834557  61.6375961  32.6451874   6.3560929  17.4988213
  32.8673286   6.1300883  18.4020424  32.9328270   5.6012049  16.9853630
  69.1681137  52.8702126  61.9208412  68.3753433  53.0919495  62.4092979
  69.4018326  51.9944115  62.2283859  58.6277771  14.3093195  74.7873154
  57.6796494  14.4364471  74.8208160  58.8003235  14.0297003  73.8882751
   9.5056667  38.9918938  42.7715492   9.7584333  39.9049835  42.6351204
   8.8873253  38.8063889  42.0648155  46.7502861  46.5720177  25.4913769
  47.2772446  47.3481560  25.6815338  46.2285385  46.8180237  24.7275085
  49.8464508  33.1308289  13.0423203  50.5767288  33.0658722  13.6577129
  49.8665886  32.3050270  12.5587130  61.0551338  23.1504917  34.1388092
  61.0206604  22.7996044  35.0287094  60.1476555  23.3770390  33.9353600
  60.3609734  12.5677147   0.8975202  60.2170486  13.0706348   0.0959042
  61.2415619  12.2058239   0.7983676  25.6317387  58.9746437   7.6503615
  25.5572758  58.6554794   6.7510157  25.4932194  59.9192619   7.5815215
  73.1557159  40.4132423  79.9165268  73.7339172  41.0676460  80.3085251
  72.3695755  40.4305382  80.4623489  74.0273285  21.3027039  13.6026230
  74.0169144  21.2086277  12.6501150  73.2757568  20.7911224  13.9020576
  52.5846252  64.6250229  33.9468193  53.2559547  63.9429436  33.9644928
  52.8164749  65.1698532  33.1947327  28.4741898  48.1747437  69.6549683
  29.2392406  47.7900505  69.2272491  28.1272373  47.4710503  70.2033005
  81.3155899   7.2757115  58.0385170  82.1035843   7.2706618  58.5819130
  81.3544464   6.4519262  57.5526161  73.3375854  21.9340935  61.1933937
  73.4840927  21.2361622  60.5549126  73.8584137  21.6761513  61.9539413
  74.6467743  62.1341743   7.6644011  74.5703735  62.2021942   6.7126827
  75.2552872  62.8323212   7.9063401  44.1131363  14.6627836  77.3396454
  43.5188866  14.2538652  77.9688416  44.8382835  14.0433817  77.2575989
  61.0615578  41.4933586  26.1208572  61.3775902  41.1598625  26.9605827
  60.5510406  42.2703705  26.3485622   8.9273338  11.0751724  63.6448898
   8.0813332  10.6900415  63.8733368   9.5582829  10.3699179  63.7889404
  65.7034836  69.4123001  14.5039845  65.6272430  68.9128113  15.3169575
  64.9030304  69.9359970  14.4686756  56.4191780  21.0056801  84.8464279
  56.3235664  20.3808804  85.5652542  57.1401405  20.6581917  84.3213577
  65.2773590  16.6971951  58.8444252  65.4027176  16.2064190  59.6566162
  65.6021423  16.1131630  58.1591148  71.5022812  43.9828148  86.1332321
  71.5129776  43.2814598  86.7845535  71.1057816  43.5842285  85.3585434
  45.0485382  67.6455917  21.7207718  45.7376137  68.1175079  21.2531166
  45.2238808  67.8200912  22.6454544  29.3637772  35.0580978  84.6159668
  28.7325554  35.3053627  85.2917175  29.1267147  34.1602516  84.3837891
   1.2081163  35.6264191  21.0795727   0.2750807  35.5849648  20.8699112
   1.5049077  34.7176399  21.0319424  72.8075485  13.0299492  27.7152195
  72.9379959  12.7464390  28.6201134  73.1216812  12.2963018  27.1867180
  72.2758179  60.6447067   6.9699435  73.2230453  60.7382088   7.0711441
  72.0363846  59.9519730   7.5855966   4.7683053  29.0659332  33.1724319
   4.9188995  28.4330311  33.8745613   5.6194701  29.4831371  33.0394173
  58.0229645  31.0264549   4.0194283  57.1095161  31.3066769   3.9617925
  57.9929161  30.0806751   3.8751040  28.4865456  42.5811768  22.8799858
  29.2929688  42.3781052  23.3539829  28.6478729  42.2709541  21.9889355
  32.4654617  45.7416878  59.7726402  33.3532982  45.7152824  60.1294022
  31.9277630  46.0715942  60.4925537  33.2414322  34.9676590  88.4512787
  32.7992592  35.7626381  88.1534195  32.5301857  34.3641319  88.6660233
  44.5374756  58.8618965  27.0692348  43.9003983  59.1930580  27.7022381
  44.0159988  58.3531151  26.4483986  82.7897186  57.4776268  40.0004959
  81.9768600  57.7507019  40.4258499  82.8629074  58.0479393  39.2352409
  74.7692719  56.0067177  85.1476517  74.8295441  56.9527206  85.0146942
  73.8991623  55.8726158  85.5233612  64.1282730  13.7527857  32.9172859
  64.9090347  14.2257395  32.6292496  63.6766357  13.5196381  32.1061783
  72.3619690  49.1756859  74.9386673  72.2266464  49.2622871  73.9950485
  71.5984421  48.6871948  75.2462921  82.4077301  50.8159332  87.7648239
  82.3387833  50.7435532  88.7167892  82.1274414  49.9607735  87.4386749
  31.0612926  41.3229103   2.2009041  30.4801140  41.6745033   2.8753269
  30.4714909  41.0211258   1.5100404  75.9931335  32.2091446  18.4443970
  76.6266022  32.9248924  18.3928642  75.6464081  32.2598343  19.3351536
  10.8171234  18.5834866  18.5938473  11.5618553  18.0122242  18.7816334
  10.9763012  19.3658791  19.1218204  71.2040405   2.5272245  12.5891867
  70.2547302   2.4500616  12.4938831  71.4961853   2.9200788  11.7666607
  72.4305573  55.2175636  63.3313866  72.9455185  54.4891853  63.6785393
  73.0309372  55.6769371  62.7442322  52.1106682  41.5047722  35.8713570
  51.9912033  42.1452675  35.1701241  52.8593826  40.9787750  35.5903091
  26.5278530   0.4950489  46.7102890  27.0608444   1.2860527  46.7906952
  26.8373680   0.0784121  45.9060211  37.8417511   0.4753152  86.0386887
  37.1956482   0.1736963  85.4000854  38.6653824   0.0821740  85.7500687
  80.7070007  30.5536480  72.0943451  81.2475128  31.3335114  72.2203903
  79.8536911  30.8944454  71.8261108  82.1386719   1.0090032  49.8287964
  82.8520737   0.6237742  49.3199883  82.2753601   0.6825786  50.7181778
  76.7337875  30.2078514  14.6796322  76.6548615  30.7375145  13.8862476
  77.5680084  30.4761696  15.0647383  22.3794346  58.3194122  47.6183319
  22.5264912  57.5940971  48.2253990  23.2494106  58.5259285  47.2766800
  46.0804520  67.2750397  39.5818214  46.8471489  66.9814377  40.0739632
  46.0110626  68.2086945  39.7810822  83.9132462   1.6231656   1.1422383
  83.8344574   2.5543501   1.3494083  83.6059952   1.1755733   1.9305860
  84.3153687  56.0778732  48.6606140  84.1439590  55.3370667  49.2420387
  83.4588928  56.4860687  48.5338898   6.8936086   6.9630561  36.9596901
   7.4415293   7.0268960  37.7419548   7.3578835   6.3482790  36.3915977
  14.8941460  65.7889709   1.1292778  14.8617954  66.4282074   1.8410094
  14.0645227  65.3159714   1.1942760   9.5565853  68.3871994  28.2963238
   9.6796064  69.2139816  28.7627296  10.0540190  67.7480774  28.8065262
  77.6810608   3.6351955  49.2324829  77.4163361   2.7584183  48.9542427
  78.3052063   3.9200516  48.5650063  80.8605423  45.2826538   8.2890825
  81.1128387  45.5333672   7.4004211  81.5195618  45.6921005   8.8496847
  20.4097233  34.1667099   4.2374821  20.3620453  33.7825394   5.1129093
  19.5936928  34.6588020   4.1471019  20.8373909  68.9562454  42.8142166
  20.5385838  69.7346268  42.3440323  20.2107220  68.8537979  43.5304718
  86.7374802  61.6027985   0.3944520  85.8549271  61.7850800   0.7170991
  86.8018799  62.1000710  -0.4209031  27.1831932  44.0742569  86.3597794
  27.7262783  44.8229370  86.1132660  27.1432209  43.5366058  85.5688553
  46.5718842  62.7352638  65.7274246  46.6269760  62.0191917  65.0946274
  45.6864891  63.0826416  65.6195526  74.9651794  50.8631248  78.5822906
  74.0686264  50.5474052  78.4694138  75.0449066  51.0269241  79.5219955
  26.2574387  70.0140533  48.3902664  25.3246651  69.8346939  48.5085716
  26.2830963  70.7849274  47.8234100  22.3447227  35.7686424   7.5713077
  22.2329597  34.9170990   7.1486835  21.4848499  35.9665833   7.9423442
  30.2324982  58.9786720  50.4246178  30.9628067  59.4885826  50.7751465
  29.8044262  59.5686493  49.8042068  42.6951103  64.0858994  44.8089142
  42.3247719  64.6516571  44.1314240  43.5099297  63.7581978  44.4282455
  52.8333626  16.3894424  26.9355183  52.8401222  17.3235455  26.7266254
  52.9707298  15.9547882  26.0938301  83.2982407  21.4880085  12.5033960
  83.3714600  20.9989758  13.3229799  84.1790390  21.8292942  12.3486242
  57.8780632  47.8360100  11.2278500  57.4580841  48.0140877  12.0693598
  57.3676109  48.3399239  10.5940189  24.6533890  59.4402084  46.7294655
  24.8985424  60.1954346  47.2640305  25.2642365  59.4598045  45.9927750
  65.3912735  27.5507774  13.2593727  66.0020370  26.8463116  13.4760160
  65.7217865  27.9094810  12.4357672   8.7567644  60.4859581  33.4558487
   9.4269581  59.8572922  33.1877937   9.2452621  61.2819252  33.6656990
  14.3996820  32.1655273  73.1809387  15.1916828  32.1053734  73.7151184
  13.8051805  32.7121506  73.6947556  51.0218124  17.1247673  37.1193352
  51.5990524  16.4487438  36.7643433  50.6935577  17.5882206  36.3488197
  26.7674026  58.2919922  33.1061745  26.0685692  58.5883255  32.5230370
  26.3995285  58.3809090  33.9853745  63.3479347  65.5822372  42.1880302
  63.1394386  66.0631943  41.3871307  62.5970955  65.7352829  42.7616577
  49.6777229  16.0330486  77.3341675  49.8309097  16.0396042  78.2790070
  48.7268028  15.9679432  77.2461472  55.1747704  62.2037621  38.4898796
  54.9258690  62.9088669  37.8922920  54.6375542  62.3490219  39.2686806
  68.4354782  31.9579048  43.4196167  68.2992554  32.8449402  43.7525368
  67.5671234  31.5560627  43.4463234  39.6077347   7.0510001   3.3568280
  40.4220963   6.5505109   3.4074085  39.6862984   7.5550504   2.5468938
   6.5023117  21.5159893  47.3113937   6.2211237  21.6249390  48.2198524
   5.8238049  20.9697704  46.9145241  24.5457249  54.0995026  65.4006577
  24.4532757  54.2660751  64.4626083  25.4129333  53.7041435  65.4893875
  56.4004822  31.6618214  64.1077805  56.6091385  31.6195126  65.0410080
  56.6791191  32.5373917  63.8395119  10.9817896   2.2401171  63.6791763
  10.8353138   3.1858709  63.6610985  10.3863516   1.9184265  64.3560791
   4.0510292  20.8563862  29.2558212   4.3998842  20.0782566  28.8210297
   3.6986361  20.5303230  30.0839119  28.9369583   2.5984812  19.7719612
  29.0498104   3.4129736  19.2819633  29.7777843   2.4634221  20.2089977
   2.5588641  50.6361771  84.3868713   3.3180506  50.4818840  83.8246765
   2.2297704  51.4929619  84.1151123  82.0579758  71.0167007  61.6465034
  82.3316193  70.2296524  62.1175690  82.0467834  71.7032547  62.3134041
  42.1140862  54.4899216  51.6343727  41.1674728  54.5313911  51.7701645
  42.2970695  53.5592003  51.5058823  82.5522461   1.0984191  39.1067085
  82.2076645   1.7505829  39.7167702  81.8135757   0.8924800  38.5338364
  68.4126205  38.5780640  66.9257431  68.3112183  37.6319313  66.8218842
  68.9304352  38.8481293  66.1673431  31.6153259  57.6307259  30.4784088
  32.1382065  58.4003487  30.7031536  31.8613510  56.9751205  31.1310081
  76.9618378  38.0959816  10.0924091  76.6210251  37.5369225   9.3941774
  76.5704422  38.9533691   9.9253073  35.2129097  25.6907692  74.9123077
  35.5792160  24.8085022  74.8518600  35.3058243  26.0496655  74.0298157
  64.3364792  60.2935562  86.1347275  64.5619888  59.5289154  86.6645355
  64.4835587  60.0112724  85.2320023   6.5331049  60.7251167  45.6831474
   6.7684703  61.4410667  45.0930176   6.9677486  60.9418793  46.5079689
  35.1688423  48.2170143   9.0299091  34.9802094  47.3125725   8.7796440
  34.4075317  48.7127113   8.7283802  16.0310745  20.7952824   0.9464551
  16.5597630  20.0214748   1.1412463  15.5780001  20.5769863   0.1320216
  47.1018600  54.6491203  71.2274246  46.4930916  54.7796936  71.9544601
  46.6642456  54.0148735  70.6595688  27.7491302  34.5524330  73.7913284
  28.1858292  33.7427368  74.0557404  28.1214924  35.2232971  74.3636246
  61.7716904  38.0114594  24.5416050  61.8460426  37.0819397  24.3255177
  62.6691399  38.2861862  24.7296085   3.8216760  56.3245583  84.0949554
   4.0984063  56.1562538  84.9956970   4.1249967  57.2140999  83.9134521
  58.1691666  25.6087399  37.8852615  57.8185425  25.0650673  37.1797714
  58.4984932  24.9820557  38.5294991  82.8847656  23.9435616  69.8119049
  82.7004395  24.2013149  68.9086761  83.4410858  24.6442566  70.1521530
  51.0064507   8.9976387  20.2500191  51.5296097   8.2715893  20.5897083
  50.4543114   9.2601452  20.9865398  75.9965515  27.1986828  63.1899834
  75.1348801  27.2828770  62.7817345  76.3860779  26.4311867  62.7711182
  28.0918751   4.5178161  33.1958275  27.2055035   4.2671328  33.4560890
  27.9685555   5.2774401  32.6266212  46.5644760  28.8495960  25.1217499
  46.7203255  27.9809437  25.4924049  46.9331360  29.4543972  25.7655945
  25.9217777   1.6541983   1.6612546  26.4728012   1.9543127   0.9383879
  25.0632687   2.0383775   1.4834898  68.9110718   1.1695784   3.0939455
  68.6022110   1.6388638   2.3189580  69.1147079   0.2899933   2.7759907
  84.2980194  18.9135418  80.9052353  83.3845596  18.9099464  81.1912384
  84.2857208  19.3813553  80.0702286  48.0687599  42.1486740  70.5653763
  48.7070732  42.8296089  70.7777710  48.0356522  41.5988464  71.3482056
  17.3804245  54.6533012  81.7498398  17.0212765  54.8686218  82.6105881
  18.0290012  55.3372269  81.5830231  15.5676565   1.6658648  17.5250664
  16.4784603   1.5004423  17.2815456  15.0566359   1.3036575  16.8012600
  40.5759583  15.2791004  16.4990444  40.7898026  14.3639812  16.6808662
  41.4253960  15.7057953  16.3866882   9.5275946   7.5115247  60.3295555
  10.0980873   7.0221825  60.9222717   8.7862902   7.7757626  60.8744202
  37.5500679  64.5383148  10.7216196  37.8317871  64.5849228   9.8080025
  37.9119911  63.7121277  11.0420141  60.5526924  30.3701344   1.2242062
  60.4591599  31.1405315   1.7845366  59.9390297  30.5209618   0.5052461
  56.2570763   9.4680786  65.3746490  55.5654602   9.3620119  64.7214661
  56.8366051   8.7194281  65.2335815  71.8597183  19.3688145  23.2535381
  72.2901688  19.2868385  22.4025269  72.5796738  19.4429626  23.8799572
  79.8641891   3.1551428  82.8446884  80.3932190   3.0658815  83.6373978
  79.4319382   2.3065472  82.7483978   1.5298277  15.2166882  30.7681770
   2.1082571  15.0919600  31.5205688   1.1910979  14.3416796  30.5788250
  27.1179676  69.1166458  10.3424492  28.0281010  69.4128036  10.3288736
  27.1610184  68.2261887  10.6909504  78.6762314  62.1100464  58.2666397
  79.2170029  61.6186142  58.8849335  79.1288605  62.0195999  57.4280815
  70.0551987   2.7868080  81.3774567  69.7890701   1.9843844  80.9285431
  70.9755478   2.9000905  81.1400604  17.1143837  42.8812561  15.3444872
  16.6913624  43.2473450  14.5677881  16.4637108  42.9782982  16.0397835
  85.9456406  69.6817780  89.0708847  86.4311142  68.9496384  88.6907349
  85.5456619  70.1197815  88.3196106  40.0481110   5.3962140  72.7004929
  40.8080902   5.2604761  72.1345901  40.4186859   5.6891594  73.5330124
  80.0208282  19.3824558  52.1143990  79.1127243  19.5553646  51.8660393
  80.4704971  19.2255459  51.2840919  35.4752884   5.2593098   8.0875883
  36.0146332   4.8582377   7.4060574  35.3229485   6.1521568   7.7779932
   5.4419489  33.7953415  68.2825775   4.5456381  33.6856575  68.6001053
   5.7234483  32.9106407  68.0495682  80.3123779  16.0341492  22.0152664
  80.4824982  15.9142675  21.0809650  80.2000351  15.1460228  22.3541489
  30.5509415  40.5315170  77.5381622  30.3396568  41.2501678  78.1340942
  29.7667770  39.9825935  77.5373993  77.9888687  10.9639559  44.7475052
  77.8117523  10.0760202  45.0580368  77.4475021  11.0559483  43.9634781
  78.4084625  33.8572350  41.6186333  78.9953766  33.7796288  40.8664818
  77.6611176  33.3014870  41.3976135  25.8562546  34.0190010  12.6709213
  25.4562359  34.1040230  11.8054810  25.1273479  33.7993355  13.2511587
  82.0960770  42.2067986  73.8652725  82.8920822  41.8866959  74.2896957
  82.2431488  42.0516548  72.9322510  67.8328094  24.7961884   1.0073454
  67.2796249  25.0291691   1.7529560  68.7038193  24.6728115   1.3846415
  74.6308823  36.4356651  13.2598495  74.3129578  37.0534935  12.6014814
  73.9787827  35.7349739  13.2654257  78.1241150  12.6899929  20.8018627
  78.9653015  12.3203735  21.0702229  77.4716110  12.1407690  21.2364025
  78.4303894  42.3235359  68.8750000  78.5645142  42.3393784  69.8226242
  79.2091141  41.8866158  68.5301514  20.5874710  47.1558418  49.4604530
  19.6701393  46.9829292  49.2487183  20.9539413  47.5227356  48.6558914
  26.0646973  23.0774422  85.4918060  26.0500393  23.4957466  86.3526382
  26.6078262  23.6541176  84.9545059  81.1003876  51.8255501  31.4414654
  82.0035553  52.1264038  31.5414829  81.1764297  50.9859352  30.9881535
  73.2372818  70.4247665  78.0682068  73.9352570  69.8468781  77.7598267
  72.5686417  69.8313522  78.4102783  10.7951326  26.1390762  55.1089706
   9.9497347  25.6963463  55.1833000  10.5837851  27.0706749  55.1697044
  17.0758629  14.4755144  89.3458633  17.6614761  13.8735466  88.8866043
  16.8990288  15.1691580  88.7103958  52.5249557  66.5435715  82.4065399
  52.8431244  66.6830521  83.2984695  52.9048653  67.2625122  81.9015427
  45.3080063  25.5991096  24.3078880  45.5395393  24.6893425  24.4948387
  45.6628151  26.0932693  25.0469074  80.3064880  23.1570873   7.2767892
  80.8519974  22.4482517   6.9358974  80.8323288  23.5502243   7.9733248
  14.3981123  35.1168556  61.2401047  14.9846992  35.7092667  61.7104187
  14.8355827  34.2663307  61.2783432  54.9700890  35.6774788  22.0222988
  55.7354469  35.1617203  22.2761688  54.6937218  35.3006783  21.1869087
  62.2173538  31.4947796  18.5155277  63.0282135  31.1625996  18.1303120
  61.9127731  30.7853203  19.0813274  84.6158524  23.6435509   9.8104763
  85.5050583  23.9644318   9.9607277  84.5366287  22.8805466  10.3829985
  43.3603554  18.9783649   5.1255846  43.6314087  19.6362877   4.4853497
  44.0418205  19.0028343   5.7973270  85.0441742  54.4697495  84.3626480
  84.6554642  53.9194374  85.0425720  84.5561676  55.2917366  84.4117584
   0.6779618  13.4762049  62.8632469   0.7575041  12.5958652  63.2305412
   0.9746467  14.0560741  63.5646439  17.1244946  71.6680298  43.2192917
  17.2098923  70.9517975  42.5900421  16.3977394  71.4052505  43.7840996
  33.7304420  37.5419426  31.6147537  34.0662689  38.0604057  32.3459511
  33.8117027  36.6342392  31.9075069  76.2911987  55.8451729  76.8459320
  76.4682541  56.2249374  77.7065506  75.6970367  55.1160202  77.0235291
  33.7378273  40.7540665   5.7809863  34.1527023  41.0941887   4.9882517
  34.4465752  40.3180122   6.2540226  24.7982178  11.8153563  20.8699245
  24.9886780  12.1495619  21.7464314  25.4454403  11.1238785  20.7313805
  58.8299751  28.8099613  84.8443909  59.1193962  27.9620285  84.5075226
  59.4096642  29.4451885  84.4240570  45.3418770  49.7654610  44.9460411
  45.9255638  50.2361031  45.5410538  44.6060905  50.3624725  44.8102989
  74.7959290  64.6679382  78.0236053  74.8471680  63.8093910  77.6034851
  75.6502304  64.7822342  78.4399490  82.0546265  27.6568184  46.1797752
  81.9184494  27.3287582  45.2909203  82.7739792  27.1268253  46.5231018
  28.3876076  47.6371307  82.7025452  29.2554321  47.9233665  82.9874649
  27.9468956  47.3695793  83.5090332  29.5092258  28.6436062  20.0528812
  29.9063015  28.6159019  19.1823673  28.5704689  28.7267494  19.8853951
  29.0467606  21.9656754  86.0402298  29.9290257  22.1913548  85.7454300
  28.5137615  22.7248249  85.8039322  52.7201958  13.7355776  64.8230743
  53.2851791  13.0100269  64.5573654  53.3053894  14.3400841  65.2795334
  12.1605892  48.5470200  50.0990677  12.0651627  49.4209480  50.4777107
  11.2705097  48.1953659  50.0809097  28.7054482  41.3321114  20.3795052
  29.5638294  41.0193214  20.0938931  28.0814342  40.8385963  19.8472652
  27.2851677  56.5553207  35.4383812  28.0128365  57.1282539  35.1965637
  27.3976002  56.4087868  36.3775940  75.6024933  19.3488216  86.4945068
  75.1254959  19.9880104  87.0237961  76.0882874  19.8771248  85.8611603
  16.1706181  28.1959286  11.8752289  17.0645409  28.4075680  12.1441927
  15.7699823  27.8130302  12.6556845  52.2724457   8.9582357   4.0001411
  51.8179283   8.6095181   4.7669792  53.1997604   8.9231215   4.2348413
  58.1132622  38.1198845  10.5723066  58.6447449  37.6451035   9.9332895
  58.7252884  38.7259941  10.9897833  14.2748680  32.4146538  88.6654282
  14.5060577  32.4511795  89.5935745  14.5013008  33.2812843  88.3279190
  51.5007210  71.2424774  59.1362038  52.2467346  71.6364975  58.6840515
  51.7740593  70.3415909  59.3091698  36.3195915  25.3015614  67.0936279
  36.8447304  24.5027390  67.0452194  35.4198189  24.9909477  67.1944199
  60.2821655  68.8237915  66.0468521  60.6241875  69.5411224  66.5804214
  60.2417221  68.0780869  66.6456146  31.9970016   2.7902322  20.8366489
  32.1638298   3.7322509  20.8682804  32.8004570   2.4167328  20.4744453
  55.3780479  56.0526962  77.1626968  54.8387184  56.0768585  77.9531250
  54.7604218  55.8606262  76.4570923  72.9080124   5.6318102  53.6470146
  72.4357300   4.8492355  53.3628426  73.0117569   5.5190568  54.5918694
  25.6243343  46.9039154  86.2927628  25.1211872  46.2726517  85.7783890
  25.0403557  47.1472359  87.0110931  13.3074026  18.2441692  26.8099251
  13.3750229  19.1324673  27.1600475  12.4809332  17.9111614  27.1596203
  12.5871296  25.9020405   2.9590056  12.7471704  26.0546093   3.8903172
  13.4026976  26.1613026   2.5302122  13.4231567  22.0237923  11.8389368
  13.1829376  21.1149101  11.6587715  14.1059132  21.9631405  12.5070658
  77.9201279   2.6497383  77.3359451  77.4480209   3.1785715  77.9791260
  78.5550079   3.2529440  76.9495392  80.5699539   3.8271224   5.8893604
  80.8736877   3.5715408   5.0183520  79.9388351   4.5281806   5.7267780
  81.7674942  65.5664597  25.5356960  82.5102158  66.1666946  25.4699936
  81.1890259  65.9710541  26.1821480  39.5942307  10.9992094  23.9669685
  39.1454124  11.7688332  23.6170044  40.5153809  11.1385860  23.7472286
  66.3659210  14.2056923  22.6828022  66.3103256  14.7861576  21.9237232
  65.8172836  13.4561100  22.4518070  25.8344250  18.9648113   0.4312531
  26.4642925  18.7456989  -0.2553965  25.3837128  19.7430038   0.1033703
  77.9529037   0.8435410  70.5985947  77.4671402   0.9243808  71.4194031
  78.5099869   0.0754235  70.7246246   9.3141508  60.1129303  65.1752625
   9.5744419  61.0277557  65.0676651   9.6921873  59.6657104  64.4180832
  56.6388512  43.6632156  60.9771500  56.6146584  43.4915504  61.9185181
  57.5646744  43.8113441  60.7844162  25.8610477  60.7257614   4.1301441
  25.7633915  61.1451492   4.9850168  25.3164959  61.2497711   3.5426834
  41.6131325   1.6617249  35.6795692  40.9147491   1.8425622  35.0504494
  42.3687897   1.4315666  35.1389771   8.4586935  67.7806015  81.5705490
   7.7866364  68.3276062  81.1639099   9.1050835  68.4031448  81.9034882
  63.9305115  29.1232281  59.3580971  64.5892715  28.4781380  59.6152344
  63.2387314  29.0334396  60.0135460  14.6050797   5.1280437  41.0618172
  14.0317116   5.7290502  40.5861359  15.4901485   5.4335666  40.8629684
  52.1800613  14.0035868  77.8346786  53.1085396  14.1979828  77.7067261
  51.7421532  14.8486004  77.7325974  75.0691452  11.3255653  29.4209251
  75.8345566  11.8993626  29.3873081  75.3586884  10.5152206  29.0017147
  72.7485199  58.0520477  42.2660828  72.2327194  58.0708923  41.4599648
  73.2852173  58.8435936  42.2255783  20.4350605  54.5789299  72.7313690
  20.2753773  54.4196053  71.8011246  20.2206993  55.5034180  72.8562775
   3.0124648   4.5276203  12.8573360   2.2605424   5.1096091  12.9674873
   3.6077299   4.7684150  13.5672016  44.6358070  35.3168373  16.8165951
  44.4063416  35.7485771  17.6395035  45.1409760  35.9719963  16.3351345
  83.6662140  53.7445831  37.7346115  84.4153214  53.5866814  38.3091850
  82.9178009  53.8058929  38.3282051  27.3131123  36.8885689  78.6070557
  27.5702133  35.9890327  78.8094482  26.5708542  36.7968712  78.0096664
   5.6101213  24.3543205  84.3122787   4.6977205  24.5405922  84.0907898
   6.0483484  24.2639027  83.4661026   1.7199576  22.4758034  52.4651146
   2.6550267  22.4153290  52.2696114   1.5265679  21.6791496  52.9592552
  75.8411407   3.4209020  79.1156921  75.5115051   3.4898593  80.0116959
  75.1343842   2.9924946  78.6327820  38.6120262  53.5514832  86.0811005
  38.8435326  52.7343903  86.5226822  39.4521599  53.9303246  85.8224716
  17.1189613  52.1982803  50.5696907  17.2127628  51.9728317  49.6441612
  17.3890877  51.4079514  51.0372887  40.7246628  51.4863014  51.6536064
  41.0955925  51.5355186  52.5346413  41.2382202  50.8079414  51.2150688
   7.9555173  35.2897835  45.0939903   7.8069167  36.1339989  45.5199623
   7.1099830  34.8439522  45.1443901  71.5235825  60.5475616  49.1830711
  71.3877335  60.7460442  48.2565804  71.7235565  59.6116486  49.2006989
  62.0673866  51.4161415  85.7423706  61.4050751  50.9224243  85.2588196
  61.5661430  51.9447975  86.3632584  28.1615715   1.1913842  35.9325218
  27.3403549   1.6608958  35.7862549  28.8214722   1.7161199  35.4792938
  28.8658085  25.1647243   8.6455507  28.9623241  25.8713722   8.0071421
  29.3007851  25.4921417   9.4328403   3.9005897  10.4113941  74.0244904
   3.9213476   9.9114265  73.2085037   4.7071576  10.1647511  74.4770889
   5.7810249  51.1682510  18.4675007   5.8388081  50.4867706  17.7978172
   4.8657312  51.1522331  18.7471676  52.4616432  41.0836792  23.5008678
  53.2621193  41.1029739  24.0253677  52.5611382  41.8098259  22.8852043
  64.7574921  53.7689285  56.5518570  64.1808624  54.5307541  56.4939537
  64.4206696  53.1628952  55.8919220  54.5074615   9.8404989  86.8271790
  54.7506943   9.5565348  85.9460220  54.4165649   9.0275497  87.3242493
  48.2657776  58.0704079  45.5418663  48.5600281  58.8305817  45.0400848
  48.9584503  57.9262657  46.1865845  35.1097107  39.1886711   7.4145279
  34.3352013  39.1421432   7.9750690  35.8246765  38.8731003   7.9672184
  44.6264229  58.1979218  20.1809769  44.5650520  58.4855194  21.0918846
  43.7190742  58.0480728  19.9154701  69.0240555  50.3575287  45.0284576
  69.1579742  50.3394165  45.9760704  68.4798126  49.5908852  44.8487778
  58.2248497  61.3669777  13.1242714  57.5055389  61.9675865  12.9290991
  58.9525185  61.9373055  13.3721809  42.7789459  47.7609634   1.1782987
  42.1503296  48.4811478   1.1291844  42.3000259  47.0019112   0.8455652
  50.1264496  11.7144594  18.6672115  49.3836365  11.3004742  19.1066170
  50.1414108  12.6073027  19.0119400  70.0494995  22.9511471  31.3728828
  70.6642685  22.6168804  30.7197723  70.4259186  22.6882629  32.2127838
  80.7527313  27.5833836   1.6758415  80.6050110  27.5973015   0.7302113
  80.3699799  26.7553711   1.9658881  56.5754166  35.9782410  12.6164846
  57.4317818  35.7520752  12.9794188  56.7490349  36.7206688  12.0377874
  76.9654236  70.4759521   9.3168173  77.5650177  70.0008087   8.7415276
  76.5926590  69.8011322   9.8841696  18.1520653  46.7424164  25.1876907
  18.1328983  45.8359985  25.4947281  17.4251385  47.1655083  25.6446419
  67.5499420  12.5428858  86.4860764  68.0764236  11.7790203  86.7218018
  68.0820007  13.2922764  86.7535934   4.8507414  36.1470413  36.0257607
   4.1106472  35.8126564  35.5191269   4.8469057  35.6252823  36.8282471
   6.6526666  49.1678467  67.5945206   6.7488484  48.3804359  68.1302032
   6.6429133  49.8872948  68.2258148   7.8041372  19.0635681  32.2946777
   7.8168030  19.3040066  33.2211037   7.0725760  18.4512959  32.2161179
  63.8322525  40.6385345  77.9097290  64.5564041  40.5915489  77.2855225
  63.0450554  40.5847931  77.3678207   9.7673931  22.9470634  11.8202820
  10.4496155  23.5614300  12.0911303  10.0420523  22.6515827  10.9522467
  73.1276016  45.5922546  70.5926666  73.6114349  45.8867722  71.3642883
  73.4062424  44.6851616  70.4670639  53.1436653  37.9065514  77.1209641
  52.5299873  38.1218758  77.8232956  53.7842903  37.3262787  77.5321960
  69.2860794  25.7349358   8.5215797  68.9625473  26.6106205   8.3100796
  70.0610504  25.6263142   7.9703493  53.2446861  66.3660889  55.0109673
  52.6279526  66.9485397  55.4543915  53.9941444  66.9241409  54.8033028
  68.5409851  45.4062309  37.2092056  68.4318314  46.2833900  36.8419037
  69.3690567  45.4481850  37.6874962  41.9051056  36.7707481  25.3582439
  41.3499756  35.9991531  25.4709377  42.7984581  36.4273529  25.3733521
  49.1781006  46.3653259  85.3107681  49.7152367  45.6095924  85.0728989
  49.5707626  47.0974274  84.8352966   5.7737999  49.4821587  55.0818176
   6.2110286  48.6753235  55.3539848   6.3438673  49.8468857  54.4048920
  42.0409508  47.3621750  82.4001083  41.4524078  46.8810043  81.8184509
  42.5505257  47.9226913  81.8149719  61.3331566   5.0077157  69.8693466
  60.6968155   4.7275920  69.2114487  60.9190025   4.7998595  70.7069092
  10.6184883  46.7412415  69.1203766  11.4348927  46.7470932  69.6200562
  10.5712252  47.6132965  68.7285690  16.6134663  64.7781677  66.6527863
  17.0557938  65.1494751  65.8894348  15.9358349  65.4178238  66.8716049
  25.1550198  64.8904343  37.4961166  25.8633556  64.5290451  36.9633026
  24.4857864  64.2060852  37.5008698  80.2102432  34.3886871  88.0798492
  79.6815186  34.5886269  88.8523178  80.8354263  33.7296333  88.3815460
  78.1973801  13.7533150  12.9285851  78.3821335  13.9921103  13.8369207
  77.4005432  13.2251835  12.9771090  48.3847771  31.0341473  56.9014359
  47.5191879  31.2934074  57.2173080  48.2391777  30.7708626  55.9927483
  19.8232727  33.2956963  69.0727158  19.5540943  33.5830650  68.2002563
  20.4832993  33.9344101  69.3422318  13.5769768  59.0163498  18.0782738
  13.6233263  58.0895729  18.3131523  14.0073137  59.4690704  18.8035946
  14.9526491  68.1438141  26.7040329  15.6331520  68.5459137  27.2439022
  14.7634363  67.3116989  27.1376457  67.1930313  20.7360840  78.0061874
  67.3291855  20.5992432  77.0686569  67.9798889  20.3781414  78.4172363
  22.7163048  55.9904594  48.8830528  23.6181831  55.9891472  49.2037468
  22.5102406  55.0661201  48.7438850  69.5304413  50.8405571  72.7210999
  69.9874420  50.0337868  72.9588165  70.1147690  51.2720299  72.0976944
  60.0336342  59.5831795  64.9514389  59.8727074  58.7842712  65.4535141
  59.6998520  60.2869911  65.5077362  43.7924385  58.9912758  68.8287430
  44.5333252  59.5638313  69.0274887  44.1528282  58.3293381  68.2386703
  45.3991623   3.0472107  73.1898575  45.1392288   2.5778801  72.3971481
  46.3058357   3.3076599  73.0275650  51.1830444  62.2351456  13.0232096
  51.4407196  61.7420387  13.8021078  51.0257301  61.5658760  12.3572073
  47.7246552  67.4199677  16.7078838  47.7692528  66.5298157  16.3587856
  48.2921867  67.4037247  17.4785175  47.4127655  65.0700684  14.9980536
  47.3160896  64.1875076  15.3557911  48.2612877  65.0573959  14.5552406
  54.0988693   9.3632193  63.6167564  53.4316254   9.1037502  62.9813843
  54.2415695  10.2944536  63.4474297  74.2209930   8.7955675   8.9096708
  74.5472260   7.9041457   8.7864933  73.2890091   8.7408762   8.6983681
  69.7708969  39.3899956  89.2089005  69.7217102  39.4005547  88.2530212
  68.8707504  39.5420341  89.4967422   8.3779144  32.0922852  87.7090988
   9.0410814  32.1411247  87.0205841   7.5649776  32.3555298  87.2777405
  62.5400009  39.7443886  16.4127216  63.3435135  39.3880997  16.0337009
  62.4820824  40.6323738  16.0600796   3.8957403  39.1342430   2.8016825
   3.4076395  39.7677460   2.2756975   4.1382542  39.6158447   3.5925546
  61.2450066  49.6837273  77.6878281  62.1179619  49.4220963  77.3950348
  60.6906548  48.9280167  77.4933319  42.9144135  65.7319260  13.6346521
  43.8644981  65.7721100  13.5252924  42.6646767  64.8906937  13.2523031
  26.0731735  55.2365952  21.7803364  25.3546257  54.6042099  21.7773495
  25.6443672  56.0858612  21.8857117  23.8108807  15.1347857   8.7491322
  24.2210636  14.3614101   9.1362658  24.2958183  15.8730526   9.1179552
  57.0383186   4.9226522   8.8563747  56.9914703   4.1247478   9.3830481
  57.6859016   4.7252936   8.1796789  78.6920929  24.6531048  50.4459152
  78.4669571  24.9118061  49.5522614  79.2085190  23.8540211  50.3410301
  35.2000275  68.8191910   8.1977882  35.5751991  68.3495560   7.4528575
  34.4387817  68.2971802   8.4512510  53.6494026  15.2246790  40.3740768
  54.1706505  15.1606760  39.5738029  53.7281837  16.1412315  40.6385651
  36.9082832  19.7686901  82.4865112  37.6915779  20.0384750  82.0070267
  36.2735519  20.4655113  82.3198166  33.6135979   6.2224455  85.5812454
  34.3146782   6.3166595  84.9363861  33.8963280   6.7581353  86.3224106
  29.1623650   1.9721904   4.3202806  28.6518879   1.1727864   4.4491196
  29.3194466   2.3013077   5.2052884  80.3542709   0.6939284  17.0017815
  79.7267990   1.3490528  16.6962910  79.9882202  -0.1417175  16.7120686
  22.1977272  44.0541687  69.9573975  21.5076046  43.8981590  70.6020889
  21.8400364  43.7151070  69.1368408  58.2931862  40.7741814  25.2861538
  58.8979530  40.2082291  24.8063736  58.5959587  41.6624832  25.0977917
  42.8875618  52.0217972  24.8561058  42.0059891  52.2025909  25.1822605
  42.7560196  51.7520256  23.9471779  49.1537094  20.6390972  10.4820070
  48.5075569  20.1430759  10.9846811  49.3078308  20.1084480   9.7004128
  58.8364716  55.3697701   5.1079102  58.6548386  54.6731758   5.7387819
  59.2805748  56.0461845   5.6192489  68.0918884  29.7055550  17.7545624
  67.6405182  29.6945934  16.9105396  68.7426453  30.4022942  17.6691265
  85.7722778  57.2572556  75.3405457  85.8894958  57.9029121  74.6436844
  85.0853500  56.6755409  75.0150223   3.8895600  14.2919159  40.6405792
   4.1390777  15.1031790  40.1980591   4.3811874  14.3060408  41.4617577
  68.9780121   9.9389811  87.0495682  69.4001236  10.0049963  86.1930084
  68.8521271   8.9994917  87.1827774  15.6113539  70.6531448  82.3246536
  15.8816433  69.7618942  82.5456390  15.9935875  70.8123169  81.4616394
  39.9143028  58.5102081   4.1217508  39.5852356  58.5994225   3.2273304
  39.1334381  58.3392830   4.6483126  67.5511703  56.9649086  59.9835358
  66.7167358  57.1695099  59.5615273  67.6986618  57.6924057  60.5878792
  34.8678513   2.3340864  44.0892525  35.3438568   2.8893564  43.4717369
  33.9447403   2.4975567  43.8959312  65.0330582  37.9788017  42.6570587
  64.4390640  37.6556206  41.9795952  65.7332382  38.4163895  42.1728096
  20.2853642  45.1980057  57.0603065  19.6806622  45.4459763  56.3609657
  20.0907555  44.2762070  57.2295570  42.7714424  19.0499802  65.9790726
  42.2520676  19.1475086  65.1809692  42.9900551  19.9464455  66.2336197
  11.3681250  42.0155182  67.3755035  12.2759275  42.2300644  67.5902023
  11.1958008  42.4899483  66.5622025  29.0581455  69.9231567  17.8747253
  28.8483849  69.8466263  18.8055191  28.2064648  69.9693985  17.4402885
  22.3796005   8.2696056  24.1620331  22.3470726   7.3241444  24.3078995
  21.6492786   8.6162882  24.6745510  83.9598236   4.1881809   1.9193364
  84.1619110   4.7462673   1.1683831  84.3365173   4.6493812   2.6687531
  54.6267395  24.5665455  74.3557739  54.3391724  25.2387009  74.9736328
  55.2878227  25.0025425  73.8180847  28.6738911  51.9215927  40.0241890
  28.5608692  51.9752769  39.0752029  27.8948441  52.3468590  40.3826103
  49.3286133   6.9489541  17.7112904  49.5042076   6.6902413  16.8065987
  50.1858559   7.1905446  18.0620022  21.9579582   4.6578345  31.1504993
  21.7959137   3.7208798  31.2604485  22.0132332   4.9977641  32.0435982
  60.4975548  52.8626671  55.3510323  59.9060059  53.5373039  55.6844521
  61.2268867  53.3510513  54.9692039  57.8829994  55.3784409  67.5511169
  57.9483871  56.0561142  66.8782730  58.3344460  55.7493553  68.3093033
  52.0303650  26.8696842  13.8568611  52.7423553  26.2520866  14.0238256
  51.4134941  26.7236404  14.5740585  17.4230042  48.0261040  52.1810722
  16.6085320  48.0408821  52.6837120  17.6070328  47.0958786  52.0505066
  28.9492474  15.6847591  12.7154617  29.3048592  14.8078651  12.8597832
  29.4736538  16.2519112  13.2807646  77.8494415  63.9398766  14.7997265
  77.8024139  64.1136017  13.8595982  77.2846222  64.6041718  15.1945944
  85.4459076  51.2572937  83.3899536  85.3390961  52.1585274  83.6942673
  85.9261169  50.8219872  84.0943222  23.0792847  48.0002632  79.4725723
  22.6555786  47.3820992  80.0680389  23.1708927  47.5172195  78.6512909
  35.6271820   5.6229935   0.3857332  36.1307755   4.8182697   0.5083923
  34.8597984   5.3509417  -0.1175982  23.1121120   3.3989966  39.4442596
  23.1793232   2.5295193  39.8388786  23.1609993   4.0028119  40.1853752
  45.3776321  28.1475639   5.0718369  45.7515335  28.6986370   4.3842683
  45.6913834  28.5369930   5.8880100  80.9935913  29.5182476  18.5140953
  80.2999649  30.1751137  18.4537163  81.7552795  30.0027905  18.8323460
  17.4327335  44.1930313  21.9193859  16.5507126  44.5640945  21.9435482
  17.7276707  44.2169800  22.8296986  69.3788986  14.4132442  87.3738632
  70.1513901  14.0305099  87.7897949  69.7266846  15.1118536  86.8195877
   9.4889708  64.8958740  13.2221003  10.4176531  64.8708878  13.4526596
   9.0883579  65.4397202  13.9003124  62.8594971  58.0004349  23.4616661
  62.7653770  58.7683640  24.0252800  63.2895508  57.3484612  24.0150318
  72.9707642   3.9993343  48.9387321  72.9663620   4.7527704  48.3483543
  73.2049026   4.3648891  49.7918358  53.4853363  24.9394817  49.7651978
  53.2831001  24.4981518  48.9402390  52.8186798  25.6221256  49.8413391
  40.6006355   0.9607258  81.4445496  39.6605911   0.8932800  81.6118774
  40.7468491   1.8905699  81.2706451  77.0029678  65.3534088  79.2202225
  77.7575226  64.9394379  79.6391602  77.1462173  66.2919159  79.3423386
   7.7984867  66.9265518  56.6971283   8.2610273  67.0894852  55.8750954
   7.3006835  67.7287521  56.8549271  64.7461014  33.6325684  72.3180466
  64.8822021  32.7577782  71.9541092  64.4611206  34.1605797  71.5722504
  14.9052868   7.0351152  64.4584503  14.3580160   7.3658314  63.7461624
  15.4712677   6.3843174  64.0432892  72.2261734  10.6197138  54.0129509
  72.2426453   9.8991337  53.3830872  71.7165146  11.3046122  53.5800591
  46.6971321  19.4603882  25.3004456  47.1946373  18.9755859  25.9589939
  47.0562668  20.3470383  25.3337288   3.3130722   1.7184242   5.8988657
   2.9255309   2.5925503   5.9429960   2.7496915   1.2369618   5.2930374
  15.7648363   0.9998236  10.7898865  16.0216656   0.3136217  10.1739340
  15.2459526   1.6100786  10.2658825   6.1512880  63.5060539  42.5520325
   6.9926472  63.6173210  42.9947128   5.5045438  63.5301857  43.2572784
  47.8062744  27.2049885  20.3853951  48.1233444  26.7715588  21.1777554
  47.0989380  27.7734089  20.6900349  60.4743881  33.7232437  46.3761482
  60.1624451  33.7170525  47.2810707  59.7653694  33.3195038  45.8756294
  13.2280798  62.7464752  69.4743576  13.9573059  63.3174744  69.7160645
  12.7979069  63.2009468  68.7500381  16.7933331  60.0319786   4.2053733
  16.6853867  60.9426994   3.9312000  16.6347542  59.5222549   3.4108512
  55.4345703   0.1361124  53.6564941  54.8791733   0.5945793  53.0259590
  54.8297005  -0.1630310  54.3353729  80.1071777   1.3461890  19.7565613
  79.8773804   0.9778597  18.9034729  80.5712051   2.1575127  19.5500107
  80.8943939  55.2220459  81.5599976  80.2962723  54.5811615  81.9443741
  81.3579178  54.7375031  80.8769226  85.8987961  53.8738976  67.1129532
  85.8802185  53.6854477  66.1746674  86.5309067  54.5872154  67.2015076
  79.6279526  50.6107941  40.5311165  79.4741287  49.8951607  39.9143181
  80.5399475  50.5026054  40.8008957  39.5512772  47.6672211  50.2275543
  39.0936127  47.9933434  49.4526863  40.4789047  47.7961731  50.0298042
  74.3948212   8.7757902  88.1102448  74.4556961   7.8401537  88.3028870
  75.2431793   8.9969025  87.7260132  68.3123322  49.0042076  84.0747147
  68.6145096  48.6775818  83.2272263  67.4129257  49.2898903  83.9144440
  39.0207176  32.7212296  22.5933418  38.6065292  33.3440247  21.9960079
  39.9031792  33.0674133  22.7261925  40.5051079  33.4786720  87.3507385
  39.9666901  33.1969261  88.0903091  41.3913155  33.5362968  87.7078781
  19.5600147  39.2851830  66.1560593  20.1691837  39.8341751  66.6497726
  20.1097107  38.8335037  65.5157013  47.3098640  52.2787437  19.8682079
  46.3816299  52.2155685  19.6432152  47.7578773  51.7940826  19.1749420
   1.9538431  12.2675314  60.1708183   1.7601088  12.7434006  60.9784355
   1.6705346  12.8568325  59.4717522  60.1223679  63.0876198  58.1379166
  60.1802559  62.6865234  59.0051003  59.2007179  63.3295441  58.0469666
  54.3097763  51.6238785  19.6711407  54.3588867  51.4632416  20.6134872
  53.9415817  50.8176727  19.3096123  54.9760017  62.9409943  12.8493423
  55.2047501  62.6574860  13.7345152  55.1643867  62.1812935  12.2983408
  10.7579336  19.2685966  82.9961014  10.8291817  18.7840137  82.1737061
  10.9072666  20.1814632  82.7499161   7.6606679  35.1527367  88.9317703
   8.5030365  35.6072884  88.9262466   7.5747156  34.7969017  88.0473404
  49.9746590  56.7720947  88.2722931  49.7778740  57.6982880  88.1320343
  49.6597595  56.3376236  87.4796371   9.6306391  10.4739704  29.9951038
  10.4861202  10.2486267  30.3606224   9.7377300  11.3670959  29.6678562
  32.6057701   8.7098217  73.9044876  31.9212780   8.7654810  74.5712738
  32.3668022   7.9462228  73.3790894  62.9974823  25.6093960  57.9713326
  62.7263680  26.2064419  57.2740059  62.1904144  25.4159470  58.4482536
   9.4017878  21.8697281  67.5779572   9.7342749  20.9767170  67.6685867
   9.0485277  22.0825977  68.4417419  40.4494934  43.6457710  32.8176537
  41.2984734  43.2846718  32.5625610  40.4552193  43.6182289  33.7744408
  65.5304489  33.5596542  67.7612991  64.7438354  33.3943367  68.2810516
  65.1996231  33.8664665  66.9171066  84.3823929   5.9512138  73.3311768
  84.3776245   5.9343691  74.2882156  84.4497757   6.8796630  73.1082993
  44.4457245   7.4927464  39.3254967  44.3411217   6.7155924  39.8744240
  43.9312630   7.3028488  38.5409584  61.0309334  46.6829987  24.6033211
  60.4745178  46.1621933  25.1824551  61.7608986  46.9594307  25.1573677
  66.3407211  41.7845116  45.8012733  65.8687668  41.4258919  45.0496902
  66.4271393  42.7177467  45.6067505  40.7738876  44.7754974   4.4353061
  40.4082680  44.3241844   3.6744673  41.0640030  44.0712013   5.0149894
  45.1761780  54.8973579  87.8160477  45.4949226  55.5196915  87.1623383
  44.7505150  55.4422607  88.4779510   8.3657980  38.9346542  65.0627899
   8.4660330  39.4938660  64.2924194   9.1589432  39.0893135  65.5758514
  68.5507431  56.8763771  10.6857147  67.6397324  56.5828629  10.6977139
  68.6959686  57.2423744  11.5581741  52.5552826  62.6137390  54.4969635
  51.7177238  62.4086876  54.0814171  53.2016678  62.5053062  53.7993507
   8.1675739   4.4598598   3.8556197   7.2196636   4.5539598   3.7615798
   8.3173237   4.4766674   4.8008838  10.0870047  33.5635376   9.8307705
   9.2490349  33.3535461   9.4185276   9.9672718  33.3273239  10.7506065
  84.2703323  28.4636459   6.7013006  83.9771423  29.2110233   7.2225499
  83.7780685  28.5342083   5.8834176  60.2725639   5.3012943   0.5908220
  60.8575630   5.0174365   1.2932677  59.4989166   5.6362958   1.0441185
  82.5138550   7.9067292   3.4510176  82.5184021   8.5176182   4.1879201
  83.0471802   8.3351221   2.7814796   6.8620710  65.1119308  35.1940155
   6.7556868  65.2736816  36.1314316   7.7964072  65.2433167  35.0328140
  15.0208330  54.7071686  12.8409786  14.0700588  54.7094650  12.9516735
  15.2618055  55.6333122  12.8204079   6.5381999  15.7409573  25.2093372
   6.5058088  14.8159847  25.4534855   6.4706125  16.2106094  26.0406570
  59.7132301  42.5079575   5.2806478  60.2313652  43.1834793   5.7181821
  60.1283112  41.6843300   5.5367365  12.9281616  50.3100128  43.1859436
  12.6478815  51.1424179  43.5664368  13.8490076  50.4464989  42.9631310
  83.8729782  30.5817795  66.4796906  84.1873627  30.9601192  65.6585617
  84.6634674  30.4604282  67.0056381  34.5271988  32.3378220  84.1110077
  34.2010880  31.5457668  83.6837692  34.0001907  32.4152679  84.9063034
  12.2689953  28.9931297  26.3752499  12.2055502  28.0426655  26.4691849
  12.7132053  29.1218624  25.5371933  83.1042023   4.4004331  86.2042770
  82.5179291   4.7176576  86.8912125  83.9815063   4.6200075  86.5178757
  63.0463066  35.3922043  75.7228241  63.1756096  34.6342697  75.1526947
  62.1331635  35.6434097  75.5838928  34.8063774  46.4077454  69.5279465
  33.9604797  46.1569366  69.8991394  35.0833549  47.1605911  70.0501862
  53.7950172  34.9041138  83.9928970  53.5627556  34.7580223  84.9099274
  54.1184807  34.0557899  83.6896667  65.8495789  55.1386948  72.2317200
  66.0616455  54.3256683  72.6902542  64.9158020  55.2699127  72.3962631
  41.6440659  43.4809875  14.9629040  41.1614609  42.7415886  15.3325233
  41.1752892  43.6935959  14.1558847  66.6585693  43.4120903   0.2766189
  65.8440247  43.1521378  -0.1536923  66.8454514  44.2840881  -0.0711314
  18.0861969   7.2212963  13.4687929  17.9731884   6.9602609  12.5548334
  18.6984024   7.9562988  13.4340143  81.1083527   1.4972141  76.8470840
  81.1326752   2.0199807  77.6485519  80.2683029   1.0399090  76.8848038
  86.2024841  29.8240337  37.8093262  86.5651932  28.9828110  37.5317955
  86.1932678  29.7771931  38.7653351  26.8483505  32.7143974  34.4544296
  27.3172741  33.2122269  35.1241379  25.9273872  32.7826271  34.7062302
  84.5556793  68.0351639  51.1535263  85.2764664  67.6404648  51.6443558
  84.8849335  68.8960266  50.8951836  21.9309883  54.6085014  57.9258652
  21.1781998  54.6649704  58.5143814  22.5653400  55.2268906  58.2883911
   9.7400236  36.9313049  13.5931540  10.6342220  37.2331200  13.7529955
   9.6300230  36.1853333  14.1827755  54.0409317  57.3301773  49.5939865
  54.3851242  56.4376373  49.6276894  53.6080475  57.3879395  48.7422180
  78.5101776  11.7232323  37.0845261  77.6555023  11.6208086  36.6658707
  78.4018097  12.4727020  37.6700058  43.0879974  60.2797356  54.0687904
  43.6479301  59.5579033  54.3545532  42.7480011  59.9974670  53.2196999
  66.9945068  57.4805412  75.8404007  66.6283417  57.8028717  75.0168381
  66.3289490  56.8826637  76.1806946  71.9109116  40.4208603  84.6529160
  72.5079422  41.0904083  84.3190079  72.4010315  39.9909325  85.3537598
  17.4919662  48.6000519  87.3607254  17.1878452  48.1522636  86.5712814
  16.7177010  48.6495132  87.9213486  55.5552711  12.4702425  60.2332039
  55.5424232  11.6654587  59.7151413  54.9807930  13.0703573  59.7577400
   1.4401640  42.3785477  18.9200954   0.7797501  42.9996185  19.2272720
   2.0334308  42.9051857  18.3844471  43.5419884  21.1850872  47.6931152
  43.9173012  20.5730171  47.0600700  43.8306160  20.8561535  48.5444221
  84.7108841   4.6429210  14.0863504  85.3608704   4.5015631  13.3980427
  85.1086273   4.2678242  14.8720579  77.6807251  40.7053337  61.4857521
  77.1273117  41.4831429  61.5562859  77.0647354  39.9726906  61.4814301
  58.8666649  45.2954330  33.8025742  58.0368729  45.6481667  33.4812393
  59.0317993  44.5310745  33.2505684  22.2543964   3.9904742  48.5507278
  21.6585674   4.5210829  49.0795708  23.0900841   4.0336027  49.0154877
  46.4482956  57.7295265  48.4867401  46.1024780  58.5836296  48.2276077
  47.3958244  57.8120575  48.3789825  14.8417540  67.8075409  78.0689163
  14.6228123  68.7363815  77.9944229  15.2545614  67.7269821  78.9287567
  61.7228622   1.7592455  30.3369522  62.4297600   1.1232964  30.2269650
  61.3620338   1.8707794  29.4574108  59.8154526   3.6382217  17.8485146
  60.2248154   2.7806070  17.9632015  58.8754921   3.4574282  17.8526230
  10.8632717  63.5921745  64.3665314  10.8968267  64.4937820  64.0468292
  11.7443876  63.2508812  64.2136154  57.0283737  58.2419128  87.0715714
  57.0308838  57.5437660  87.7264099  56.1011238  58.4044228  86.8982773
   0.2688221  60.7159271  70.0984879  -0.3290936  60.1154671  70.5436554
   0.4521545  61.3958397  70.7468185  69.7743073  34.6844902   6.4254928
  69.1460190  35.2088509   5.9289756  69.8793182  35.1557198   7.2520189
  28.3790340   3.6452212  14.9912271  27.8012180   4.0505047  14.3446178
  28.2233200   2.7055862  14.8959866  52.2459526   4.5851254  40.6863251
  51.9841690   4.7183700  41.5973396  53.1694946   4.8356743  40.6634102
   5.3825603  16.6938667  14.2511168   4.7729454  15.9615240  14.1601524
   5.3391261  17.1476212  13.4094210  13.1867628  55.7494469  44.2806282
  13.8263350  55.8318062  44.9880142  13.7161636  55.6436653  43.4902000
  44.8560181  55.3495369  80.2607574  44.1497002  55.0804024  79.6734619
  44.5825119  55.0371437  81.1232147  11.4705572  53.1585579  88.2212448
  11.3405933  53.9457092  88.7501450  10.5928059  52.7904053  88.1200027
  31.2206268   2.8252854  10.7551270  32.1599503   2.8051729  10.9381504
  31.0119534   3.7560840  10.6757431  42.5927963  25.1807041  16.6664238
  43.2348175  25.0218296  17.3583775  42.9723854  25.8882561  16.1453552
  68.6652985  23.3565521  75.3675385  68.0687866  23.1140423  76.0757751
  68.2412949  24.1017113  74.9418716  79.1323776  10.3175859  26.6350880
  79.4182892  10.6914454  27.4685860  78.1866531  10.4644089  26.6185760
  69.5240631  69.9368057  41.7923737  69.2016754  70.5474243  41.1294670
  69.0334778  70.1608505  42.5831718  45.5494385  48.6535645  31.1650581
  46.3710251  48.2292747  30.9176617  45.2072220  49.0094109  30.3449993
  56.2087784  12.8740387   9.6445007  56.2781754  12.8243055  10.5978861
  55.5124016  12.2559824   9.4224787  36.6338348  49.0525589  51.2229576
  37.2307816  48.4935646  51.7203674  36.1090813  49.4956093  51.8897171
  47.9016266   1.6357828  63.7731705  48.7622375   2.0265841  63.6219940
  47.8886032   0.8606350  63.2117348  23.4118919  24.2316036   8.0453520
  23.9285488  23.9359703   7.2957530  23.7137852  25.1254978   8.2067327
  64.9785995  38.2362556  87.6605835  64.4562531  38.0923424  86.8714828
  64.9504166  37.3984070  88.1225815  32.4337082   1.5508440  24.5463066
  32.8930473   1.5009875  25.3846130  33.1226082   1.7284944  23.9059219
  29.0447903  15.7682686  74.6458435  29.7223511  16.3495979  74.9910965
  29.3129311  14.8937883  74.9280014  64.6625214   7.6841717  42.1984940
  65.2740173   8.2053642  42.7187500  64.8382568   6.7795868  42.4574852
  78.8763123  25.8799648   9.3053913  78.0817490  25.3473511   9.2704945
  79.0151215  26.0421982  10.2384748   5.5771832  20.8196201  83.7906265
   5.1665959  21.6838017  83.7616577   6.0837250  20.7678261  82.9800873
  47.0051651   2.2698448  60.7655945  47.9174957   2.3199766  60.4803352
  46.9035568   1.3739152  61.0868683  15.9023457  12.2551355  74.8907394
  15.5802488  12.8791609  75.5411835  16.4544010  12.7783909  74.3096466
  20.3297729  64.4109879   0.7726196  20.2600040  65.1834183   0.2116289
  19.7813473  64.6148376   1.5301841  53.5120621  15.5748463  30.9511929
  52.5724144  15.4863005  31.1107407  53.5768433  16.2375965  30.2635918
  54.6887436   2.4299638  55.0655441  55.1131210   2.5954812  55.9074097
  55.1203423   1.6441764  54.7301445  14.4325600  21.8872166  17.6489601
  14.2756453  20.9485893  17.7518597  15.0236568  22.1114426  18.3676796
  78.5588684  49.4658356  34.0239754  79.4656143  49.4437828  34.3298569
  78.5279617  48.8186226  33.3194237  19.3417511   8.5777073  49.8853722
  18.7222557   8.9959011  50.4833412  20.2026367   8.8480749  50.2047615
  77.5716095  46.2626648  86.0276871  78.3446121  46.5188675  85.5246353
  76.9115143  46.9184608  85.8031006  57.6646118  38.4746132  39.0166283
  58.2305527  39.0483208  38.5001030  56.8064194  38.8977432  38.9901505
   2.1145008  61.0879669  63.5324821   1.5512805  61.1133194  64.3060303
   2.9898241  60.9150543  63.8790970  45.9512978  30.1029243   6.7685013
  45.9467392  30.5932713   7.5905538  45.7869644  30.7629452   6.0950046
  67.3724899  39.1063957  70.8473740  67.0175552  39.5764465  70.0928497
  66.6573486  38.5382118  71.1336670   5.7260137  47.5422478  18.5530529
   5.0835671  46.9311829  18.9137325   6.1369762  47.9387817  19.3212357
  63.6257629  65.5107346  10.3839607  63.6325417  65.8522415   9.4897785
  63.6830711  66.2891388  10.9380713  37.0806198  64.3461838  84.2432327
  36.3804436  64.9971924  84.1967239  37.8653908  64.8529587  84.4519119
  35.2819939  67.4062729   5.3308067  35.2106323  66.7989273   4.5944157
  36.2156448  67.4186325   5.5414629  83.0665665  17.3076954  52.5743370
  82.4041214  16.9849930  51.9633865  82.5671234  17.5995178  53.3369827
  58.0231323  18.7647495  32.2950554  57.6997108  19.5719013  32.6952248
  57.2736053  18.1697826  32.3164330  47.1312790   2.7996528  84.9317932
  46.3158798   2.3018804  84.8719254  47.7350006   2.2160134  85.3912659
  31.7338390  61.7108803  27.4751396  31.3963356  61.3161392  26.6710854
  32.5364990  62.1566620  27.2045021  74.4921036  32.9204407  38.0431213
  73.7375641  32.7655983  38.6113853  74.3903046  32.2877274  37.3321037
  63.4247551  37.5458260  57.0637627  63.1433945  38.3550682  56.6369171
  63.2740364  37.7018738  57.9960556  71.4173355   8.5056858  36.2151527
  71.6253967   9.4031963  36.4748039  70.5021439   8.3886719  36.4700241
  63.8023987  44.2728920  70.3681335  62.8613014  44.4323654  70.4397736
  64.1848221  45.1430206  70.2547302  82.1037598  55.2923355   8.7619276
  82.7834549  54.6420479   8.5847883  82.0489960  55.8069839   7.9567137
  43.2887039  44.7625694  75.0123062  42.5597458  44.8842735  75.6206131
  42.9295654  44.2142220  74.3147659  73.3389664  61.3762817  78.7177277
  72.6381607  60.7294312  78.7995605  73.4793320  61.4592972  77.7745209
  36.4428940   8.6843615  72.9115295  37.1609268   8.0575371  72.8235092
  36.1937904   8.6351662  73.8344345  11.8635359  16.2909298  20.0244846
  12.1223612  15.7955580  20.8015614  12.5422783  16.0951405  19.3785706
  56.5001717  10.2102537  30.1898861  56.8849678  10.2437553  31.0656967
  56.9545670   9.4880438  29.7560997  26.0758801  19.4879932  61.4719505
  25.3531857  19.1250553  60.9598770  26.8638344  19.1420383  61.0528183
  74.9426270  43.2910728  18.9439087  75.8883362  43.1464767  18.9130917
  74.5729904  42.5666389  18.4391346  37.4444046  64.5921860   8.1146793
  37.0923500  65.4162979   7.7783346  37.2013092  63.9413910   7.4561906
  62.4972649  24.5558777  75.0321045  62.2221527  23.9040527  74.3873749
  63.2865906  24.1845970  75.4262466  32.2920303  11.8744307  39.0284920
  32.0830536  12.0861330  38.1186867  33.1086464  11.3776903  38.9773216
  82.2200165  21.4040070   6.2963419  81.7045670  20.7004261   5.9019938
  82.8903961  20.9517002   6.8084393   4.9745817  12.8651867   8.6415653
   4.8333597  13.1431694   9.5465593   5.8543143  12.4879570   8.6413889
   1.0162951  46.9984131  49.9878769   1.3650075  47.0768661  50.8758392
   1.7727083  46.7551270  49.4541321   1.7149911  26.7876530   2.0533626
   2.1690195  26.0598602   2.4781082   2.1960735  26.9266987   1.2376068
  38.1705017   6.0918145  12.8390942  37.7537575   5.7541671  12.0462818
  37.5761795   5.8425608  13.5468273  17.6765957  55.9752769  68.5072174
  18.5316544  55.9613228  68.0772018  17.8013611  56.5397339  69.2701416
  50.3718872  28.0562019  32.1982193  50.2476158  27.8587761  31.2698803
  49.8978729  28.8766041  32.3341599   9.9514093  70.1601028  23.8172989
  10.6113968  70.0234146  24.4969807  10.2328205  69.5997772  23.0940571
  37.0424767  14.2166471  81.8621521  36.2503738  14.7539997  81.8693237
  37.6012001  14.6224527  81.1992874  16.9255753  67.2862015  85.6938782
  16.7650700  66.6910477  86.4261703  17.6015015  67.8834152  86.0143280
  26.5689716  61.7003555  61.2321167  26.6585770  61.1118126  61.9816628
  26.5166340  62.5744057  61.6188087  53.0018616  51.4910927   3.5475445
  53.8928604  51.1602135   3.6610188  52.9606323  52.2654190   4.1087480
  71.1604309  58.5265579   8.9298286  71.8964767  58.6882362   9.5200214
  70.4483185  59.0595360   9.2834673  18.0782089  56.3986473   1.7525940
  18.8195839  56.9418297   1.4851044  17.7927170  55.9691353   0.9462159
  70.7873077  20.1076469  77.2590027  70.4766159  19.2594891  76.9422455
  70.9075470  20.6300583  76.4659958  13.1751642  12.0008640  73.1328735
  13.0219250  11.1056833  73.4352036  13.9793081  12.2693939  73.5772552
  58.4843788  39.1204224   7.0544915  59.3683434  38.9897804   7.3976703
  58.0965881  39.7755508   7.6347132  41.1969757   3.9995232   3.5966785
  40.5257721   3.8419800   4.2606778  42.0252800   3.9192448   4.0696507
  51.6350136  58.5576744  81.4886627  51.9330864  58.0724258  80.7192993
  50.7360497  58.2592278  81.6266022  76.4593506   1.4856374   3.3505120
  76.4967270   0.8641787   4.0775771  75.6986465   1.2102579   2.8389156
  17.6578960  68.2960052  70.9403076  17.9416370  68.0598526  70.0571594
  16.7672176  68.6271744  70.8251877  12.0944834  56.9141045  31.1282921
  11.7931318  56.3749313  30.3970528  13.0039520  56.6478882  31.2633038
  62.9878273  50.0241165  52.9525948  62.4620209  50.7516747  52.6203041
  63.6407356  49.8691139  52.2700119   1.4793419  54.7428932  27.1486740
   1.7408874  55.5686607  26.7413235   1.3017923  54.9715691  28.0610428
  60.5367203  48.4954453   5.2531781  61.2024002  49.1696205   5.1168351
  60.8485756  47.7451324   4.7472014  77.2901993  38.0249214  80.6580124
  76.9714584  37.2695961  80.1639328  77.3527145  37.7117920  81.5603867
   9.9054527  14.2074928  19.5687294  10.3333416  14.5470066  20.3547783
   9.1824570  14.8140278  19.4086552  69.0313721  59.1010818  19.0271873
  68.6980057  59.0988464  18.1299152  68.7901535  59.9615517  19.3701706
  53.7121696  46.1130333  24.8884621  52.7952499  46.3832436  24.8387318
  54.2061005  46.8957062  24.6441460  67.2185898  18.0154934  33.3323250
  68.1725693  18.0911465  33.3533936  66.9681549  17.8882446  34.2473755
  67.3506775  57.5582199  82.6019516  68.0134811  57.9968452  83.1353607
  67.5944672  56.6330109  82.6300278  36.3598709   6.7259803   2.7250838
  37.1927986   6.2954235   2.9176505  35.9699745   6.1939530   2.0314252
  59.2411499  26.1668243  49.0991325  60.0024681  26.1189785  48.5209122
  59.4581947  26.8585262  49.7241669  25.1306553  26.8237514  34.6894569
  24.4170494  27.4575291  34.7624207  25.6870365  27.1688595  33.9911957
  10.2199240   3.4876890  11.6057138  11.0294361   3.0281188  11.3827400
  10.4975309   4.3841929  11.7939873  20.0827427  53.5095901  70.0010223
  19.9588928  53.9227371  69.1465073  20.3674431  52.6187019  69.7973251
  47.1057167  56.7776718  66.1351166  47.8202820  56.1477547  66.2291183
  46.6640434  56.5198555  65.3259888  67.3117676  70.1129074  56.1957779
  66.7690506  70.2726822  55.4236603  66.8792191  69.3877716  56.6466866
  57.4851265   4.1315842  80.1213531  56.7458153   4.6227007  80.4797668
  57.1782951   3.2254205  80.0904617  63.7907486  51.5487671  70.7910995
  64.7135086  51.7099304  70.5941925  63.3649635  52.3947754  70.6524887
  38.2004929   2.3557780  15.5271273  37.5027008   2.2205918  14.8859987
  37.7576675   2.3170159  16.3748512  57.3212242  56.9646225  73.9443207
  56.5402336  57.4920349  74.1120148  57.6647758  56.7619972  74.8144608
  55.9932632  49.7021713  68.6165771  56.7898712  50.1350479  68.9235992
  56.1826286  48.7673073  68.6966019  32.5698509  39.3379898  65.8974991
  32.8881454  38.9387207  66.7071304  33.3389664  39.7686081  65.5243225
  61.6253204  40.6299934  32.6775703  60.6941910  40.4225922  32.7563896
  61.9321136  40.7015572  33.5814438  55.4663887  26.4149170  43.0389977
  54.6742630  26.8491096  43.3556099  55.1460800  25.6438065  42.5709991
  48.5051842  40.1931152  34.2712059  47.8380089  39.8117790  33.7005119
  49.3158951  39.7497406  34.0214233  54.0864410  16.1058121  70.1074600
  54.8091316  15.8842525  69.5202103  53.8275795  16.9894485  69.8459091
  73.2379074  22.6975651  52.0260963  73.3603058  22.0935001  51.2937317
  73.8855743  22.4218941  52.6747589  25.4922943  33.2206841  31.7889423
  25.8265514  33.3334885  30.8991222  25.7711067  34.0109520  32.2515106
  84.3144073   1.6570058  83.8581238  84.9771042   1.2782683  83.2805252
  84.7985458   1.9114268  84.6436920  45.4873390  44.4112091  66.3244705
  45.5577240  43.9103355  65.5118179  46.0843277  43.9710884  66.9295578
  35.4070816  59.9075432  78.0035477  34.9822769  59.2268524  78.5255051
  36.1792908  60.1531296  78.5130692  72.8836823  15.5240698  81.7276382
  73.8394165  15.5344076  81.7794266  72.6931763  15.0691185  80.9072952
  11.9355917  28.3294983  66.4568939  11.7182217  29.2494125  66.3060989
  11.4891129  28.1087742  67.2743149   0.2870848  31.3328171  79.3026276
  -0.3392529  31.9706879  78.9604950   0.6325804  30.8953037  78.5245209
  43.5217972  22.8329239  84.4078903  43.9169807  23.4807568  83.8244705
  43.2579117  23.3346138  85.1791916   6.8236747  44.3831291  49.5483589
   6.3166733  43.8281898  50.1409988   6.4048529  45.2418213  49.6072769
   2.8268726  17.6138325  42.1979980   2.3452733  17.5885639  41.3711624
   3.6639950  17.1937618  42.0005188  32.6380615  12.5212622  86.9066391
  33.1464500  13.3077974  87.1044540  33.2690544  11.8047380  86.9749756
  45.1527100  48.8736382  62.8826103  45.0421143  49.6214676  63.4697647
  44.9432526  48.1118240  63.4229813  44.6082611  46.0459671  76.9403839
  44.3171043  45.4261856  76.2715530  45.2429504  45.5547752  77.4620438
  60.0529289  62.7938423  60.8712082  60.9340630  62.6797066  61.2273026
  59.6130638  63.3666611  61.4994011  44.5314102  52.1689339  20.1196575
  44.7982979  51.6137276  20.8522854  43.7493401  52.6219330  20.4349232
  38.5973969   9.9993916   4.8870850  39.3868942   9.8716030   4.3611612
  38.8697739  10.5916643   5.5879807   3.4542654  56.6944046  60.4740753
   2.8231490  56.8800392  61.1693916   3.1337821  55.8887520  60.0685539
  53.2834702   3.9626210  88.2874451  54.0952759   4.4181633  88.5103455
  53.1311874   3.3704021  89.0238724  39.9233818  43.9853630  74.5112839
  40.3476295  43.1612511  74.2723694  39.4882469  44.2723007  73.7084351
  22.5576611  23.1121540  73.8781433  21.9303474  22.3900852  73.8417511
  23.4006577  22.7076092  73.6733780  54.3721542  21.7070332  61.2359924
  54.9250641  22.2058411  61.8374214  54.9233322  21.5641823  60.4665604
  23.9236202  39.7777596   2.5691528  23.3775349  40.5531693   2.6986251
  24.2920780  39.5971870   3.4339440  44.4242973  46.1174202  79.9746704
  43.8853340  46.8500786  80.2729340  44.0663605  45.3556290  80.4305038
  82.1408539  25.2572689  54.8582268  81.3330078  25.6597290  54.5394020
  82.3161850  24.5488720  54.2388191  30.1485138  55.5432472   0.3643070
  29.4515800  55.9050636   0.9116680  30.8186398  55.2596321   0.9861803
  41.8259506  44.9102859  25.5338821  42.3900833  44.5634117  26.2250118
  41.9058533  45.8607750  25.6139889  49.2756958  62.5204926  60.5655212
  49.6593018  62.2989159  59.7170029  48.7068367  61.7789268  60.7721863
  38.4156075  45.8929291  47.0129356  39.1622314  45.2995262  47.0945396
  37.6714325  45.3880424  47.3408432  77.8543701  21.3834171  35.2618294
  76.9647980  21.7324867  35.3169479  78.4182892  22.1547756  35.3186646
   9.9647779  32.7625923   0.7276547   9.1913404  32.6773148   0.1702017
   9.6174536  33.0215569   1.5811973  17.2696419  31.3108978  66.6032791
  16.5285530  31.6900806  67.0757599  17.2416401  31.7258263  65.7411423
  86.2417145  55.2807961  63.2122993  85.7546768  55.0940628  62.4097099
  86.2610855  54.4460869  63.6804047  58.3401146  57.4613953  65.7996979
  57.5769958  57.8773193  66.2008133  58.0387611  57.1949081  64.9311371
  59.9568291  64.8077621  23.3651409  59.5665359  64.0179977  23.7395325
  59.6336784  65.5195923  23.9175014  13.7215767   9.9513111  18.1543350
  13.4163971   9.7406101  19.0367756  14.4661283  10.5369406  18.2918549
  73.0854721  21.7140961  37.4263000  73.2345581  21.1580791  38.1910553
  72.3943634  22.3172626  37.6997795  41.8706322  31.5776806  78.2738724
  41.9344482  30.6539154  78.5163956  42.7736740  31.8942623  78.2967758
  49.9246063  10.3978977  69.0702209  49.0314407  10.7153063  68.9370346
  49.8154488   9.5444984  69.4897766  79.4047546  27.7366924  56.6101837
  79.6554947  28.6391811  56.4130173  79.8678818  27.5314198  57.4223480
  39.3643417  29.1443272  20.4008751  39.7403412  28.2816105  20.2260094
  40.1221771  29.7220345  20.4912834  71.3136292  26.5149746  63.1818924
  71.3793564  27.2249584  63.8205109  70.3786316  26.3137836  63.1427994
  11.0208225  49.4183769  76.3243484  10.2789927  49.9099846  75.9718704
  11.5096941  50.0595856  76.8401871  73.1285629  26.4575615  10.7713881
  73.8438568  26.8930206  11.2350264  73.0452499  25.6076279  11.2037144
  79.6481171  60.8775291  37.8762474  79.6449280  61.5482750  38.5591240
  80.4026413  61.0961418  37.3293190  69.1659317  24.1846104  65.3223495
  70.0936890  24.1752739  65.0869522  68.8188477  24.9688530  64.8972321
  25.1187916  58.5982018  66.0629883  24.6933651  57.8389397  66.4614410
  24.9992027  59.3018684  66.7007828  63.8948097  31.5269871  87.0923920
  63.1667213  31.0044556  86.7561188  64.3600998  31.8213062  86.3093719
  84.1406860   0.2796446  53.9998093  83.6921310  -0.0067461  54.7954292
  83.6513138  -0.1320129  53.2875748  84.5961838  58.7539558  82.3863602
  85.2780685  58.0977249  82.2427597  83.7764740  58.2870674  82.2241058
  71.0394287  57.6585503  23.4753513  70.9684525  56.7241516  23.6705170
  71.5391693  58.0189476  24.2078857  60.9885254  55.4686279  38.3397026
  61.3651695  54.9416924  39.0444794  61.6776237  56.0931320  38.1130600
   5.2725101  33.6837540  15.1487856   4.5833626  34.2760353  15.4496422
   5.1242018  33.6026917  14.2066259  54.8751831  26.0084724   0.3854780
  55.6127701  25.8972721   0.9853352  54.1042137  26.0163364   0.9527326
  67.9515762  36.4807663  36.7636375  68.2930832  36.6896553  37.6331024
  67.2725372  35.8254814  36.9241028  45.3228607   5.1982741  76.3049927
  44.6659012   4.6892991  75.8300323  44.8233795   5.6743712  76.9683762
   2.8423738  63.2339134  32.8764305   2.5208573  64.0118179  33.3321915
   3.7240510  63.0998802  33.2241554  42.3957787  44.6403694   7.8689618
  43.2741852  44.5624695   8.2412052  42.1857491  45.5712624   7.9435072
  14.2048950  56.6801834  19.2371998  14.6080303  55.8686371  18.9288044
  14.4847279  56.7550011  20.1495190  77.7193985  68.1246948   3.0653682
  77.0697403  68.5651016   2.5174508  77.7789764  67.2408524   2.7027369
  76.7513275  60.3439941  23.8428879  77.5395203  59.8222008  23.9935875
  76.8169861  60.6183815  22.9282112  51.8431435  45.5461922  85.8656082
  52.2142181  44.6666069  85.9353638  52.1621475  46.0031395  86.6438522
  76.5727463  53.0471382  18.8535252  76.9031372  53.9443512  18.8079166
  76.5766068  52.8376694  19.7875156  13.9739141  71.7328186  88.0003433
  13.2955523  71.8806839  88.6592712  13.9152975  70.7982712  87.8017807
  16.1862106   4.6096358  54.9022522  16.0911064   5.4552202  54.4638748
  15.8190956   4.7497225  55.7750816  18.5521049  28.2478161   3.0883052
  18.0810356  27.6117630   3.6266017  18.0162258  28.3382797   2.3003447
  45.1547508  48.8042412  37.6570053  44.5268517  48.0843925  37.5954323
  45.1494370  49.0481911  38.5825844  43.6226120  42.2758255  44.7280731
  43.6586151  41.9363632  43.8338127  44.5383072  42.4205322  44.9663811
  71.1334229  35.9695091  73.1152344  71.3005905  36.4291267  72.2924118
  70.6303864  35.1962624  72.8597412   5.9450245  48.3062286  59.9133682
   5.9035263  47.7615280  59.1273575   6.7718201  48.7816315  59.8319397
  42.8953171  56.1140633  14.2712955  42.9373589  56.9547043  13.8154564
  41.9820633  56.0367203  14.5473757  63.5485992  53.4819946  42.0398140
  64.1528702  52.9011421  41.5775414  63.4483871  53.0841675  42.9046402
  83.0807343  40.8389740  29.9344540  82.1401596  40.7200165  30.0663776
  83.4868011  40.1800919  30.4976711  43.4167976  57.9023056  71.5912399
  43.8158646  58.7353287  71.8423309  43.2260208  57.9996948  70.6583099
   8.3726997  21.0135078   3.1139369   8.3499613  21.7217045   3.7574992
   7.7122421  20.3914127   3.4189382  84.1418228  43.0507736  57.9994621
  83.5819473  43.7301178  58.3753166  83.5527649  42.5297089  57.4538193
  10.8760948  51.5229454  24.4032841  11.6779299  51.2413559  23.9628315
  10.7336979  50.8658905  25.0846310  84.3420334  59.8182144  24.7483044
  84.3985214  58.8743782  24.8973351  85.2477112  60.1235809  24.8006058
  86.5761032  33.4756889  75.6098404  86.1217651  33.7876167  74.8272095
  86.0030441  33.7250786  76.3348541  51.5356445  22.8755074  69.9055786
  52.4919167  22.8771400  69.9476852  51.3054466  23.7699223  69.6540527
  53.9449997  23.1811390   1.0068099  53.0484200  23.2129059   0.6730835
  54.2466774  22.2967796   0.7991282  40.6238136  49.9347878   1.6969277
  40.0563583  49.3017082   2.1367407  40.1465263  50.7627029   1.7515846
   0.1820136   8.3635302  59.9638901   1.0323648   8.8027115  59.9798470
   0.0015268   8.2247496  59.0341606  74.7192688  20.2507343   1.4804623
  75.3223724  19.6565151   1.9270061  73.8488312  19.9430523   1.7332369
  72.2257919  37.1350517  63.7274666  71.9957504  36.2094727  63.6461639
  72.2323532  37.2982674  64.6706314  29.4073238  21.8495884  16.7310658
  28.8503151  21.3245735  17.3058128  29.1551189  22.7545738  16.9144325
  40.8054657  11.0211353  81.6404800  40.5492249  10.1235867  81.8525620
  41.1556702  11.3702459  82.4600601   7.1376147  69.3467560   0.8823297
   6.5577087  70.0899124   0.7159975   7.7084937  69.3119431   0.1147899
  53.7131119  15.0984573  61.7331543  53.0588303  15.4577370  62.3323784
  54.5229874  15.0845385  62.2431946  82.0454330  13.5001259  16.6154575
  81.4446259  13.8344955  15.9495249  82.2258530  14.2548361  17.1758957
  45.1308327  33.7783966   1.7611796  45.5089989  33.0132141   1.3279182
  45.8658066  34.3829079   1.8642075  17.5797939  48.1324997  17.4265785
  17.3042450  47.4509697  16.8135338  18.1178837  48.7243004  16.9007816
  53.2699776  53.5004539   0.6268507  53.9732018  52.8882942   0.4101209
  52.4653206  53.0152359   0.4443151  49.1629410  32.3826790  24.3366241
  48.3771400  32.2218895  24.8590183  49.0914764  33.2999649  24.0725937
  47.8396835  39.1273766  49.2617569  48.6570396  38.6708031  49.4610062
  47.7692223  39.0871544  48.3080025   5.4117513  25.3954086  76.8433075
   4.6324811  25.2353668  77.3756180   5.8880486  26.0785103  77.3152618
  63.3461571  46.6914482  49.9317665  62.9874725  46.6332932  50.8173141
  63.5192680  45.7833939  49.6833572  19.7827663  62.9848022  24.4123669
  19.0387764  63.3967934  23.9730778  19.5210228  62.0703964  24.5199718
  23.2075596  54.2164078  82.7461853  22.8676491  53.3420601  82.5558929
  23.5793095  54.1427917  83.6251755   5.3432865  65.8328934  13.7520142
   5.3806229  66.2744293  12.9035578   5.7172384  64.9671326  13.5881329
   5.8672976  48.2145157  22.8682442   6.3015032  48.1473503  23.7186489
   5.0013871  48.5697556  23.0688324  79.8711777   6.6720181  78.8615494
  79.4861755   6.0650969  79.4937286  79.8965454   7.5116620  79.3204422
  17.9996395  11.7146282  70.7176437  17.9768982  10.7956038  70.9843063
  17.1070957  12.0283804  70.8631058  75.6310349  49.2976341  52.3861580
  75.4773254  49.3629265  53.3286781  75.7791901  50.2003899  52.1045380
  59.8236618   8.6071234   3.9820442  60.2340240   9.1111889   3.2793703
  59.9630890   9.1348906   4.7683353  11.8458519  69.5005112  64.9144974
  12.1748180  68.9636078  65.6354294  12.3004827  69.1672745  64.1408691
  36.7119904  27.2681313  86.0969315  37.4189720  27.6912785  86.5841217
  36.3094254  26.6719227  86.7283630  16.4977989  56.6564636  79.4381027
  15.8318043  56.7006264  80.1241989  17.3299103  56.7084770  79.9083252
  65.1861801  57.5167007  50.6731453  64.7194214  57.4807587  49.8382378
  66.0678101  57.8093681  50.4422607  72.8931427   0.5467004  69.6018448
  73.5208664   1.2688417  69.5751419  73.4104156  -0.2284895  69.3833466
  34.6154366  70.5130920  81.0300140  34.4555016  71.2056732  81.6710968
  34.7626076  69.7279282  81.5573502  34.7348633  32.5063477   2.9379971
  34.1929474  31.8419876   3.3636501  34.7889442  33.2168274   3.5771587
  61.7250099  35.8470154  56.0078201  62.2940025  36.4802971  56.4453506
  62.1204872  34.9968071  56.2001228  13.5699940  54.7838669  73.5853806
  13.7024527  54.9467773  72.6514893  13.5746517  53.8300056  73.6651306
  51.9807854  36.4223213  67.7409210  51.1647987  36.6120415  67.2778854
  51.8456497  36.7771835  68.6195831   2.4476755  57.2483978  16.6784019
   3.1851904  56.8703156  17.1573143   2.2803152  58.0829582  17.1162739
  41.0781479  21.9069920  19.1642399  40.6106224  22.6673183  18.8184757
  40.4133987  21.4166431  19.6478729  11.1919794  12.2857180  71.1031952
  11.9833841  12.1131210  71.6132126  10.4991589  12.3721600  71.7579880
  83.1875839  42.3111038   9.5260077  83.3306732  42.9775887  10.1979866
  82.3246155  41.9492607   9.7274752  56.5601425  35.6576080  73.5138779
  57.0626335  35.0224800  73.0036392  56.5565453  35.3018379  74.4025040
  38.4579468   7.8852139  78.3434753  38.8162422   8.1523142  79.1899414
  37.7041359   8.4599161  78.2103577  33.5770798  56.8953247  40.9135399
  33.0848618  57.0652580  40.1103745  33.2120361  57.5076942  41.5522728
  70.3012466   4.2383933  77.2928162  70.3705902   4.6665945  76.4395447
  69.4456558   3.8095107  77.2767334  51.8456192  30.5512161  25.8680744
  50.9279442  30.6951408  26.0991459  52.2730446  31.3876076  26.0524311
  32.9112434  24.9340382  19.4336777  33.0466270  25.8606911  19.2356453
  32.0427208  24.8991871  19.8345318  81.6286087  63.9890060  60.7289391
  81.8204193  63.1911545  61.2217598  82.3486099  64.0625076  60.1024971
   8.5118742  66.8753662  84.8664551   8.2129698  66.4842377  84.0455399
   7.8676877  67.5577545  85.0551605  72.0145340  19.7130165   1.7095472
  71.3883057  19.6168728   2.4270613  71.5991287  20.3334446   1.1106017
  79.1268768   2.5512011  14.6625175  78.7517853   3.2186921  14.0880671
  78.4961624   1.8316200  14.6373158  23.7809410  48.2402802  61.9823418
  23.5036831  49.1563606  61.9698868  24.6781921  48.2660942  62.3147659
  82.6788177   9.9536963  34.2148209  83.1549759   9.2051239  33.8554535
  81.8539047   9.5840874  34.5296745   9.9464970   0.3582255  88.4959259
  10.3980818   0.4144652  87.6538239  10.5600243  -0.1049712  89.0662460
  38.0572853  46.0907707  72.5967865  37.9219589  45.3907814  71.9580994
  37.2978973  46.0357857  73.1769104  78.3096085  57.1603127  73.9064789
  78.3596802  56.8480835  73.0030212  79.0022812  56.6832581  74.3634949
  79.2994995  31.3656025  66.8680649  79.8619537  30.6332092  66.6161346
  79.1798019  31.8646488  66.0600662  30.0709057  25.6693497  75.8988342
  30.1215076  26.4910183  76.3872375  29.1523380  25.4081631  75.9640045
  56.0928268  31.9329815  36.4366570  56.3179245  32.5599136  37.1240578
  56.7120895  31.2130680  36.5569420  82.5535736  62.8961182  27.0001125
  81.8235397  63.2218246  27.5266113  83.3002777  63.4312630  27.2689686
  65.0433884  25.2919731  88.3896255  65.1121826  24.6218357  89.0696411
  64.8895111  26.1055756  88.8698425   3.2872226  11.0637312   7.4223599
   3.4358041  10.3144464   7.9991856   3.8607244  11.7484388   7.7666030
  57.4205742  53.7668762  70.2995605  57.1777115  54.3823051  69.6078262
  56.8168144  53.9617233  71.0163193  22.4639702  31.7052021  21.6555309
  22.7495689  32.6115608  21.5407238  22.8448696  31.4381981  22.4921036
  16.7731705  59.0773277  42.0579338  17.3234634  59.2963791  41.3059845
  17.1689053  58.2853050  42.4216995   0.2387395  13.9023657  87.5002823
   0.8844101  13.8525143  86.7954025   0.4004591  14.7504063  87.9136887
  47.8663979  49.0495682  26.2122841  47.6903305  49.5692749  25.4279766
  48.4827728  49.5797157  26.7175140  70.6303177  24.9096184  56.3168488
  70.7243195  25.5293751  55.5934563  71.5188141  24.8006115  56.6558418
  53.2580338  29.8389378  32.8085556  53.5626678  29.2776318  32.0955582
  52.9813232  30.6467209  32.3759460  63.1894531   2.6119874  18.3965626
  62.8840866   1.8047249  18.8104591  64.1152725   2.4519536  18.2135792
  33.0615349  56.4287033  61.0704231  32.5625305  56.7430077  61.8243752
  32.9892960  57.1321335  60.4252892  29.3511181  63.1936378  19.7321911
  30.2845917  63.0598259  19.8963661  29.3204823  63.6890984  18.9137726
  68.2029572   3.0508919  38.7704391  68.8063736   3.7122757  39.1091080
  68.0695648   3.2949522  37.8545418  42.6160927  59.1542282  51.7814560
  43.0885353  58.9957390  50.9641953  41.7254524  58.8505745  51.6060028
  61.6024475   4.8423171  29.5246620  62.2061539   4.8284898  28.7819767
  61.5335999   3.9265049  29.7944393  61.6197968  16.1573811  72.2943268
  60.9210510  16.0492821  71.6491089  61.4875069  15.4392662  72.9132309
  74.5247421  47.5009956  30.5457249  74.5541840  47.2457199  31.4677887
  73.5989532  47.4409637  30.3100319  64.5144424   8.8762484  25.2011299
  64.2146454   8.3557158  25.9463787  65.4026794   8.5623636  25.0315819
  40.9970703  45.2025299  80.7926636  41.2392235  44.9256439  79.9089661
  40.2879410  44.6104546  81.0432892  74.6589584  58.5086517  22.8942604
  75.4115829  59.0236893  23.1849995  74.4172516  57.9853439  23.6584339
  22.3019009  10.1721430  69.0915604  23.0233593  10.7192698  69.4020157
  21.5820770  10.7857170  68.9445496  25.0195179  39.8140640  55.7213326
  24.0791836  39.8854866  55.8853607  25.0933895  39.7656441  54.7682152
  36.1166878  47.1981659  48.6267624  36.1746483  47.8923912  47.9703178
  35.9527092  47.6594086  49.4493217  10.9623556  71.1099396  51.3916664
  10.6938887  71.2567749  52.2986374  10.1400642  71.0190125  50.9102097
  11.7002611  56.0363770  67.2971268  11.2179651  56.7319069  67.7441788
  12.6212120  56.2673721  67.4184647  77.8882904  19.5335808  33.1333427
  78.0187836  20.2231121  33.7843018  77.0221024  19.7111549  32.7667007
  14.3730583  66.3755188  32.6911316  14.9028234  67.1242218  32.9650307
  14.6150513  65.6760330  33.2980843  31.8533688  38.8363419  11.1881924
  31.7181969  37.9350853  11.4809275  32.7323723  38.8358078  10.8092632
  49.5274963  10.3103228   8.7173920  49.3405151  10.0384550   9.6159229
  49.0471420  11.1313639   8.6107025  15.0981579   7.2248497   9.5533504
  15.2168694   7.3166122   8.6079836  14.6135731   8.0090446   9.8111277
  34.5890121  48.3274689  71.6385727  34.7272491  49.2531624  71.8390961
  33.6841736  48.1581001  71.9008942  57.3965073  10.2398443  32.8313560
  58.3090668   9.9560118  32.7774124  56.9072342   9.4388313  33.0190239
  43.2015648  70.1209946  57.9056702  42.8532944  71.0018005  58.0439148
  42.4282227  69.5799789  57.7460442  10.4189396  65.5458755  89.3998184
   9.7668533  65.1381836  88.8299026  11.1688938  65.7085037  88.8276672
  27.9900913  61.4512444  21.3915691  28.0284100  60.6513748  20.8671913
  28.5294571  62.0789795  20.9106655  18.8475113  61.0019989  20.5519886
  18.1051826  60.6404915  20.0677452  19.0639210  60.3283157  21.1966171
  76.2885513  68.2543716  51.8082848  75.8750458  68.4030762  52.6586571
  77.0005875  68.8931198  51.7732239   7.7272820  34.2273750   3.6826124
   8.4950132  33.7050056   3.4503369   7.2521214  34.3343201   2.8585877
  57.0326271  38.2755737  23.4419193  57.8981209  38.6481209  23.2735157
  57.1185760  37.3526077  23.2032108  74.5050049  32.1751480  78.1199875
  75.0597992  32.6568794  77.5064926  74.4779205  31.2846584  77.7699509
  40.9800682   4.3448672  18.8462124  40.5041313   4.9504328  18.2778778
  41.4580612   3.7757926  18.2429657  36.4218292   4.3835802   5.7112551
  35.5810852   4.3527236   5.2547150  37.0413437   3.9859595   5.0994291
   2.2224982  51.4962959  65.5077438   2.9671326  51.1318893  65.9862442
   2.5258219  51.5556908  64.6018219  71.7344513  44.5789680  22.1414986
  72.1208115  43.7321091  22.3646049  72.2499466  44.8886833  21.3968048
  78.8841553  63.3575554  88.4897079  78.7494965  62.4847488  88.1205063
  78.1183319  63.5034447  89.0451050  53.1976013   6.2833376  46.9307938
  52.9050522   6.8804145  46.2422104  53.8066978   5.6903586  46.4907837
  68.4806976  57.4858665   8.1455669  68.5635986  57.2141647   9.0596437
  69.3388901  57.3036652   7.7627611   2.0477629  42.4139175  57.0763893
   1.7875025  43.3107758  57.2864838   1.2961073  42.0496864  56.6088600
  26.5568504  70.1400299  61.0796318  26.8203030  71.0523529  60.9592781
  26.0372181  70.1448288  61.8834915   2.8130920  57.6236687   7.3055964
   3.4667678  56.9857712   7.5919981   3.1755881  57.9929924   6.5003457
  76.9896698  55.3518906  25.9753227  77.6387939  54.7603073  26.3559761
  77.4472656  55.7734909  25.2479343  43.5751343  23.3470707   8.4955320
  43.7897377  22.5317268   8.9487343  43.7142296  23.1499844   7.5692267
  27.8250561   2.6360660  88.4758148  28.1678715   2.5116909  87.5908051
  28.3034859   2.0015113  89.0093613  12.2976799  38.8347397  83.8052826
  11.3854532  39.1083908  83.7094269  12.7742147  39.6464462  83.9792862
  25.0874004  46.3142776  56.2720528  24.8037052  45.9142838  55.4500122
  25.7992725  45.7525787  56.5785866  79.6090851   4.7334599  39.1333046
  79.5553436   5.6463184  38.8504066  79.4309387   4.2263637  38.3412514
  49.5065613  65.8345947  31.5252171  49.0853386  65.1379166  32.0286407
  50.2746658  65.4173813  31.1351147  18.1330299  67.0566177  63.2721138
  17.3091507  67.5439072  63.2742882  17.9260578  66.2382126  62.8208847
  31.5279350  38.2348709  58.8524933  31.2279835  37.3279991  58.9144745
  32.4829788  38.1729546  58.8695183  81.6960297  60.9282684  25.2163830
  81.9633331  61.6123505  25.8302345  82.4964905  60.4309387  25.0485725
  50.9422340  31.1116486  63.8868141  50.6804047  30.7851067  64.7476578
  51.8325844  31.4387264  64.0153656  73.1942978  67.3171844  14.8691034
  73.2880325  68.0650864  14.2791100  72.5264893  67.5904999  15.4980431
  23.4529896  49.6297569  66.2730942  24.4063148  49.6377296  66.1874237
  23.2977524  49.5468483  67.2139816  31.3986835  54.2268715  45.5917015
  30.9303665  53.5003166  45.1805687  31.9465160  54.5846405  44.8930511
  61.0648003  45.7523308  31.2340431  60.7553635  44.8906517  31.5133095
  61.5357361  46.0954056  31.9934845  64.3614655  38.3206367  82.5712662
  64.7453995  38.8487549  81.8713303  63.5083351  38.0534172  82.2292252
  55.9200058  42.1422997   7.2086344  56.4302902  42.4802437   6.4726758
  55.0348587  42.0393295   6.8591394   1.7661352   3.8887956  40.2903175
   2.6804605   4.1284461  40.1392899   1.6106750   4.1047196  41.2097931
  27.9841156  51.6860771  85.7721252  28.5262833  51.1827545  86.3795395
  27.0992889  51.3446655  85.9015656  10.7669315  22.7855530  16.7067966
  10.1141567  22.4995480  16.0677986  10.5017920  23.6757660  16.9379902
  81.4040451  35.8474998  17.2588825  81.5343552  35.2010384  17.9526711
  81.9634857  36.5829468  17.5086384  50.8504028  69.8039856  78.2901993
  50.7288513  69.1153641  77.6365509  49.9658394  69.9998322  78.5991058
  32.1199455   8.7246656   4.9194889  32.8039780   8.0913963   4.7020020
  32.0687408   8.7032013   5.8750772  58.3983765   0.8988023  64.4396439
  57.9166985   0.6609592  65.2318878  58.2953033   1.8480707  64.3725815
  60.6191864  54.5737686  43.4068604  61.1990318  55.3128281  43.5907135
  61.0980797  53.8086090  43.7253304  18.3339405  68.1354141  68.1170044
  18.4843693  68.4874191  67.2396851  19.0441456  67.5071793  68.2480392
  82.9502716  45.1472168  44.5292549  82.9731445  45.0403404  43.5783157
  82.4792328  44.3763390  44.8456497  75.9312897  51.5367126  15.5434170
  75.2205582  51.4398384  16.1772156  76.0020752  52.4812698  15.4054422
  26.0947571  36.9800644  40.1345329  25.5875130  36.4099083  40.7123375
  26.6024055  37.5327225  40.7287521  77.3637390   9.6607065  12.8798294
  78.0764008   9.9990082  13.4219608  76.5759125   9.8008823  13.4051027
  36.4649200  46.4204330  53.6596527  37.2864685  46.8680420  53.4573212
  36.2971077  45.8703690  52.8944740  67.5238876  52.9753685  77.3046112
  66.8930588  52.2629013  77.4079056  67.9212799  52.8210449  76.4475861
  68.2965698  67.4632797  72.6432571  67.6408844  67.8034058  72.0344620
  67.7902603  67.1670837  73.3996658  62.8276863   8.6938181  72.2739105
  61.8774071   8.7380581  72.1678543  62.9543686   8.2832279  73.1292419
   2.5244663  12.4175854  76.0668945   1.8783031  13.0392065  75.7317963
   2.6865633  11.8226166  75.3347931  21.2302475  64.0773468   4.0685010
  20.8177357  64.8983154   4.3369727  21.0524330  64.0156555   3.1299875
  50.6957703  34.0313301   0.6868810  50.4195175  34.1773376   1.5916449
  50.8980370  34.9057465   0.3541361  57.4820709   7.5681710  86.9645157
  58.3749924   7.3968344  86.6652374  57.1740265   8.2802067  86.4038544
   3.0307872  58.1730003  81.5342484   3.6752906  58.8066177  81.2190094
   2.9276552  58.3783722  82.4634476  14.2156935  62.7215195  21.6991653
  14.4382410  62.2672806  20.8865356  13.2905035  62.5206223  21.8402119
  15.8603430   3.5332613  25.7345104  15.5648260   3.4954250  26.6441631
  15.2386484   4.1208029  25.3049488  64.2589951  60.4389191  32.8867569
  64.1418610  59.4995995  32.7446632  64.4136581  60.5213547  33.8277740
  64.4803162  48.8815842  71.4503708  64.3087616  49.7074432  70.9978714
  65.4286194  48.8721161  71.5802155  23.7185764   8.0830908   7.8475690
  23.5886707   8.9049625   8.3207331  24.2545128   8.3238945   7.0919123
  42.9187584  40.3550911  71.2522736  43.6681862  40.9274673  71.0880356
  43.2248001  39.4826889  71.0043106  30.2928791  28.2596188  88.6139145
  30.5376339  27.4173889  88.2305374  29.6231918  28.0420704  89.2623138
  21.6805878  68.2740402  19.8835144  21.4526386  67.4091263  20.2243824
  21.6323013  68.8519516  20.6450367  50.2094078  46.0653305  27.0635262
  51.0688629  45.7018814  26.8502731  49.5897255  45.3844223  26.8016338
  74.7717819  57.9517059  45.6755981  75.2042313  57.9410210  44.8217201
  75.3384171  57.4232864  46.2376785  41.8588257  28.7850952  18.2272472
  42.2956924  28.6918812  19.0738220  41.7471886  29.7294674  18.1180286
  14.8923893  40.3417702   0.3647783  14.5705681  41.2312088   0.2179243
  14.5140572  39.8291702  -0.3496009  67.4891663  57.7661743   4.0629973
  68.2085114  57.1879997   4.3169422  66.9626846  57.2424164   3.4590678
   0.7057962  61.2346954  13.5316076   0.3243209  60.5972252  12.9279995
  -0.0401499  61.5694084  14.0293636  30.7660713  17.8999386  78.1750946
  30.0070667  17.8069687  78.7508621  31.4231949  18.3400974  78.7142410
  26.4496174  50.5881042  46.6174583  26.2776909  49.7968483  46.1069870
  27.0737858  50.3098297  47.2876892  21.2380543  46.1058006  64.2941055
  20.7054081  46.0354614  63.5019112  20.8159180  46.7956657  64.8060837
   7.4875798  32.8735847  18.4700470   6.6784816  33.3820610  18.4148884
   8.1376448  33.4930649  18.8015480  38.0382652  69.7783051  51.1323357
  38.0341301  69.1253891  50.4323959  37.2266541  69.6183090  51.6139183
  40.4145088  56.9310837   1.0273731  39.7262115  57.5485764   0.7800338
  40.0545769  56.4594955   1.7785639  61.7013741  37.6566162  71.7567368
  62.5425568  37.5313187  71.3174820  61.8055801  38.4731064  72.2453232
  35.5583954   2.0262752  46.8317223  35.3517799   2.0733314  45.8982735
  35.0095406   1.3154585  47.1629829  37.1863632  45.8938560  19.6785431
  37.5465813  46.0684700  20.5480156  37.0667229  44.9444504  19.6550999
  24.8325863  69.7915497  63.2184639  25.2465725  70.4473190  63.7795448
  23.9441566  69.7067490  63.5644875  35.4504356  37.9268837  34.0124054
  36.1877251  37.3633308  34.2470131  35.8518600  38.6745110  33.5695267
  31.7956581   5.6945658  24.3194008  31.2379417   6.2977371  24.8106937
  31.1904507   5.0423403  23.9664726  33.9836578  42.8412437  19.2277813
  33.4250679  42.6152916  19.9715271  33.3910065  43.2546577  18.6000195
   8.5220308  54.4018021   3.5778668   8.5997667  54.0130844   4.4491243
   7.6395173  54.1688461   3.2895367  55.5947342  68.5594788   5.3650556
  55.0549545  68.1894455   6.0635872  55.5301704  67.9252853   4.6510115
  21.3875408  16.2050610  61.6930199  21.0470810  16.4140091  62.5628815
  21.9077835  16.9706459  61.4491806  78.3050919  12.3891649  63.0744362
  78.7863998  12.7369928  63.8251648  78.7221146  12.7942371  62.3140144
   0.5476648  17.6991978  54.7088013   0.8067188  16.7793484  54.7635803
  -0.3975160  17.6912384  54.8598022  29.9949684  56.3199692  59.7369957
  29.9247913  57.0819778  60.3120155  29.9747066  55.5693169  60.3305779
  32.0404739  55.1413994   9.4978619  31.7050838  55.9525070   9.1159573
  32.4623451  55.4164581  10.3118639  85.4068756  70.4555588  81.2482758
  85.0898666  69.6227722  81.5978470  85.9012909  70.8453140  81.9692993
  39.5664711  24.9683037  11.0078688  39.6159592  24.1708126  11.5349283
  40.3303871  24.9231701  10.4328671  48.5931892  53.0798569  26.6953583
  49.4666824  52.7011452  26.5962715  48.2328873  52.6510925  27.4716148
  81.3658600   8.5590973  82.8925171  81.0395813   8.8554621  83.7421875
  82.1722336   8.0858097  83.0974350  44.4316559  67.1158524  63.8661880
  45.1117477  66.4456100  63.9331360  43.7028923  66.6748199  63.4295807
  61.7432899  15.1503429  49.9195824  61.8712578  15.9612246  50.4118500
  61.3492470  15.4311771  49.0936928  12.6385880  31.4942608  20.4912663
  12.3945551  31.5202732  21.4164696  13.4599524  31.0030460  20.4739265
  13.8787384  26.3425884  23.6166153  14.6499271  25.7940102  23.4732189
  13.1594200  25.7206497  23.7261868  17.2565422   3.1343431  40.9453468
  16.8689499   3.8763056  41.4095612  17.0105476   2.3704405  41.4670486
  39.9900475  26.2324505  80.1427231  39.2636414  26.5264091  80.6924133
  40.6278687  25.8742657  80.7600708  17.5504379  33.2607918  64.5734177
  18.1245613  33.1136818  63.8217697  16.7106380  32.8840256  64.3107147
   3.8516626   0.1742928  69.8067551   4.5052247   0.7345192  69.3881454
   3.1007667   0.7498010  69.9522781  16.5315113  43.4359360  65.0842209
  16.5429897  44.2936172  64.6593857  17.1811447  42.9222298  64.6043091
  19.0038071  12.8711481  86.2966232  18.1964588  13.1856813  85.8898163
  18.7385368  12.5966606  87.1744156  32.5848274  56.3370552  25.3377914
  32.1167450  55.5022049  25.3503914  33.2105751  56.2717133  26.0591812
   8.6015158  63.4855156  21.1741524   9.5063200  63.7970314  21.1513901
   8.4965057  63.1187096  22.0520229  56.9508324  66.1647491  27.4574356
  56.5493622  66.8835678  27.9456520  57.8814621  66.3865738  27.4265251
  76.5562439  68.3988266  14.6079178  75.7878952  68.9676132  14.6564608
  76.2313919  67.5352020  14.8625727  11.5654325   5.9929657  14.9255934
  11.7763596   6.3326941  14.0559235  11.4507027   6.7742453  15.4665842
  16.2732201  57.6377258  32.7597466  15.9030495  57.0432091  33.4122505
  15.9433994  57.3102913  31.9229450  12.6917944  10.8438616   2.7216241
  13.4804134  10.6747913   2.2061365  12.2660170  11.5756159   2.2749910
   9.8486824   0.8586165  70.5949326  10.8019457   0.8322786  70.6775589
   9.5296135   0.3467180  71.3381577  20.3247356  50.3328857  33.4359589
  21.1810837  49.9053421  33.4463310  19.8255730  49.8858948  34.1195297
  85.0818939  33.2784538  72.2902298  85.0809402  33.1703949  71.3391495
  84.7131119  34.1502151  72.4326019  40.2592354  57.6653900  33.1363640
  40.1775856  56.7238464  32.9845238  40.9225960  57.7407379  33.8223000
  53.4068642  47.0021896  87.6409988  52.8727760  47.6970711  88.0258636
  53.8090706  47.4070244  86.8725204  81.3136673  11.1357698  86.0977631
  81.8109360  11.6286745  86.7504501  80.4123764  11.1537418  86.4196014
  54.7101555  48.8430214   0.7869735  54.5126266  48.0802078   0.2435290
  54.2012215  48.7060966   1.5860163  18.7814274  16.6259785  71.3158493
  19.0692196  17.4747696  71.6519470  18.8270245  16.0409641  72.0720978
  12.1799545  28.4701042  72.7919159  12.1442089  27.9975548  71.9602585
  12.6714735  29.2671604  72.5935669  43.5631409   3.2182701  77.1471634
  43.5070496   2.3408060  76.7688217  44.3528595   3.1960359  77.6876068
  35.7174606  -0.0259531  28.3411312  36.3845940  -0.6911580  28.1718178
  36.2148590   0.7599661  28.5673103  44.8253822  54.4693527  40.7887039
  44.5697365  54.6188545  39.8784714  44.1043320  53.9606285  41.1595345
  70.3989410  51.8686066   7.1785660  70.0534286  51.5191422   7.9999852
  70.1481628  52.7923355   7.1869693  27.7216854  34.5056152  39.1900940
  26.9334240  35.0413818  39.2785683  27.8206272  34.0824356  40.0429497
  17.2648773  59.0607033  62.9705429  17.2332535  59.6635056  63.7134171
  18.0548325  59.3117714  62.4918289  80.3978958  37.9060440  84.2845459
  81.0225830  37.3773079  83.7881317  80.8231125  38.7590446  84.3729324
  17.6029854  14.4050846  80.3354950  17.7811871  15.2119474  80.8186569
  18.1216583  14.4857140  79.5350494  66.4053726  51.9477005  70.7761612
  66.4248581  52.0641899  71.7260513  67.3237305  51.8383789  70.5293808
   5.9418073  33.1410980  41.9940796   6.0769758  32.2540207  41.6608391
   6.5307288  33.2068901  42.7457962  63.8608017  47.6092682  87.0458832
  63.6136513  48.2429733  87.7193604  64.0611801  46.8092651  87.5317688
  57.4705505  61.7724953  75.0459061  58.2601509  61.5287209  75.5289612
  56.7735558  61.2553482  75.4496307  53.1461029  25.5491066  21.2339153
  53.4971428  25.7999268  20.3794613  52.6366348  26.3088074  21.5159283
  80.0658493  37.4164734  39.7194672  80.0324326  36.8719826  40.5060120
  80.9842072  37.6764908  39.6470108  77.7346191  25.5267372  76.6769638
  77.4971542  25.3829041  75.7609100  78.5496368  25.0382710  76.7926559
  34.5545273  22.5856152   7.6121039  35.0839882  23.3414612   7.8662634
  33.6513824  22.8636761   7.7645583  55.7369156  40.2956352  63.3436356
  55.8713646  39.9357834  64.2203674  54.8306541  40.6037025  63.3475647
  72.5407257  53.5849533  36.1597443  73.1940994  52.8854523  36.1535606
  72.8204422  54.1801224  35.4642143  74.5323029  37.6524658  82.3470154
  73.6153412  37.9249420  82.3128510  74.5334473  36.7687798  81.9791489
  39.1980438  25.2281361  13.9552469  38.9530373  24.9996452  13.0585890
  38.4478493  24.9578953  14.4847822  73.6993179  28.6778870  73.0054550
  73.3805389  29.2819405  72.3348312  74.1729279  28.0051460  72.5162201
  67.9696045  58.6060905  26.9025135  67.5181808  57.9848480  26.3311043
  68.5000153  58.0578651  27.4807415  17.2123337   1.7597197  46.2247810
  17.5646286   2.4846165  46.7411575  17.7037258   1.7894047  45.4038773
  45.5797768  35.6202850  88.4272537  45.7505722  36.0643349  89.2578430
  46.3159866  35.0176620  88.3220139  19.8923874  14.0163088  27.8697243
  20.4703007  14.6682367  28.2662544  19.8407478  13.3152561  28.5194092
  77.6867142  31.5830059  12.6908360  78.0244064  30.6950188  12.5739040
  77.0119324  31.6731758  12.0179567  61.1627693  40.1628380  69.0729599
  61.3491135  40.8513451  69.7112885  61.2875557  39.3468323  69.5575256
  74.5530624  35.1005402  85.8645554  75.3061066  34.8246880  86.3871155
  74.4185562  36.0175591  86.1037521  61.9583168  38.8111229  84.8831787
  61.9189644  38.4761810  83.9873581  62.2419510  39.7202339  84.7867279
  66.4766769  53.6655807  29.8886967  66.1944427  54.4381256  30.3783360
  65.8362656  53.5826721  29.1821365   6.7470479  66.3702316  28.0618439
   6.0062952  66.9700775  27.9740696   7.3684626  66.6575317  27.3928642
  15.0898228  26.5358257  58.7629204  14.8151093  26.7351875  59.6579170
  14.3259516  26.1178360  58.3654022  52.3205490   0.3567556  18.3393230
  53.1364517  -0.1278724  18.2141190  52.1144600   0.2431528  19.2671432
  23.5136986   5.1029553  41.6928139  24.3726902   5.0308852  42.1089478
  22.9724483   5.5580173  42.3379478  62.5776062  57.2761917   1.5107523
  62.2407494  57.3103142   2.4060698  63.1181107  58.0618477   1.4281055
  22.3527279  28.1468105  70.8204346  22.8709831  28.5318546  71.5271072
  22.1583710  28.8813763  70.2383041  81.6007996  71.3133621  42.7726707
  81.9353409  70.4410095  42.5645485  80.6893005  71.2962189  42.4809265
  26.2431946  11.5365448  86.8333817  26.7267323  11.8653011  86.0755310
  26.5968895  12.0279779  87.5747452   6.5042443  59.1122627  19.3657627
   6.1211100  58.2438812  19.2418613   6.0681801  59.6616058  18.7143784
   0.2777846   5.7543364  83.7027740  -0.1973585   4.9938574  84.0376511
   0.1326004   5.7300267  82.7569656  69.1936264   4.7231159  61.6438484
  68.4061127   5.2641678  61.7013664  68.9197617   3.8660448  61.9704361
  27.2448750  57.1575356  42.7128105  26.8269768  57.2607880  41.8578644
  27.4233818  56.2195625  42.7804375  24.4150295  14.2775564  19.7528076
  24.4747467  13.3479090  19.9728565  25.0728722  14.6975851  20.3069286
  61.4493980   4.4652991  43.7813492  60.7676125   4.9758964  43.3446693
  62.0909195   5.1162405  44.0658798  67.3608093  36.1806526  54.0816154
  67.5787888  36.3275185  55.0020218  67.5244751  35.2478485  53.9426117
   8.3667040  29.6960697   9.2827082   9.2807446  29.6646099   9.5651474
   8.0246248  30.5028152   9.6679058  79.5305862  27.9380665   7.6259828
  79.3485413  27.2705517   8.2874346  78.9665680  27.7047024   6.8886518
  57.8060379  51.8627930  52.2556229  56.8680496  51.9107742  52.0709572
  58.1213722  51.1434517  51.7084999  13.9853477  68.1567154  43.0322266
  13.1060085  68.0250854  43.3867226  14.3007345  67.2736588  42.8399353
  86.1232300  30.3395004  84.3352127  85.8133240  30.1042328  85.2097626
  85.3243179  30.4498711  83.8196564  41.1743774  53.7179565   1.6192416
  41.8235474  53.1971664   1.1463962  41.2088928  53.3864937   2.5165555
  79.0877304  14.6739798   7.2765951  78.9407349  14.0049791   7.9452229
  80.0311050  14.6492796   7.1163969  12.5173426  51.6255646  27.7463131
  13.1374092  52.1125755  27.2035713  12.8389673  51.7416687  28.6403542
  66.7857513   8.8410902  69.0777283  66.9263916   9.7674646  68.8820724
  66.0271301   8.8320541  69.6613770  83.8751221   7.2612596  83.1078491
  84.7090607   7.6179924  83.4136658  83.9925766   6.3120260  83.1451797
  50.5773659  19.9792576  58.2788353  50.5832558  20.4917812  57.4704323
  50.6582985  20.6303444  58.9758072  61.1349716  19.2559643  60.0314178
  60.3192482  19.5598431  60.4295197  61.7078094  19.0659122  60.7743645
  35.5833206  50.7662163  25.1772881  36.1092796  51.4932098  24.8440018
  34.7050095  50.9285126  24.8331089  82.5310822  51.5574455  77.0643463
  81.8471069  51.8552208  76.4645615  83.3502655  51.8022575  76.6339493
  65.3093643  61.1056786  73.2703018  65.9984741  61.5110207  73.7966690
  65.7506485  60.8357239  72.4649277  39.6689949  23.9406147  21.5032444
  39.7380676  24.6248436  22.1690464  40.4515228  24.0519142  20.9633427
  44.1012115   6.7301722   7.5884428  43.9783936   6.2704639   6.7578907
  44.9655914   6.4515691   7.8908658  43.9124031  29.4702873  25.3272266
  44.7040863  29.0798817  25.6974335  43.2571754  29.3856182  26.0198593
   5.0141864   4.0965433  19.4195881   5.6020184   3.6126747  19.9997234
   5.5968566   4.5335879  18.7985268  33.0483818  60.7353935   0.4516628
  33.0400124  60.4788475  -0.4704792  32.3961945  60.1688194   0.8638246
  79.4237518  15.9519854  30.4455032  78.4748764  16.0670090  30.4968472
  79.5537262  15.0053940  30.5029659  11.7827625  37.7052612  36.5068016
  12.4271784  38.1256409  35.9373779  11.2196865  38.4213142  36.8008194
  69.4390640  61.8810120   3.3775172  68.5208893  62.0487976   3.5897329
  69.4234390  61.0681801   2.8722527  31.3767738  46.3822784  43.9319229
  31.4958191  47.2946472  44.1958275  31.8097439  45.8757401  44.6190872
  81.7826385   6.8069882  69.0866547  81.3201370   7.6347489  68.9557648
  81.1564560   6.2540431  69.5539627  78.3128738  65.4643326  30.5288467
  78.4401779  64.7024231  31.0941048  78.2299500  65.0981522  29.6483555
  62.0593987  18.4535103  19.9118786  62.3236313  19.3508263  20.1149540
  62.1304016  18.3926983  18.9592552  40.2603569  64.2576599  76.6194382
  40.1115990  64.7421494  77.4314575  41.1119690  63.8385201  76.7431946
  57.8169136  59.1693802  39.8566170  56.9179306  59.0941582  39.5366135
  58.1500320  58.2720566  39.8481445  14.1541748   0.9234388   8.4409962
  14.8127012   1.4162184   7.9513612  14.0302439   0.1206623   7.9346142
  55.2370071   4.7719731  69.0232391  54.9935455   4.0407228  68.4555817
  54.5929947   5.4523520  68.8268661  65.8664322  25.9912567  82.5425491
  64.9508438  25.9749317  82.2638702  65.9351120  25.2815475  83.1811676
  43.9376488   6.7319293  14.0512581  43.4164734   6.1146832  13.5378237
  43.9801826   7.5190868  13.5082970  65.6276321  19.9202023  38.6587868
  66.0021896  19.5281067  39.4475822  65.3940811  20.8104954  38.9215927
  34.2666626  36.7186623  17.3759060  34.4386902  37.3154526  18.1042442
  33.4332008  36.3036575  17.5980415   4.3566685  31.2705231  65.1648026
   3.4587305  31.1550865  64.8539734   4.5875702  32.1621513  64.9041977
   6.6703691  24.8379307  74.0105820   6.1105852  25.3414955  73.4195633
   6.2095318  24.8548279  74.8493729  60.7224998   5.2616553  15.9712448
  60.9367867   6.1228518  16.3299274  60.3292542   4.7880144  16.7042217
  59.4977379  44.2573586  56.6861343  59.6169395  44.8274269  57.4457703
  60.2381821  44.4615364  56.1149178   2.4221368  49.6973152  39.9303589
   2.6011467  50.0484352  40.8026581   2.8826864  48.8584213  39.9107018
  53.8442039   5.8530030  13.4815702  53.2306519   5.1282845  13.6022768
  53.6631584   6.1755824  12.5987368  67.0949707   7.1005392  71.8685455
  66.3649292   6.4822941  71.9007721  67.5527802   6.8883677  71.0551453
  61.8558922  22.5101624  77.3364944  62.1966858  22.1324387  78.1473007
  61.8205681  21.7740459  76.7256546  73.0751038  52.6428986  74.8342133
  72.8496246  52.1543388  75.6258621  72.3389664  53.2406883  74.7038727
  82.5540619  69.7680283  25.7266006  81.7377853  69.4753418  26.1318913
  82.3959885  69.6894608  24.7858200  24.6952915  54.0972061  85.5196533
  24.6240978  53.5755043  86.3190231  25.3825321  54.7355232  85.7106552
  39.0648117  51.2524757  87.4952927  38.6879005  50.4154053  87.7663651
  39.9453278  51.2514534  87.8706818  22.8355503  20.6450653  63.4080429
  23.6909065  21.0127754  63.1858063  22.3398037  21.3857498  63.7571182
  49.6996651   1.9786521  44.6174469  49.9326210   1.5335034  45.4321899
  49.7922058   1.3064368  43.9423218  10.8060503   8.5799046   6.8101921
  11.3191833   8.5935068   6.0022683  11.0060577   9.4140148   7.2350311
  21.3289661   4.9515066  88.7836151  22.2109241   4.8285723  89.1347122
  21.3396072   4.4930997  87.9433899  70.2471161  39.5954742  65.2985992
  70.9923477  39.2272186  65.7732086  70.6204300  40.3120346  64.7853622
  62.1692734  60.8202171  63.7580490  61.5419426  60.2596207  64.2145767
  61.7800293  61.6939659  63.7939224  70.0125198  25.5164204  11.5250177
  70.7624664  25.9043427  11.0741072  69.3855972  25.3262291  10.8271427
  60.2590256  27.7744770  17.4138947  60.4011192  27.1393986  18.1158333
  59.6387024  27.3453426  16.8245964  77.0874863   8.8202820  29.3110371
  77.0468445   9.0855846  30.2298374  76.3872452   8.1744900  29.2170124
  53.5361900  31.2976532  14.3389149  53.5463486  30.3446083  14.2504072
  54.4549217  31.5366058  14.4616499   6.6772132  54.6985283  82.6749878
   6.3040810  53.9114532  82.2781067   6.1085205  54.8824043  83.4226608
  55.2431107  22.2687855  32.9969559  55.3499413  21.4731045  33.5182152
  54.2960358  22.3999519  32.9514542  74.5777206  69.3697586  34.0747375
  75.1600800  69.1264954  33.3550720  73.7074203  69.4034576  33.6776543
   2.6696076  61.1958275  47.0776520   3.3726671  61.5650330  47.6120949
   3.0279362  60.3724899  46.7460785  27.6495056  16.1265163  10.1276922
  27.8987617  16.0416946  11.0479689  27.6275501  15.2268438   9.8015957
  16.8018284  36.3854790   8.4450111  17.5435276  35.7820320   8.4006910
  16.0659962  35.8870964   8.0894871  67.3025970  11.4513359  27.8138523
  67.8102264  11.0705938  27.0972061  66.8222656  12.1739130  27.4096317
  35.0300369  62.7610931  79.7653732  35.8139038  63.1741905  79.4032516
  34.7575073  62.1351204  79.0944672  82.3587723  52.1795731  62.4773521
  81.7167969  52.2554398  61.7714195  81.9174957  52.5474930  63.2429543
  74.9963608  23.0934963  40.0616875  74.9401550  23.7941017  40.7114754
  75.4162979  23.5020161  39.3047218   4.9003468  21.7168655  49.6447029
   4.0195956  21.8279705  49.2867050   4.9482932  20.7901573  49.8795357
  82.1345901   5.6446400  14.1139441  81.7053833   4.8271742  13.8614321
  83.0609131   5.4154997  14.1891537  63.7960663  25.0954399  84.4512711
  64.3302078  24.3292809  84.6608429  63.8372917  25.6386929  85.2383041
  81.9491119  29.8024864  41.1057320  81.8647385  30.7142544  40.8268204
  81.3620071  29.7268124  41.8579369  78.6641083   2.5728998  44.1192055
  78.9972610   1.6971264  44.3148232  77.7472687   2.5470688  44.3929977
  33.9508362  48.4830971  36.4630928  33.0310936  48.2703476  36.3048286
  34.3990135  47.6375237  36.4438057  20.4946270  43.5271988  12.0302429
  19.7084846  43.4490280  11.4897766  20.2538967  43.1217270  12.8632345
  62.6554527  47.5832329  29.2961597  62.3745041  48.4357071  29.6287060
  62.1040115  46.9521523  29.7586346  13.7601719  12.6209631  15.2056904
  14.5295267  12.2640934  15.6495018  13.2848358  11.8508596  14.8938770
   5.9641342  27.6842289  84.4933548   5.0945258  27.3268929  84.6731491
   6.5085535  26.9154663  84.3235245   0.6945467  51.3348846  48.0421104
   1.5750382  51.1501732  47.7152367   0.3618265  52.0187187  47.4608192
  25.6027660  34.5579796   1.7693956  25.0314293  35.3257141   1.7891088
  25.0051537  33.8172493   1.6673737  25.3377228  46.9036484  20.7644348
  25.7522430  46.0549355  20.9196472  25.3307285  47.3273239  21.6227379
  65.7595596   2.4602921   5.3897328  66.7069092   2.5924909   5.3539791
  65.5923996   2.1661439   6.2851467  44.6036453  49.2597313  40.2797737
  43.8083000  48.9562416  40.7174416  45.1599617  49.5807266  40.9894943
  16.3443794  19.0475140   5.1798897  16.6675854  19.1807671   6.0709634
  16.7493210  19.7496586   4.6707258  86.5211945  57.3673363  35.4656296
  85.9471893  56.6061668  35.5514984  87.4024734  56.9977684  35.4108429
   8.4384365  51.1837654  74.7539597   9.0396585  51.8332710  75.1185226
   7.9175062  50.8928719  75.5024567  57.9486275  15.5245075  24.9435158
  58.4333839  14.9913969  25.5736237  58.3759460  16.3804474  24.9751053
  57.5009460  70.1990662  69.0589294  58.2980576  70.6762390  69.2894974
  57.6177254  69.3338776  69.4514084  15.6244030   7.6708293   6.6472645
  15.9100904   8.4566288   7.1132398  14.9191790   7.9744225   6.0756679
  32.1257286  35.0348701   5.5221086  32.3487854  34.1236534   5.7122650
  32.6666451  35.2609787   4.7654619   1.5017179  63.1585197  61.7940407
   1.5993223  62.2854919  62.1742096   0.6056150  63.1745758  61.4579239
  41.9122276   0.2347090  27.7994404  41.8909187   1.1508735  28.0758839
  41.2265778   0.1690865  27.1347504  44.9591866  44.3194199   8.6729813
  44.8610878  45.1999969   9.0351877  45.8484077  44.3037148   8.3190403
  70.0591202  57.1357040  77.1612625  69.7712097  57.9702797  77.5311508
  69.3447113  56.5287552  77.3548355  66.8342285  37.8749275  20.7641754
  66.4444351  38.2729301  21.5425587  66.5555954  36.9598045  20.7980289
  75.9045868  14.1460438  35.5793915  75.2376099  14.4544096  36.1928062
  76.5254440  14.8718100  35.5158730  19.0633450  61.5606766  84.2646179
  19.3811989  62.2592964  83.6926651  18.1279850  61.7386055  84.3629837
  53.9245186   1.9948627  10.9820538  54.8389053   1.9566396  10.7015743
  53.5962029   2.8166065  10.6171188  54.9453773  62.9970474  86.3158569
  54.3343201  62.2641563  86.3914337  55.5640030  62.7242050  85.6382980
  24.7639923  57.9020653  19.8445778  24.4397049  57.0014954  19.8384209
  24.1296444  58.3814163  20.3775501  27.3791256  60.5440598  40.7157936
  26.6788597  60.7141151  41.3458252  27.7508812  61.4068108  40.5322380
  25.8462219   8.2045670  16.1393414  26.2771225   7.3507323  16.1003170
  26.3828964   8.7162504  16.7446442  28.2597008  61.4737625  52.6120453
  27.6973934  61.8224525  53.3037529  29.0073128  61.0986557  53.0774536
  83.6964111  70.2626038  18.2968216  83.2882004  71.0367661  17.9091835
  84.0694275  70.5757599  19.1208534  29.9630699  55.4629173  41.2867470
  30.7386227  55.3317604  41.8322296  29.2299328  55.2110023  41.8482475
  39.8859558  11.7432175   6.5709128  39.7770920  11.9922686   7.4887114
  40.7771835  11.3976603   6.5205989  60.5502625  60.9670219  79.0335770
  61.1841507  60.3913994  79.4614563  59.8635826  61.0955276  79.6879349
   3.4426861   1.4005232  36.5166092   2.5632136   1.0343829  36.4233246
   4.0229001   0.7198910  36.1755486  61.3097000  68.0299454  34.6188812
  62.1394463  68.2717361  35.0303307  60.9148102  68.8648376  34.3673859
  41.1221848  25.5490932  23.3885422  40.5273056  25.3059597  24.0979328
  41.7756195  26.1105213  23.8057404  85.3681335   1.5585481  50.6597176
  85.9282074   2.3051999  50.4474373  84.5724564   1.9506191  51.0194511
  71.7270584  60.5579987  34.0867844  72.6380234  60.2657051  34.1175728
  71.6054535  61.0489388  34.8994484  73.3110352   2.5816686  32.5774498
  72.7740860   2.1672857  33.2528763  74.1814041   2.2015998  32.6967697
  40.8282166  35.1055222  19.8030739  41.1774826  34.8965950  18.9367046
  41.2728157  35.9159927  20.0514832  13.3517818  27.5907383  77.8754959
  14.0063334  27.3343544  77.2258377  12.5133963  27.3635025  77.4733734
   2.9033008  28.9017849  57.0477676   2.7423425  29.5045223  56.3218002
   3.5928187  29.3233395  57.5606880  25.9016266  47.1359482  52.1852493
  25.4281235  47.9660797  52.1312828  25.2749138  46.5277786  52.5771637
  20.4274292  64.1931381  79.8031540  19.5542469  64.5084915  79.5700455
  20.8610268  64.9533310  80.1908798  61.5131149  67.9555435  69.7600555
  61.9077454  67.3276978  69.1548233  61.2108498  68.6705551  69.2000275
  11.9085398  41.7641335  70.3122559  11.4557924  41.9356956  69.4865341
  11.6706667  42.5020332  70.8736496  40.5343552  64.3431244  37.3940010
  40.3949318  65.1856384  37.8264008  41.2591972  64.5013657  36.7891884
  64.0909195  51.9220734  61.0521469  63.3321190  52.2771187  60.5891228
  64.2189026  52.5152626  61.7924042  66.9659500  10.9540787  48.2768669
  66.5308456  11.7976713  48.4004288  66.7487488  10.7017279  47.3794403
  11.3181057   1.4840182  45.1315994  11.7159281   1.9323162  45.8779221
  10.5380716   1.0631249  45.4930229  10.6298780  54.4681816  23.2790508
   9.8250885  54.4302597  23.7958755  11.1312714  53.7027588  23.5600548
   3.0533259  40.7663193  34.4258270   2.2447758  40.3603554  34.1133003
   3.4730918  41.1040840  33.6346588  57.5964279   6.2920895  26.1704540
  57.8497467   6.4637880  25.2634907  57.4549103   5.3460245  26.2046032
  73.9053650  51.2199249  32.7245827  74.2452240  50.8419418  31.9134998
  74.6855392  51.4099464  33.2455940  73.4623337  49.5179329  83.0709610
  73.8428650  48.7538719  83.5041275  72.7035294  49.1731949  82.6002121
  81.8896103  18.3339577  25.1298676  81.4287109  17.5173111  25.3219414
  82.7998886  18.0696144  24.9966526   4.2790151  63.6008911   2.0399685
   4.7151561  63.9974594   2.7941220   3.7173228  62.9236641   2.4169242
  40.3290939  55.5655022  84.3673096  39.4967422  55.8379784  83.9810638
  40.3502007  55.9983940  85.2207718  64.6014938  59.7395248   7.8719797
  63.8500786  59.6473961   8.4577408  64.5044785  60.6133842   7.4935789
  13.1292858  33.7246361  11.7521172  12.9943705  33.3914642  10.8649721
  13.1808615  32.9396896  12.2974892  50.3485947  34.0492020  38.9293175
  49.4960403  33.9726410  39.3577156  50.9256210  34.4035912  39.6058388
  32.7969170  55.8635864  52.9026794  32.4376945  55.0831680  52.4806175
  32.1186714  56.5297775  52.7913094  66.3633728  62.7266731  79.8333969
  66.2731857  61.8503304  80.2077179  67.2140427  62.7133751  79.3947449
  41.7044563  45.6161995  67.5655823  42.4351273  45.6858292  68.1799927
  41.3241425  44.7557449  67.7422333  51.4770355  48.6896095  69.8844986
  50.8780670  48.2404633  69.2880630  51.5844650  49.5615158  69.5044098
  14.9794502  45.7292213  21.1156483  15.0390654  46.6802216  21.0246983
  14.8196764  45.4131165  20.2263889  37.5720406  53.9694176  88.6134338
  37.2886353  53.0657425  88.7522888  38.3172379  53.8977661  88.0169601
  49.5580788   2.8820837  26.7631493  49.9785233   2.0222075  26.7547398
  50.2038918   3.4683366  26.3688564  74.9090042   7.3423133  83.6553421
  74.7819290   6.9725957  84.5290680  74.3989334   8.1522655  83.6614990
  44.4658127  46.9368095  66.7891464  44.0554810  46.9153252  67.6536713
  44.6666298  46.0209503  66.5965118   5.0993729   0.9043441  16.5353928
   4.5671978   0.1099342  16.4914112   4.5767226   1.5142335  17.0560684
  65.9638290  26.0852413  30.8795109  66.8100510  25.6534481  30.9965439
  66.1834869  26.9591732  30.5566730  53.1023979  48.1946869  77.6374359
  53.4002304  48.3569870  78.5325317  52.9765244  47.2467461  77.5950699
  75.2405090  40.8441238  87.9385376  76.1399231  40.5849037  88.1387634
  75.2067490  40.8728561  86.9823608  67.7493515  59.3846664  16.7309265
  67.2691422  58.5782814  16.5428352  67.0910568  60.0764160  16.6647987
  62.3652344  39.3388405  75.9228592  61.4701500  39.1868553  75.6196060
  62.8579521  38.5829277  75.6033936  81.0041199   3.7881477  49.3886986
  80.8897934   4.0120831  48.4651108  81.4873886   2.9619877  49.3767967
  46.4786491  39.4182892  26.3781357  46.7557983  39.8798981  27.1695499
  46.4239502  38.5001335  26.6431389  66.3179626  67.7251053  12.4769888
  66.2910995  68.5097809  13.0245190  65.5699158  67.8188782  11.8871880
  45.3931274  30.2714081  57.4289207  45.7640152  29.7644939  58.1512184
  44.7008629  29.7130108  57.0750961  57.5521812  20.3589840  63.8746948
  57.6121216  21.2631893  64.1829987  58.1997833  19.8847084  64.3961411
  47.6973495  37.9796486  15.0146008  46.7934952  37.6673393  15.0562963
  48.2276840  37.1835670  15.0496874  29.1059780  58.2550240  21.2254238
  28.8798504  57.3426781  21.0445271  30.0070286  58.3445244  20.9150505
  47.0718269  70.0852127  71.3174515  47.2934685  69.6755295  70.4812317
  47.8834801  70.0506592  71.8236694  14.0970125  46.1531029  14.5599194
  13.2315845  46.4443665  14.2728081  14.0040627  45.2080040  14.6798325
   7.7433138  54.3354492  77.1073074   7.1777163  53.8571281  76.5010605
   7.4627743  54.0460701  77.9755173  33.4294739  51.0252075  12.0554390
  32.9889069  50.3576126  11.5296564  33.9741058  50.5283623  12.6659708
   9.7781878  25.3181267  17.2332096  10.2510777  26.1502590  17.2205238
   8.9545479  25.5038052  16.7822399   9.0039215  50.1214600  25.9905910
   8.3041868  50.3661880  26.5961590   8.5516300  49.7006454  25.2594433
  75.0233231  11.2491350   8.3570251  75.2217255  11.7263641   9.1627054
  74.9180298  10.3398676   8.6369848  39.1528320  66.1779099  67.4831314
  39.9424744  66.6755447  67.6953888  38.4331627  66.7837448  67.6599655
  21.6353970  23.2414246  24.3737049  22.3267803  22.7079468  24.7656517
  20.8891811  23.1379147  24.9641972  20.9183292   2.5205290  26.8234043
  20.8276596   3.2781866  27.4013023  20.1679058   2.5791593  26.2320843
  36.5614357  20.9435368   3.9554753  37.0365295  21.7715988   4.0249777
  35.7554855  21.1681118   3.4904566  32.7360191  51.5581894  22.4584675
  32.6367378  50.6096687  22.5402031  33.6725578  51.6890831  22.3101692
  22.7220879  28.0689240  87.9016647  21.7903061  27.9193439  87.7415466
  22.8193626  29.0208778  87.8781128  50.1114693  43.3245163  83.9606476
  49.7098389  43.5090752  83.1116104  51.0019798  43.6670532  83.8838806
  61.7986832  16.5628090  66.3621674  60.9589195  16.7205620  65.9307251
  61.6167564  15.8662109  66.9929504  73.9432983  27.1812744   8.5172310
  73.8751755  28.1304379   8.6205750  73.4846497  26.8240223   9.2776566
  11.3324575  45.1243706  26.3067684  11.1765795  44.5335655  27.0435734
  12.2243881  44.9235535  26.0232849   8.7322721  32.5199776  84.3149567
   9.4983587  31.9612961  84.4461670   9.0961218  33.3779793  84.0966034
  85.3735123  12.4237957  84.5673828  85.6160812  12.9577465  83.8108826
  84.8079987  12.9921494  85.0902634  81.6056061  41.7676315  63.0429497
  81.6008606  42.1605453  62.1701241  82.2574310  42.2724190  63.5293045
  27.6013107   2.9560750  46.6733208  27.8807869   3.8115396  46.3472748
  27.1383152   3.1499715  47.4883461   1.1313307   7.7619400  74.3255310
   0.8086702   8.6613865  74.3813705   1.2241204   7.4837704  75.2367096
  13.5939064  41.7461395  26.5518703  13.7681885  40.9611855  26.0325375
  12.6402416  41.7757301  26.6285572  15.0960274  30.8042641  80.5134811
  16.0432301  30.8590164  80.3868332  14.8450489  31.6746140  80.8228912
   4.4242392  36.9545822  75.1548691   4.8680882  36.9848328  74.3073349
   3.7618885  36.2709351  75.0541000  48.5770340   2.8236165   1.0481505
  48.3019257   3.2413170   1.8642833  48.8440170   1.9420265   1.3084389
  11.6255035  70.9273300  62.2381706  12.4346304  70.4274445  62.1301804
  11.3971024  70.8168716  63.1611328  37.5974922  31.4678478  12.1612158
  38.5014610  31.5096855  11.8492498  37.4394836  32.3265953  12.5534172
   7.0987616  56.0255585  33.8070374   7.6711488  55.6672440  34.4854317
   7.6976357  56.4094238  33.1665497  61.5131187  62.3443298  18.1532516
  60.7837677  61.9051285  17.7157841  61.3202019  62.2568970  19.0867233
   2.5458229  10.2790737  77.6343918   2.2658386  10.9447775  77.0061569
   3.5020020  10.3002100  77.5955734  70.4713287  37.9441643  50.8382568
  69.8788834  37.2004128  50.9481659  70.3525772  38.4644318  51.6328964
  37.1617088  67.7862320  68.1886063  37.3101120  68.7243958  68.0700073
  36.5093307  67.7333527  68.8870544  42.0293617  60.4707947  86.8436813
  41.2698135  60.4252739  86.2629471  42.2979469  59.5592690  86.9586182
   0.2095397  54.5023842  57.7469025   0.5823116  54.3404655  56.8802681
  -0.3022351  53.7164192  57.9381599  60.6737099  55.1652946   7.9699192
  61.1741714  55.9808846   7.9941134  60.3142586  55.0785713   8.8528166
  59.5969200  36.5441933  39.4801826  59.9761620  36.4891930  38.6030388
  58.7891235  37.0436783  39.3609772  41.5342598  52.5833855  13.8446560
  42.1176300  52.5535164  13.0863562  40.7114258  52.9306412  13.5002947
  73.3059082  35.2341156  74.7365799  72.8464050  35.7132187  74.0469818
  72.6452560  34.6440163  75.0992737   8.5851927  69.9473495  65.0670166
   8.4302025  70.1185532  64.1380920   9.4099245  69.4618988  65.0867386
  16.2690411   2.0342259  38.4520912  15.9386930   2.6005180  37.7546539
  16.7922173   2.6149931  39.0045624   4.5418167  38.8070755  35.1065826
   4.1588049  38.0470428  34.6685371   3.8537576  39.4719009  35.0780640
  51.4764252  52.7560768  34.3307838  51.4412041  52.0327415  34.9567070
  52.2902908  53.2144241  34.5399857  38.6782417  21.7922630   1.3518350
  38.3359833  22.0388832   2.2110610  38.3646584  20.8980274   1.2167722
   7.5990567  35.4153709  74.4284134   8.0906010  34.5942764  74.4078979
   8.2092075  36.0504799  74.8033524  19.7943230   7.8213029  68.5885696
  20.4027843   7.9653144  69.3133240  20.2971592   8.0454826  67.8055420
  37.6849709  46.6855164   4.4700603  36.8623772  46.2069626   4.5728011
  38.2735023  46.2911339   5.1137419  59.4168968  62.0271950  66.4115829
  59.9869308  62.2840347  65.6867828  59.0578804  62.8523254  66.7379227
  60.4553032  30.7631054  75.2470932  61.4001503  30.9055214  75.3037720
  60.3181725  30.4135113  74.3666306  66.7057571  23.9938335   8.2638035
  67.4848938  24.4899311   8.0126734  66.3802948  24.4389248   9.0462360
  27.2677860  65.8883972   4.0210714  26.3323536  65.7844238   4.1953917
  27.6965294  65.5634308   4.8127823  70.6704330  29.9705467  67.5454788
  70.0727005  29.9807701  68.2930374  70.1060333  30.1127529  66.7855682
  14.2609549  53.1512337  67.4090347  14.6707125  53.0855942  66.5464706
  14.3254499  52.2681427  67.7726669  67.9318619  -0.1348713  13.5549517
  68.4020615   0.4629339  12.9737701  67.0073700   0.0619203  13.4038906
  27.3560467  12.3692303  68.6311340  27.8375340  11.6218634  68.2763901
  27.9139576  13.1242018  68.4440918   6.4130754  57.8943558  79.9973373
   5.5916948  57.6733894  79.5583115   6.1434832  58.3527184  80.7932281
  79.9168243  54.7206535  35.0667725  79.8426743  54.5521698  36.0061035
  79.9169998  53.8510513  34.6667404  34.5480804  61.2554550  75.5425491
  34.7674103  60.6737556  76.2703857  34.6696892  62.1369057  75.8953781
  79.2578735  36.6632423  78.4215164  78.4786148  36.4158630  78.9193039
  79.3207550  36.0030441  77.7312927  10.3111591  62.8595581  46.1552048
   9.4422016  62.4829865  46.2942619  10.1594057  63.8038101  46.1153069
  64.4443436   8.7069206  59.8871689  63.5836868   8.9516459  59.5471535
  64.2887802   7.8961911  60.3716812  71.5998917  65.4034424  67.2269592
  71.7203674  64.5899811  66.7370529  72.4890671  65.7016144  67.4184952
  45.6751785  17.6372890  44.2870827  45.2637749  16.7730103  44.2866974
  46.4551964  17.5314999  43.7424622  81.6379929   5.2193885  24.5291328
  81.5207672   5.1961923  25.4788456  82.5158615   4.8651271  24.3874359
   2.2648635  51.9458847  30.7966652   2.5449791  52.4029274  31.5896835
   1.3227191  52.1075821  30.7471657  20.7774410  64.9529190  84.2953033
  20.9547119  64.4762650  85.1062241  20.8860836  64.2992020  83.6045837
  70.3586960  27.3300133  54.6674652  69.9098969  28.1728973  54.7334938
  70.1333847  27.0063744  53.7952690  59.7790375  38.8373909  63.9777260
  59.2133598  39.6086464  63.9402504  60.4213142  39.0442009  64.6566544
   4.6921921  58.6890602  69.5230179   5.5860181  59.0275040  69.5755844
   4.7688856  57.7695580  69.7776947  65.9551697  20.2436047  49.4913864
  66.7530518  19.8673439  49.1198311  65.2488174  19.8869019  48.9528122
  62.9739342   8.2013569  34.4704285  63.8700981   8.1679983  34.1357498
  62.8229103   9.1276207  34.6587334  32.4490051  54.3512230  41.8304443
  33.0713158  55.0746536  41.7555313  32.3358459  54.0387077  40.9328003
   2.6398370  43.2646332  68.4007645   2.1105442  43.6238365  69.1128464
   3.3932610  42.8685722  68.8386230  80.6617432   1.3257060  31.2439117
  79.8727188   1.3827959  30.7050171  80.8312378   0.3868498  31.3217144
  78.4905853  17.4109001  23.4534302  79.2391891  17.1354713  22.9243145
  77.8260345  16.7403126  23.2955704  71.3527908   7.1729617  19.4252796
  71.6247025   6.2552600  19.4362068  71.1061096   7.3388572  18.5154095
  12.0153542  59.3282204  51.2550354  11.8246689  58.4097443  51.4454803
  12.8389130  59.3058090  50.7677155  71.6234131   7.7756319  67.1594009
  71.7089462   6.9531240  67.6414795  70.8537521   8.1979170  67.5408783
  56.6601868  16.2766933  40.1829567  56.2798805  16.2819138  41.0613518
  57.0766068  17.1342850  40.0971527  71.9557800  70.5926895  81.9070663
  71.3974380  71.1078873  81.3247833  72.3069611  69.8982849  81.3496552
  54.6730118  40.1703758  76.7139359  54.0862160  40.9194679  76.6101761
  54.0876846  39.4213791  76.8263016  78.2103043  41.7369347  12.2332745
  77.2874603  41.8813286  12.0241270  78.5994110  42.6113091  12.2161894
  63.2171860  54.3417664  14.9854765  63.9810600  54.2084846  14.4242592
  63.5426598  54.8757248  15.7101746  12.3260098  52.3946342  53.5370293
  13.1856108  52.0828934  53.8201103  12.4005194  53.3488159  53.5516891
  69.2437897  37.0088654  78.0761337  68.5778885  36.3232307  78.1282806
  69.2588501  37.2583389  77.1521378  79.1250153  63.5849113  51.8749962
  78.4089966  62.9592018  51.7652550  79.3076401  63.5775337  52.8145828
  51.3108749  55.4463539  76.8742676  51.7515640  55.9531250  76.1922073
  51.7101746  54.5779190  76.8231430  45.6430702  66.4572220  28.2086926
  44.7806625  66.8682327  28.2683392  46.0017509  66.7724228  27.3790970
  43.3433800   0.4316860  62.9075127  43.8734093  -0.2171313  63.3704796
  43.5016441   0.2529042  61.9805717  74.6369019  34.7424049  63.3014412
  73.7312622  34.4912148  63.1199074  74.5953522  35.1967545  64.1429062
  31.1163616  60.5034294  63.8793716  30.4288769  61.1249008  64.1188965
  31.9095688  61.0356712  63.8179359  57.3806419  12.8847170  51.3476372
  57.3013954  13.7099285  51.8261566  58.2745438  12.8911915  51.0054016
  26.1649227  56.4158401  78.9992371  25.5095348  56.9523888  78.5533524
  25.6569729  55.7358284  79.4417419  71.4707718  41.1584320  24.2789879
  70.8090439  40.5502777  23.9496040  72.1224823  41.2051620  23.5794716
  68.0096359  66.6770935  32.6328316  67.8649979  65.8109894  33.0138512
  67.8140945  66.5651855  31.7025223   1.1626337  54.3618965  55.3809814
   1.5727115  55.0040779  54.8016090   1.2861693  53.5238686  54.9352455
  80.4332809  40.9528427  29.8709450  79.9211807  41.7075539  29.5804272
  79.7916794  40.2481575  29.9603958  85.2226562  22.9081383   7.1008081
  85.1087952  21.9597874   7.1632428  84.9228439  23.2415562   7.9464917
  40.4465408  13.9789495  12.9748974  40.7080040  13.3266726  13.6248226
  40.9771538  13.7756166  12.2046146  17.5643253  24.2898769  85.7888947
  16.7426529  24.7378082  85.9899979  17.4769363  23.4315853  86.2035370
  70.0879440  22.9624557  53.9524384  70.5159683  23.2831211  54.7462883
  69.1685562  22.8629684  54.1995392  85.1061554  13.8798895   8.5442581
  84.4282455  13.3401785   8.1375904  85.4737167  13.3247843   9.2319975
  84.8090286  69.8663177  42.9809494  84.0145950  69.3800659  42.7603645
  85.1192398  70.2108765  42.1435204   7.2195611   8.4093170  61.4348106
   6.9491439   9.2749691  61.1286201   6.5329905   7.8197136  61.1230087
  39.4819565  66.6392593  38.9160042  38.5602036  66.4784698  39.1178741
  39.5403137  67.5878906  38.8023376  67.2942047  57.6986389  47.7951393
  68.0630493  57.1693420  47.5831261  66.5500870  57.1289253  47.6003227
  44.1609917  50.6403008  32.9965668  44.5996628  49.7926140  32.9242897
  43.2345428  50.4225845  33.0991402  47.7139740  69.3563538   4.1357517
  48.5576782  68.9674072   3.9052818  47.1277885  68.6079483   4.2476063
  59.9503975  30.3675251  45.1229668  59.2772026  29.7208786  45.3348389
  59.5140190  31.2123528  45.2328300  73.0903931  24.1497135  45.5714226
  73.6466293  24.8283730  45.9538651  72.2656021  24.2167969  46.0525131
  13.0917978  49.2649384  13.8151598  13.5751047  49.6258736  14.5583773
  12.4402180  48.6864052  14.2113619  21.6551590  44.3199615  61.0694580
  21.0742683  44.9915848  60.7120781  21.9653130  43.8386879  60.3023758
   3.9410434  62.1656303  67.4941940   3.7986729  62.3232880  68.4275208
   3.0625408  62.1681938  67.1141129  74.3962402  71.5602951  44.6790733
  73.5609131  72.0197906  44.7646408  74.3740692  70.8932800  45.3652458
  69.6888962  60.0785332  58.4638634  69.9544678  60.6401253  57.7356377
  70.4645081  60.0279427  59.0225258  29.2368355  47.9165077  19.0909824
  29.6676178  48.3150444  19.8471737  29.7613087  47.1392136  18.8986855
  71.1247482  34.1248245  10.7174959  70.7245026  33.9542122   9.8648977
  71.3912659  35.0433006  10.6774778   4.6200433  60.7286072   8.8733139
   5.0928802  60.2993469   8.1602983   5.3031836  61.1530762   9.3923302
   7.9266605  20.9121933  17.2540798   8.3965549  21.0985069  16.4412346
   7.7669468  19.9687843  17.2275600  46.2892494  26.4644566  80.2342758
  46.1854668  27.0366364  79.4739685  46.1074142  25.5862522  79.8997345
   4.9748621  18.4243011  78.9205933   5.6589699  18.7707367  78.3476944
   4.5378699  17.7548809  78.3941498  57.3949852   7.5076380  46.2848358
  58.1954613   6.9884858  46.2077141  56.8890419   7.2852335  45.5033035
  11.1397905  48.0847321  54.7652054  10.5388470  48.8218193  54.8738403
  11.2294445  47.9864960  53.8172913   5.6757498  48.7804604  37.0474510
   5.6326189  48.0974655  37.7167015   6.2041221  48.3968964  36.3474998
  66.9746246  11.0181351  17.3258057  67.1383972  11.4413052  16.4829903
  66.0912399  11.2973938  17.5663853  15.2638617  32.4946365  67.7279282
  15.1892643  33.0253067  68.5210571  14.4420509  32.6452141  67.2608261
  67.2124786  12.6942148  12.0135651  67.9272308  12.2955399  12.5099726
  66.6006927  11.9752760  11.8552094  45.3266106  16.9208374  20.1814632
  45.7040062  17.6796284  20.6264839  45.7842941  16.8836365  19.3415966
  28.8290672  65.0345459   1.6857693  28.6483727  65.5646744   0.9095314
  28.2273159  65.3700027   2.3502948   4.5079236   1.2516016  22.3648510
   5.1504526   1.2268759  23.0739174   4.9419708   1.7398336  21.6652336
  77.7515335   7.0986428  17.7125473  76.9117737   7.5580249  17.7115345
  77.6819305   6.4707589  16.9934177  58.0145912  67.4825211  40.3893852
  58.4201202  67.4673157  39.5224648  58.5020485  66.8308411  40.8932915
  41.1663055  65.3107452  69.6089478  41.6841927  64.5225525  69.7725677
  40.5015793  65.3078308  70.2976837  79.6823654  70.2438202  70.9218063
  80.4059753  69.8246078  70.4561005  80.1021271  70.7176208  71.6398239
  59.4889565  65.2844086  41.4338913  59.1101990  64.4391937  41.6755333
  60.3450661  65.2943878  41.8619194  48.8744545  68.3413544  32.5181084
  48.9774971  67.5454712  31.9964008  49.0047340  68.0539169  33.4217873
  61.9464302  20.0867329  83.5230560  61.8967819  19.1317482  83.4810028
  61.6010094  20.3818588  82.6805496  37.8769188  29.3018970  15.7200518
  37.6499252  28.4492397  16.0911045  38.6637154  29.5682907  16.1956749
  41.9634590   7.8474321  77.9075317  42.8166275   7.6273098  78.2815323
  41.7366905   8.6875458  78.3063049  62.0197029  18.5820274  23.7523937
  62.9050293  18.2208767  23.7970810  61.9232979  19.0808887  24.5636120
  44.4743233  47.9556808   6.7489352  45.4233131  47.9524765   6.6238728
  44.1159019  47.9806290   5.8617234  47.6058083  54.7310715  11.3396206
  48.5173149  55.0232010  11.3328571  47.6425629  53.8245354  11.0345440
  55.0149841  33.3033295   7.8605223  54.5557213  32.6648674   7.3149266
  55.3244896  32.7976151   8.6119823  50.1980667  26.8915806   2.4066219
  50.9639168  26.3185501   2.3700225  49.7947311  26.6985550   3.2529626
  73.0448227   2.6999030  65.4529800  72.7176743   1.8910270  65.8465881
  72.3998032   2.9166193  64.7797699  83.5728531  21.4889622  22.5814934
  82.8406754  20.8850098  22.4574375  83.4102554  22.1943245  21.9551888
  49.3183060  50.3649139  53.7351570  48.7029572  51.0297165  54.0443802
  50.0127335  50.3564262  54.3938904  76.9219971  46.6234818  64.1440887
  77.7055206  46.0855865  64.2580490  77.2306519  47.4005928  63.6781883
  36.1123009  71.6270981  20.6768837  35.9795952  70.7457123  21.0258560
  37.0007324  71.6125031  20.3209190  47.5994339  53.3199806   4.7485833
  46.6987724  53.6348610   4.6718144  47.5274239  52.5083961   5.2509542
  35.9004822  15.6441727  84.9329605  36.2727890  14.8727798  85.3602448
  36.6448250  16.0592461  84.4971848   1.0938253  22.9814663  59.5280571
   1.9508851  23.4050350  59.4803963   0.5068740  23.5751801  59.0598412
  26.6809006  68.0616226  71.9353027  27.4617100  67.8445969  72.4446793
  27.0155087  68.5370331  71.1748734  48.3921204  45.7604866  63.9384537
  48.1229362  46.2760658  63.1782227  49.2407837  45.3935814  63.6906967
  68.6799545  33.6336327   9.4342470  68.1415100  33.1509132  10.0613756
  69.1859894  32.9579277   8.9830408  26.6139297  24.1506710  88.1037292
  26.1629887  24.9674282  87.8897476  27.2241039  24.3896542  88.8014450
  79.6529236  37.8343277  64.5044785  79.4599762  37.4685631  65.3677368
  80.3280945  37.2583771  64.1457748  78.7216034  69.3692322  82.8333435
  79.3449631  69.1818695  82.1315308  78.8288040  68.6440353  83.4488373
  28.5557709  62.9794159  77.7738953  28.1875153  63.7833061  78.1404724
  27.9982395  62.2817497  78.1183624  71.8698425  36.6576614   4.9435945
  71.6574249  36.1452560   5.7236924  71.0607300  37.1253281   4.7365756
  81.9956131  68.5564804  17.0357590  82.4398041  68.7022095  16.2004795
  82.4357300  69.1468811  17.6472816   4.4533606  65.4761658  64.8530121
   4.2296710  66.2716064  65.3361969   3.6559560  65.2563171  64.3712997
  17.4533672  67.3542099  32.7902451  18.3290939  67.7346954  32.8577805
  17.1676140  67.5670395  31.9018326  85.3930359  59.5787163  34.3093452
  85.7677460  58.7154007  34.4840164  86.1220093  60.0894279  33.9572029
  65.8825150  55.2652092  77.1064148  66.6873856  54.7638130  77.2369003
  65.1940308  54.6026039  77.0501175   6.1838360  63.2256851  58.4495773
   6.5001740  63.9686737  58.9635124   6.8788204  63.0622482  57.8119888
  73.0701370  36.3376923  31.8583164  73.8858490  35.9425964  31.5505161
  72.6264648  36.6239548  31.0599155  71.0263977   3.4244900  63.4908066
  70.4164658   2.7510083  63.1897469  70.9991684   4.0947776  62.8080139
  21.0013371   9.6536217  77.0489883  20.3101006  10.1231766  76.5821457
  20.5411053   9.1694679  77.7345581  12.4885426  15.7335110   7.2990403
  12.2587423  15.5096703   6.3971982  13.3619823  16.1197891   7.2348151
  39.5407257  63.3626709  19.3628044  40.0540771  63.0293617  18.6268654
  38.6945419  63.5935326  18.9795170  56.0137787  65.6575623  70.7054062
  56.4267044  66.5193253  70.7609787  56.1767273  65.2583313  71.5599747
  51.5935326  49.7037773  86.3850784  50.7771111  50.1984673  86.4555817
  51.7773209  49.4162025  87.2793655  60.6637650  52.6133728  29.4288082
  59.9573898  51.9710922  29.3599529  60.5870743  52.9593391  30.3179970
  13.4404173  25.8352833  83.4422760  12.9167728  26.4233532  83.9865189
  14.3118792  26.2311077  83.4318085  13.6933241  57.3194046  84.4180145
  14.1651802  56.9324722  85.1554871  13.1888885  56.5942154  84.0494003
  69.0615005  16.4071064   1.9222236  69.8166046  15.8203449   1.9642386
  68.4894714  16.1124249   2.6308663  58.9320145  23.7122192  75.1688843
  59.6902695  23.5373993  74.6114578  59.0058937  24.6407223  75.3894653
  -0.0606601  37.1476326  36.7390289   0.8425885  37.1817360  37.0540047
   0.0200272  37.0599556  35.7892723  28.0315075   4.7557774  80.0710907
  27.8436203   5.2380824  79.2659149  28.9711895   4.8757029  80.2083893
  52.0203514   2.2187972   1.1387563  52.6943893   2.2320015   1.8182607
  51.2808838   2.6874485   1.5257773  24.2870579  67.0162659  74.6268387
  23.6363506  67.6572266  74.3405228  25.0539360  67.1938400  74.0822372
  69.7220535  56.4116821  49.4846420  70.5452652  56.4625511  48.9988785
  69.9245224  55.8627968  50.2422447  44.7653732  58.4751472  78.0261230
  44.8429794  59.0334129  78.7997818  43.9946289  58.8083992  77.5666351
  56.3383675  28.3304348  41.0643120  56.1843300  27.9163990  40.2151489
  56.1322060  27.6488781  41.7040062  50.2239456  43.3660698  57.0484924
  51.0536308  42.9961052  57.3501167  49.6458321  43.3095474  57.8092957
  54.5607071   7.8244967  15.0488272  54.2976723   7.0858560  14.4997778
  54.5978127   7.4633255  15.9344969  55.9844589   6.2781043  54.8606796
  56.2080994   6.9484720  55.5062981  56.5471382   5.5358620  55.0813599
  25.7217903  35.5944633   6.1320348  25.3906937  35.6426735   5.2352171
  25.1662464  36.1980896   6.6252255  61.8205414  34.1541023  51.2330933
  62.0636864  34.9499016  51.7061844  60.9230728  33.9738731  51.5129166
  77.4221878  18.6790638  78.1289291  77.3719864  17.8322926  78.5724258
  77.8194885  19.2641106  78.7739868  60.6401482  12.6899576  59.2288666
  61.3467674  12.1578789  59.5946693  61.0751228  13.2668219  58.6009674
  84.9134674  62.0696907  20.9745388  84.5138702  61.9528198  21.8364544
  84.1716919  62.1235924  20.3719635   4.2476621  57.7397957   4.6378064
   5.1278663  58.0944405   4.5125022   3.8552821  57.7588005   3.7649326
  13.8606272  43.1578598  15.1746798  14.0474806  43.6500053  15.9741249
  13.7735968  42.2504997  15.4668245  25.2694721  65.3681946   8.7568521
  25.3823452  64.4297409   8.6058559  24.8766632  65.4251022   9.6278830
  69.4874420  69.0023193  69.9528122  70.1784058  68.8524857  70.5980606
  68.9262619  68.2297134  70.0190353  54.7160950  62.7814598  33.9076614
  54.8675995  62.8687820  32.9665718  55.5867386  62.8560600  34.2983589
  35.0989799  12.6813154  22.8487511  34.7842522  11.8367901  22.5263329
  36.0332031  12.5445538  23.0061016  75.3758316  35.4544487  41.4254799
  74.9570541  34.5939026  41.4075813  74.9150543  35.9590416  40.7551842
   2.6029992  37.5194130  79.2124634   2.2904134  37.4923477  80.1167831
   2.9049788  36.6282730  79.0366592  78.9851151  57.8705711  48.0477180
  78.6270065  58.3958206  47.3321075  78.3440399  57.9580841  48.7531281
  84.5852509  61.3876114  36.9551468  84.9752502  62.2099953  36.6588097
  85.3283081  60.8653564  37.2573738  55.1844711  53.3249893  74.8231430
  55.7347908  52.7828903  75.3883896  54.3484917  52.8602600  74.7857513
  48.7062988  63.9642181  62.5576172  48.9691048  63.5248718  61.7488251
  49.3443108  63.6705132  63.2079315  30.9652271  17.5089569  75.4197540
  30.9670086  17.6324539  76.3689499  31.2609138  18.3488083  75.0683975
  22.1594524  22.8257389  70.3895950  22.9040165  22.3584309  70.7683792
  22.0964661  23.6315804  70.9023132  12.5676794  56.4071274  25.5233498
  13.0466490  56.0909271  26.2894039  12.0302839  55.6626549  25.2527866
  53.7266998  37.4366798   6.6952515  53.0286942  37.9347115   7.1206675
  53.9120865  36.7189178   7.3007946  48.7994995  54.6570854  66.2019119
  48.9210052  54.0115814  65.5056381  48.3947220  54.1653252  66.9164429
  74.1020050  16.8372765  76.2882385  75.0292130  17.0716152  76.2481079
  73.7476959  17.1162567  75.4439240  72.0341339  65.0263138  64.1961670
  72.1933823  64.4406967  64.9363861  71.0991135  64.9329987  64.0137787
  82.3944397  66.5775986  51.5355377  82.7279434  65.7320633  51.2354202
  83.1205215  67.1851807  51.3945427   7.7096629   5.5956769  87.1855392
   7.9267969   5.8211894  88.0901031   7.3502235   4.7101474  87.2391434
  45.5327301  53.3998299  64.1795502  45.9677773  54.2051048  63.8993683
  44.6718864  53.6863556  64.4846497   4.2228980  66.9428329  82.7377167
   3.9254639  66.4621811  81.9652328   4.0102997  67.8565979  82.5478058
  13.7460413  18.3963108  83.6960754  12.8001060  18.3268242  83.8249588
  13.9698849  17.6407166  83.1527557  12.5511665  63.3966026   1.5605063
  11.7101412  63.0175819   1.3050579  12.3545675  63.9093056   2.3445449
  50.6832886  35.1317673  21.6460571  50.2888908  35.2109909  22.5146217
  50.1314430  34.4967842  21.1894417  85.2471161  67.1886520  62.5191078
  85.5300674  66.4777145  63.0942001  84.6760254  66.7653198  61.8781052
  51.8443069  16.7098770  63.1645241  51.2190056  16.0506840  63.4656792
  51.3068428  17.3623581  62.7154922  64.8115311  30.9864540  71.1109543
  64.8775864  30.0800610  70.8104248  64.2382889  31.4095631  70.4717407
  36.7289085  48.1519432  23.8108635  36.0685349  48.8438187  23.8488789
  37.5611801  48.6081276  23.9351788  83.5708160  22.8552208  18.7841949
  84.3826828  23.3338718  18.9515076  82.9470062  23.2136211  19.4155827
  12.6620264  47.6355515  74.9836121  12.1052942  48.1350937  75.5808868
  13.5351200  47.6841621  75.3729401  62.7899475  26.7264538  12.5643864
  63.7297897  26.8660698  12.6803017  62.5077477  26.3085499  13.3779907
  67.2633514  13.7448654  56.3416481  67.5473404  14.1806736  57.1451759
  67.5254745  12.8317585  56.4589272  12.9878674  36.2593079  86.9260941
  13.2381191  35.8701019  86.0881577  12.4403448  35.5950699  87.3447037
  40.1794815  55.0353165  47.6566391  40.0489655  55.0951767  48.6030083
  40.5228767  54.1527252  47.5175705  43.4913635  46.7709732  38.1449089
  43.9416962  46.7657623  38.9895439  43.2074280  45.8655281  38.0192795
  74.1504822  25.8607388  64.9212341  73.9363480  26.4596329  65.6365662
  74.8010864  26.3320904  64.4008713  60.7534065  60.7118034  53.9378471
  60.3812218  60.7842979  53.0589523  60.8528786  59.7702942  54.0789146
  55.3778610  71.6269684  70.0257645  56.0401001  71.0049133  69.7245712
  54.7832489  71.1027298  70.5622711  13.2444830  22.0921383  20.9916096
  12.9354038  22.7257156  20.3440876  12.5589828  21.4246597  21.0197716
  80.3457947  13.4881687  30.9347801  80.4090652  13.4461374  31.8889618
  81.2460175  13.3748922  30.6298275   7.9915948   8.1367273   7.7962370
   8.9376431   8.2467346   7.7007174   7.8949685   7.4930711   8.4980927
  79.4764099  44.0938950   3.3655138  78.6573181  43.8688240   2.9243095
  80.0380783  44.4338684   2.6689692  71.1631546  69.5962830   7.9086056
  70.7296524  69.1217117   7.1993160  70.4496918  70.0259705   8.3803902
  62.1805840  56.9470329  43.5448227  63.0963860  56.6782761  43.6176605
  62.2147408  57.7981148  43.1081047  58.7017632  50.5001793  12.5299950
  58.0701561  50.8966103  11.9298754  58.3938560  49.6007957  12.6419640
   0.4734010  27.6203060  13.0948887   0.9888486  27.6157665  13.9014397
   0.8965505  28.2787991  12.5439224  51.8953629  21.6877098   4.3207817
  51.3262024  21.8711109   5.0682135  51.6522179  20.8036804   4.0458183
  61.8896332   8.0821133  42.0243263  61.1841354   7.4383388  41.9606209
  62.6229401   7.6807575  41.5580559  39.2570076  63.0139580  39.6348801
  39.8875961  62.3014183  39.7391663  39.5777473  63.5092545  38.8811989
  10.3603001  62.6425095  16.6118755  10.9449167  63.1160202  17.2036877
   9.8327122  62.0895004  17.1881256  35.0626831  50.8510475  72.4284515
  35.7494087  50.7747421  73.0908890  34.7758446  51.7625237  72.4847183
  71.9615860  35.6576500  59.2052116  71.1296844  35.2648888  59.4696159
  72.6235886  35.0215797  59.4761429  61.7070656  27.5467968  83.6975327
  61.0734138  26.8342247  83.6141129  61.2629280  28.3073635  83.3226852
   4.2190681  16.1280403  69.0222168   3.6624792  15.7495661  69.7027969
   4.4260502  17.0058880  69.3427963  30.0876884  36.7068520   6.1893330
  29.6189117  36.1624031   6.8218327  30.9032154  36.2337456   6.0240474
   2.9691675  35.4998169  42.2182503   2.0221434  35.3609009  42.2271576
   3.2912822  34.9105110  41.5362015  18.6900330  16.6541328  61.4318886
  19.5926533  16.5613155  61.1271019  18.3120937  15.7805262  61.3308716
  68.6437073  12.0240927  36.1774139  67.9033585  12.3211641  36.7064323
  68.3535767  12.1404152  35.2726898  52.0153847  54.9412155  14.3080502
  52.6964607  54.3663559  13.9588985  52.2966919  55.1295090  15.2033958
  68.5501480  48.8760223   4.2051058  69.4559555  48.5837021   4.3065376
  68.3257294  49.2591476   5.0530939  51.8846893  20.4106388  71.1638565
  51.7206459  21.3407135  71.0080185  51.6062355  20.2665615  72.0682526
  28.0211105  58.9586906  69.4557114  27.4095192  58.9974556  70.1910248
  28.5371113  58.1683273  69.6147690  52.9680939  69.4563370  32.5717201
  52.1788712  69.7609253  32.1238480  53.4476891  70.2572784  32.7831726
  76.5742798  59.2916985  70.5896988  76.2397537  58.4507027  70.9012375
  77.5018158  59.1310692  70.4161682  58.8851471  44.9539528  61.0203819
  58.4621201  45.8123398  61.0415344  59.4630928  44.9904709  60.2582283
  42.5505753  39.9195137  13.8600149  42.8092041  39.5598183  13.0115089
  43.3606644  40.2733765  14.2271204  55.9479752  45.6177330  43.0354462
  56.2071457  45.5328140  43.9529724  56.4345970  46.3786583  42.7185516
  58.6667747  51.0317230  44.5488129  58.3347511  51.7503433  45.0869370
  57.8810883  50.6125374  44.1977959   8.5153170  54.5714035  35.5668449
   8.5813904  54.4591446  36.5151405   9.1633797  53.9651108  35.2081566
  67.1239243  54.8510017  52.6914330  67.1883469  55.7427979  53.0331650
  67.0718536  54.2987556  53.4715233  80.4737625  28.8265610  13.1353226
  80.8950195  28.0492172  12.7685614  80.6695709  28.7859440  14.0714006
  34.2221489  13.6341438  83.6196976  34.5022697  14.3333120  83.0289917
  33.9148140  14.0909214  84.4027176  37.4576340  57.6716957  87.4708481
  36.7909126  56.9925041  87.5728989  37.0157700  58.3705292  86.9885406
   3.3781638  36.5056839  68.4491043   3.5657165  35.6351967  68.8002548
   2.9882548  36.3388824  67.5909805  55.9401016  42.1106453  67.4733810
  55.2684555  42.2610970  66.8081818  55.8940125  41.1714134  67.6521378
  13.8268328  30.3691673  12.1779184  14.1951752  29.8342819  12.8810921
  12.9370461  30.0352173  12.0639505   2.3271568  33.5240097  48.6309052
   3.1303368  33.1094589  48.9459953   2.3614454  34.4126358  48.9850273
  77.2906647  39.7305450  15.2924900  77.4787979  39.2191124  14.5055513
  76.5945587  39.2437668  15.7337589  66.1293945  37.5763283  39.2700882
  66.4114227  38.1085739  40.0139999  65.7494736  38.2048721  38.6562347
  62.9223328  23.2468643  10.9715815  63.2548218  23.4360485  10.0941458
  63.6838264  22.9206047  11.4510746  33.3167915  49.0133972  75.6298752
  33.0535049  49.9083481  75.8442917  34.2414970  48.9709015  75.8734741
  15.3922768  52.4561310  53.9409142  15.3316650  52.0127258  53.0947762
  14.8286180  51.9438858  54.5206757  68.7710800   1.4383370  27.8947334
  69.0196533   2.3067822  27.5781155  69.0980530   0.8368594  27.2257442
  58.6793785  42.8790703  67.5151749  58.8603516  43.3041801  68.3534851
  57.7860184  42.5467834  67.6030579  84.2706146  68.4928360  85.9356537
  83.7162094  68.2747879  86.6848679  83.6660538  68.8542328  85.2874756
  59.6001015  25.9031124  19.2788162  59.2500381  25.0958462  18.9019756
  58.8677139  26.2754269  19.7699623  76.3911438   2.0355616  32.0887032
  76.9881287   2.7828033  32.1269989  76.6708679   1.4684426  32.8072853
  78.3987885  46.9937172  13.0979996  77.8050613  46.7605057  12.3843212
  77.8977203  47.6069374  13.6357031   1.8230313  33.8067703  17.0892868
   2.3792198  34.5495605  16.8544445   0.9300420  34.1246529  16.9560490
  40.0704689  53.9054413  44.6910629  39.6221008  54.1689453  43.8874664
  39.7243385  53.0340614  44.8837471  41.0319710  44.8321304  85.2939911
  41.9643745  44.9373016  85.1047974  40.7486382  44.1239090  84.7157440
  10.4883156  27.2505836  79.6296616   9.6617136  27.7006073  79.8041306
  10.4751635  27.0822639  78.6874619  28.3957996  11.9187860  71.2728043
  28.1205215  12.1921129  70.3977356  28.5302582  10.9740801  71.1974182
  22.6325932  51.7650223  45.3080330  22.9906712  52.6490059  45.3891640
  22.3045788  51.7209740  44.4098701  24.2018108  26.6972237   5.9309669
  24.5851536  26.5148335   6.7888799  24.3318882  25.8896027   5.4339161
  27.6815109  70.3829651  44.5000572  27.2363377  71.0245819  43.9465446
  28.6047630  70.6326065  44.4610825  66.0693436  13.6418953  30.1271343
  66.5262909  13.1006269  29.4833508  66.3387451  13.2858410  30.9738235
  39.9774666  56.2442322  14.5281172  40.0707893  56.3421135  13.5805197
  39.1884956  55.7133942  14.6375208  33.4932594   2.7084980  12.4642992
  34.2442589   2.9067519  11.9048977  33.4964371   3.4019141  13.1241446
  39.8668861   2.0882373  21.4693413  39.9741783   1.1724123  21.7262173
  39.3736229   2.0509331  20.6498699  20.0643635  17.3609219  67.2698441
  20.5034122  16.9770393  68.0288544  20.3871956  18.2614212  67.2364883
  84.8534241  33.4702263  88.5592651  84.5559235  34.2407684  89.0429916
  85.6620941  33.7529755  88.1322556  22.3490543   4.9401317  33.7542763
  21.5801277   4.8870525  34.3218727  23.0010719   5.4065852  34.2772713
  15.4749212   0.4485688  84.6574326  14.7035446  -0.0435246  84.9385986
  15.6396313   0.1460011  83.7643738  82.4919662  65.8044510  62.9978218
  82.4366150  65.4896317  62.0955696  83.0309982  65.1528320  63.4462204
  35.8007278   2.9947922  20.9988155  35.8438759   2.0929694  20.6808758
  35.6273727   3.5168812  20.2154865   4.2294645  71.2991104   7.4818168
   4.0248165  72.0079956   6.8720345   3.3812881  70.9034042   7.6824231
  72.5309525  37.8723526  66.6992722  73.2056656  37.2007713  66.5994339
  71.7995300  37.4169083  67.1162033  50.9731750  19.9214172  73.5821915
  50.7754288  19.0233421  73.8478699  50.3907967  20.4626293  74.1152496
  31.5904045  30.9649963  24.4993248  31.6331539  30.2780743  25.1645641
  32.3561821  30.8106880  23.9461479   4.3250618  18.0755234  16.4586105
   4.7713323  17.5380783  15.8042202   3.6035697  17.5273476  16.7671318
  58.8401604  66.9874191  62.5049210  58.5329018  67.5605698  61.8025475
  58.8603554  67.5483856  63.2802544   8.4905443  11.8106985  85.6580429
   7.5801225  11.5151844  85.6520996   8.5530214  12.3785772  86.4260559
  28.4902344  63.1773338  86.8545761  28.4731388  62.8611412  87.7578888
  29.3030796  62.8244629  86.4926453  46.7068367   8.7821522  64.5012589
  46.8535538   8.0363779  63.9194260  46.0623245   9.3208399  64.0422897
  63.1459084  69.1587601  81.5797119  63.2080383  68.8685074  80.6697006
  62.2261734  69.3988571  81.6922684  37.3567085  37.9199524  58.5658340
  36.8872833  37.5552330  59.3160667  37.0864029  37.3754883  57.8264275
  57.3141212  47.5970573  18.5853767  57.5321159  46.6674957  18.5173531
  57.1031189  47.7265434  19.5100079  42.6989861  66.3761444   4.2578325
  43.3864937  66.0773544   4.8530550  42.8344460  65.8652878   3.4597664
  29.3410339  29.4212303  75.5503082  30.1107674  29.1236839  75.0653229
  29.3640728  30.3751335  75.4743500  86.1513748  19.6915760  13.0484362
  85.6974792  19.0781116  13.6262541  86.2176666  20.4979649  13.5598774
  85.8830109   0.7630287  57.2274857  86.6397018   1.1398953  56.7784500
  85.1605759   1.3547298  57.0172424  50.8092766  13.5989094  58.9177742
  51.6728210  13.5423431  59.3268318  50.7363930  14.5111990  58.6373329
  59.7941399  66.4149094  20.4595795  59.1471214  65.7199402  20.5804863
  60.6273918  65.9529648  20.3672333  21.0699215   8.7170191  58.1467018
  21.7423096   9.2548971  58.5648117  21.5545216   7.9925451  57.7510605
  70.0502472  57.9268379  80.6083221  70.6263275  57.1756210  80.4667587
  69.2403412  57.6967506  80.1529770  63.8086510  53.9767075  38.8937492
  63.5568810  53.7170677  39.7799950  64.7598495  54.0757408  38.9342957
  10.7650776  68.2982330  44.7219620  10.4837666  69.2048798  44.5991173
  10.0241814  67.7742233  44.4174614   5.6840353  18.2405930  70.3613968
   6.5640311  18.3616714  70.0047760   5.3270221  19.1265068  70.4240799
  46.4542847  54.9640198  36.6402359  46.6719055  54.1288681  37.0542336
  45.8513680  55.3851433  37.2529182   7.5413737   4.7435570  25.2334805
   8.3279161   4.9707956  25.7294102   7.7701678   3.9321747  24.7801113
  59.2975616  31.7735119  34.3503075  60.0908432  32.2136497  34.6556168
  58.9985771  31.2674580  35.1057854  68.3138199  42.8210945  21.3961029
  68.6276932  42.9490242  20.5009193  68.5124359  43.6457214  21.8396950
  77.9347763  16.7078018  26.8949337  77.1043701  16.2677002  27.0764885
  77.6931229  17.4641914  26.3604145  12.4822264  32.7725296   9.2152777
  11.5514326  32.9956741   9.2074976  12.5807018  32.1313438   8.5114202
  44.3902779  32.8801537  78.4808884  45.2601738  32.5299911  78.6729889
  44.5007973  33.8301964  78.5187378  30.4165516   3.9897196  17.2030373
  30.7611141   3.1179621  17.3968067  29.6286469   3.8260760  16.6847153
  31.2851372  40.6987000  19.6027145  31.8309441  41.2947617  20.1155834
  31.8245525  39.9158211  19.4915142   4.5647545  65.4026794  16.2529507
   4.3340354  66.3270645  16.3452568   4.9825668  65.3447495  15.3937025
  14.2172375  29.1939240  82.8599091  14.3020687  30.1469326  82.8884048
  13.7128515  29.0220318  82.0647507  79.7247238  18.3059101  67.3135605
  79.0441360  18.4256935  67.9758835  79.8099518  17.3564758  67.2266998
   4.8084416  50.8629074  59.7820358   5.0494661  49.9512978  59.9466591
   5.6255932  51.3497772  59.8890686  80.4124832  21.4631805  15.9554434
  80.8652115  21.1846771  16.7514992  80.3124466  22.4098625  16.0555439
   9.6662245  23.1895180  64.9952240   9.6396542  24.1312160  64.8257217
   9.5454855  23.1130123  65.9416885   4.2938957  60.6591110  31.9961052
   3.6781151  61.3834763  32.1071815   4.1362834  60.3451614  31.1056957
  34.0456123  20.1389809  13.4685383  34.0877304  19.2551212  13.8335714
  33.1952095  20.1770668  13.0308208  30.5024967  16.3394756  71.3499985
  30.8508873  15.8549633  70.6015930  29.6111355  16.0072556  71.4564667
   1.2579225  66.9086685   7.3132625   0.3931772  66.5054321   7.2367749
   1.2306746  67.3774338   8.1473751  60.0433960  23.1439285  40.5425415
  59.3716011  23.5665722  41.0776024  59.5647049  22.7887859  39.7935677
  30.9853611   4.7299800  28.4177761  31.0799885   5.4929628  28.9879799
  30.0594749   4.4959435  28.4825230  71.3079224  13.3483477  -0.0536025
  71.8062057  12.5315390  -0.0813668  70.6879959  13.2264071   0.6654630
   9.6658945  54.9692574  71.3414612   9.7961111  55.8516655  70.9941330
   9.9724331  55.0205574  72.2467957  53.3498840  33.0581131   2.7346268
  52.4790154  32.6618614   2.7629299  53.1842613  34.0008736   2.7371645
  13.2933035   4.2446499  10.9384642  13.6687193   4.5167699  10.1010599
  14.0454197   4.1732469  11.5262175  64.4613724  12.0350046  78.9112854
  63.8348160  11.4910841  78.4339905  64.6309052  11.5516472  79.7198944
   3.1961758  14.8490820  24.4679108   2.8052182  14.9785099  25.3319893
   3.4228437  15.7310686  24.1730328   1.5716686  13.0141563  11.2068405
   0.9444614  12.6209126  10.6000433   1.6857866  12.3564968  11.8929110
  85.1774597  40.6887054  44.6592522  85.2741089  41.0570450  43.7810631
  86.0698929  40.4681892  44.9260368  67.0493622  34.9099884   5.3564754
  67.2504883  33.9741745   5.3621092  66.7216721  35.0792313   4.4731798
   6.0584974  49.7046356  76.0897446   6.9405055  49.4406929  76.3517151
   5.8525219  50.4477577  76.6568222  66.5709457   9.2421036  29.0666790
  66.9118271  10.0992432  28.8110504  67.1466141   8.6151104  28.6288223
  81.0910645  45.1594887  35.1717987  81.3925781  45.6916237  34.4354858
  81.6375046  44.3742599  35.1394386  16.9795380  67.5712280  21.0906029
  16.1901150  67.0457764  20.9604378  17.1593418  67.5050888  22.0284348
  29.4069805  40.7049675  83.7405167  28.7716293  40.0437546  83.4660034
  30.2567883  40.3333054  83.5040359  40.2780037  59.7499695  61.9036942
  40.2291031  60.7055855  61.9289474  40.8103943  59.5577011  61.1317978
  39.6408501  38.2297707  60.3811035  39.0546150  38.8528290  59.9517326
  40.5044594  38.6394501  60.3304214  61.0771408  54.5840569  31.3405342
  60.9115524  54.9584389  32.2057800  61.6182365  55.2370186  30.8965912
  56.8441734  36.5319366  18.4741058  55.9589691  36.5901642  18.8336258
  57.0135841  35.5923347  18.4057236  11.8156223  63.8322792  48.7944031
  11.4289913  63.3193855  49.5041161  11.5260029  63.3919411  47.9953690
  52.2444496   8.0992107  17.7711391  53.2006073   8.0547409  17.7679558
  52.0226898   8.4240274  18.6438065  69.1654434  62.6962776  79.0702438
  70.0898819  62.4678268  79.1674576  68.9123077  63.0400467  79.9269714
  30.7369785  69.5008011  73.6207581  30.0372372  70.1515427  73.5648117
  30.3127785  68.6729431  73.3950653  77.4200974  22.7937965  65.8037109
  77.7709656  22.1812630  65.1572342  77.9156723  23.6005287  65.6629257
  39.3282051  69.2158279  31.2784328  40.0240860  69.1081772  30.6300564
  38.5385895  68.9039001  30.8363514  83.6016235  38.6989479  31.5838585
  83.1114426  37.8913651  31.4296761  84.5098419  38.4690399  31.3876228
   0.6515247  13.3393536  19.0017529   1.4799904  13.4444580  19.4695454
   0.3013553  14.2274895  18.9322681  42.4225235  46.5877686  48.8552246
  41.8682137  46.0284271  48.3110657  43.0915642  46.9179916  48.2555771
   5.7458282  50.2951546  42.5269089   4.8645782  50.6571159  42.4340973
   6.0179410  50.0946465  41.6313705  85.9267120  11.7498159   0.2705451
  86.0900574  12.1614017   1.1191599  86.2984467  12.3595171  -0.3668781
  56.8804970  29.8496532  17.4790859  57.2197647  29.3728504  18.2365723
  57.6478539  29.9989872  16.9267349  24.9012833  46.1880150  16.1076946
  24.8569679  45.3161469  16.5002670  25.5088863  46.6719398  16.6670380
  73.0557404  55.0016403  45.8697395  72.5779572  55.7378464  46.2517738
  73.0950394  55.2011147  44.9343796  52.4686852  53.6595383  20.6006012
  53.2298050  53.1415749  20.3385963  52.4981613  54.4314194  20.0353031
  10.6900301  67.7879868  56.6442375   9.7611265  67.6260529  56.8089981
  10.8851128  68.5854492  57.1364136   4.0328541  14.5794106   6.8326626
   3.9236274  14.2461624   5.9420185   4.4638557  13.8664408   7.3039837
  47.2678146  60.9014816   9.6769571  48.0067940  61.4999313   9.5674210
  46.7080345  61.0709305   8.9192181  74.7018890  64.9738159  28.8608475
  73.9379272  65.4271698  29.2173080  74.3404083  64.2031021  28.4231701
  57.5122375  49.5729408   0.0663702  57.9128799  50.3282890   0.4966756
  56.6913300  49.4355392   0.5390923  57.7210579  38.0536728  26.3586445
  58.1460533  38.7423286  25.8474121  56.9670944  37.7932701  25.8295307
  52.6843300  69.5475693  22.9426746  53.3175926  69.6806793  22.2373447
  53.1169472  69.8965073  23.7219791  37.5034790  42.1784782  46.6395454
  37.9192924  41.4750786  46.1409836  37.8168411  42.0546303  47.5354767
  24.7135506  61.2140923  29.5115604  24.0875015  61.7297935  29.0032825
  25.5653572  61.4289627  29.1314468  51.1033974  10.7247009  40.7173386
  51.3770180   9.8089437  40.7697983  51.9013672  11.2002506  40.4864082
  56.6763687  10.1724424   5.6569319  56.7586136  10.3021717   4.7121367
  55.8067017  10.5106325   5.8703208  59.2160912  56.9181252  24.7284336
  59.9158936  56.6585732  25.3277187  59.2357597  57.8750801  24.7373676
  60.0338631  36.2281036  45.3306656  60.2964134  35.3614960  45.6409721
  59.5251999  36.0549049  44.5385208  48.8460159  24.8021450  65.6592636
  48.3774529  24.6400433  64.8404846  49.4239006  25.5394382  65.4625931
  84.3143311  49.9559135  57.2672958  84.6885452  49.4375267  56.5549240
  83.8886490  50.6928787  56.8292236  65.6216125  51.3313751  31.6806240
  66.3434525  50.7115021  31.5760384  65.9729385  52.1637039  31.3643494
  64.4062805  24.1132011  19.8556061  63.8675690  23.5709133  19.2794571
  65.1648560  23.5660839  20.0592041  21.8877869  45.5922928  13.1416597
  21.4216232  44.7884293  12.9120398  22.8127022  45.3736420  13.0278292
  57.7349510  22.5803223  12.7982931  58.5765533  22.7169647  12.3632402
  57.7080116  21.6405220  12.9779673  35.7179947  58.4118958  43.6729698
  35.7159271  58.1059418  42.7659874  34.8263931  58.2512589  43.9819641
  67.0837097  25.3565006  73.9177704  66.2936554  25.0152950  73.4987030
  66.7591782  25.8796730  74.6507111  13.0592756  66.2458191  22.9868698
  12.8897200  65.9718628  23.8882217  12.9785614  67.1993866  23.0071564
  61.2552643  68.5276260  75.7759705  61.0573654  67.5960922  75.8724518
  62.1783829  68.5515213  75.5239487  33.1306572  68.7992401  75.0011215
  33.3018417  69.4992523  75.6311340  32.2684097  69.0067368  74.6409607
  61.8029327  57.1113129  78.7803726  62.7374535  57.0746727  78.5765228
  61.6781960  57.9728889  79.1783142  33.7084465  65.4811172  56.1309433
  32.7512817  65.4869080  56.1252022  33.9418678  64.5566635  56.2153931
  54.8526268   5.7793808  84.5090256  54.8381920   6.7339501  84.4395981
  55.1053429   5.6090293  85.4164124  24.2990723  69.1822662  45.4331779
  24.8853436  68.7362747  44.8219452  23.6943512  69.6689606  44.8731117
  18.8946495  63.8561783  56.1391144  19.2029991  63.8358307  55.2331696
  19.5777321  64.3295441  56.6140404  24.8292503  32.6661987  72.0703964
  25.0478802  31.7866459  71.7624664  24.6546993  32.5562363  73.0050964
  75.5862961  66.4542313  10.8637934  75.8677826  66.2422867   9.9738064
  74.6498489  66.2561646  10.8723831  65.0339737   0.6411497  47.0762634
  65.4644394   0.7359964  47.9259300  65.0593719   1.5190246  46.6955757
   2.6670310  45.8933258  83.5260849   2.2235162  45.1858864  83.9941177
   2.7830737  45.5567970  82.6375351  58.4949455  34.4927444  57.1224251
  59.3441353  34.1300850  57.3745880  58.2943687  34.0734291  56.2856598
  30.5325146  50.3069382  69.7470322  30.0940304  49.4661942  69.8778381
  31.0061893  50.4597931  70.5646515   2.9551172  37.7839317  59.9402924
   2.3356330  37.8147240  59.2112389   3.2405930  36.8709030  59.9736214
  57.9779778  10.2167425  17.6846008  57.1156769  10.1149540  18.0874748
  57.7915344  10.4261551  16.7693863  11.9527159  40.8002739  13.8014193
  11.0537472  40.5615311  14.0274439  11.8614588  41.5610695  13.2277536
  74.6086349  56.4237671  15.5676937  74.7137146  56.7573166  16.4587231
  73.6770477  56.2149887  15.4984131  34.1878624  14.8615303  18.0149155
  34.5637398  14.5395374  18.8342266  34.8967819  14.7783051  17.3771534
  36.4243851   8.1975021  87.8016739  36.7204056   8.9547806  88.3067780
  35.5881042   7.9560552  88.1998825  76.6857758   3.9312420  67.5127792
  76.3178787   3.9372454  66.6291199  77.1581268   4.7609625  67.5811996
   1.9263870   7.8873787  63.4756165   1.9769800   7.2588015  62.7555008
   1.4932728   7.4080615  64.1819458  33.1126213  13.3297024   7.3744049
  33.4952927  14.2060890   7.3326588  33.4648552  12.8777800   6.6076393
  35.3195763  57.8927231  31.4195328  35.1906776  58.8198891  31.6194763
  36.2676849  57.7966614  31.3295593  51.2156601  50.0386887  55.7203903
  51.5906372  49.5069847  55.0183144  50.7463303  49.4119110  56.2709465
  62.3332939  42.8232040  81.7625504  61.4266243  43.0947990  81.6196365
  62.8362961  43.3177986  81.1155624  37.5754509  51.0251808  74.5834274
  38.2055550  51.5549316  75.0718536  37.8541412  50.1219406  74.7341690
   9.8891220  44.5484734  63.3047943   9.4035063  45.3705368  63.3727341
  10.3975048  44.6365356  62.4985542  34.4630585  27.7813454  23.6211357
  34.1588898  28.6799889  23.4940319  34.8496666  27.5381069  22.7799473
  24.4008770  65.7357178  18.0808392  23.5771351  65.2502365  18.0362816
  24.9831142  65.2755280  17.4763126  19.9103966  60.4919548  44.4977570
  20.2539253  61.3153229  44.8445740  19.8848629  59.9056473  45.2539444
  69.8155518  43.9930267  48.9086876  69.1937256  43.7590103  49.5977440
  69.5432434  44.8663101  48.6268158  26.3242931  33.0575943  63.9329300
  27.0332375  32.6472054  64.4281158  26.4912815  32.8080254  63.0240517
  59.9658623   6.0833354  50.8840714  59.3453217   5.6752415  50.2802353
  59.6234436   6.9670415  51.0183983  64.0354767  66.2655640   2.1834660
  63.7798691  67.0150604   2.7211902  63.2847290  66.1159210   1.6088197
  35.9633560  19.6348133  86.4105835  35.0918922  19.4510155  86.7612991
  35.9101830  19.3777962  85.4900665  56.7209282  51.4544792  83.7696838
  56.8582306  50.9294052  82.9812241  56.0814667  52.1169128  83.5079575
   6.4004951  30.7664909  45.9121056   5.9770217  31.4177113  46.4714012
   6.9857039  31.2762089  45.3517914  83.0216675   3.7751160  51.2937126
  82.6774597   4.5205293  51.7857590  82.4771957   3.7351284  50.5074692
  57.4090347   6.8329716  10.6784487  57.3136215   6.1357427  11.3272943
  57.7671700   6.3945088   9.9066191  83.8123932  17.1361446  11.7628202
  84.2807770  16.5683575  11.1508846  84.0592117  18.0236912  11.5028753
  80.0113144  16.6950779  63.3880577  80.6391373  17.3909721  63.5824852
  79.6216660  16.9507599  62.5519791  13.7553091  35.1152420   1.5959502
  13.8431044  35.5672989   2.4350967  13.8371029  34.1868744   1.8143075
  42.9703941  47.3111000  57.8132248  42.1704521  46.9809990  58.2223167
  43.4527245  47.7242889  58.5293694  80.6097031  65.7197342  72.5693817
  80.4588242  65.2189102  73.3710327  80.3762054  65.1173401  71.8631058
  72.1566849  18.5058002  35.9108543  72.0958862  19.3658924  35.4951897
  71.7175217  18.6157837  36.7542191  19.7982845  28.0422649  60.2681580
  19.5371151  28.0390816  61.1890335  19.4484196  28.8635826  59.9228134
  53.8784370  45.1497536  29.3764000  53.4669685  45.8190460  29.9231834
  54.7999916  45.1626091  29.6348667  37.6681709  60.4096336  69.7798157
  38.1028290  59.6356926  70.1380310  37.8310966  61.0965462  70.4262238
  36.0084915  68.1873093  18.6968670  35.7007523  68.8042145  19.3609085
  35.2099609  67.7846298  18.3556442  80.3027496  52.3004303  86.7082214
  80.5933990  52.1934471  85.8025131  80.9270172  51.7882118  87.2221909
  50.0708580  11.4012508  13.7594957  49.2225952  11.8428402  13.7185011
  50.1829796  11.1833553  14.6847963  57.3211174   2.5638165  10.3586016
  58.0375710   2.0782297   9.9497833  57.5869255   2.6580296  11.2733154
  38.1531143   3.3493271  43.2634315  38.7640915   4.0625010  43.0781708
  37.2868462   3.7449217  43.1669044  71.4020233  40.7051048  20.3138199
  70.5011902  40.3874702  20.2518044  71.9381714  39.9128609  20.2803059
  85.9733200  40.3927727  19.5522480  86.7272034  40.9466782  19.7549248
  85.4284058  40.9306946  18.9778423  86.9344101  32.6988068  58.2208519
  86.4959183  31.9104271  57.9008255  86.2336426  33.2206841  58.6117592
  82.1659851  60.4966888  71.3594971  82.1481400  60.6229019  70.4108276
  83.0275497  60.1181679  71.5345993  15.8497028  49.9685440  75.8641510
  15.5309105  49.7271729  74.9944763  15.5275230  49.2739868  76.4386292
  62.5027046  66.9755096  40.0520668  62.2112045  67.8818970  39.9535255
  61.9424820  66.4776611  39.4566383  57.0501251  22.1568909  17.4917374
  56.2478256  22.4559822  17.9196339  57.3166847  21.3868675  17.9939728
  37.1589737  65.9206543  36.4965973  36.9054871  65.0295029  36.2561264
  37.1497231  65.9222717  37.4537506  71.9204178  17.6132393  13.0367355
  72.7987823  17.4574947  13.3838129  71.4998245  16.7535839  13.0548439
  70.3720779  26.5354385  76.1181259  70.3478470  26.0630322  76.9502716
  70.4239502  25.8481197  75.4539413  20.0725899  16.5224667  80.8600845
  20.2981052  15.5972023  80.7638474  19.7547226  16.7826939  79.9955139
  40.0971985  34.0294762   8.3446121  40.3620186  33.1398544   8.1107788
  40.7897797  34.3400574   8.9277935  73.2172318  11.1221628  56.3848839
  74.0629501  10.7064972  56.5528755  72.9823456  10.8387117  55.5013046
  61.4534950  35.7026291  10.8058710  61.5266342  35.0980301  11.5443430
  60.5769997  35.5464134  10.4543295  44.5312157  61.0799522  58.1101074
  44.9145317  61.2969360  58.9599419  43.6146927  61.3454018  58.1859589
  71.2530289  31.3749504  53.4671173  70.8960953  32.0980072  52.9513474
  70.6631012  31.3018265  54.2173615  20.5731602  12.3496542  21.1497784
  20.8482170  13.1227322  20.6569023  20.7978477  12.5521488  22.0579319
  23.0133972  38.0489311  23.3601437  23.4437122  38.2499428  22.5290871
  22.0827408  38.1932564  23.1890316  81.6418991  20.9548454  26.1275120
  80.8787308  21.0091858  26.7027092  81.6069641  20.0691223  25.7662563
  81.5040894   9.5644369  41.5160904  81.2724686   8.6558199  41.3237419
  81.0111542  10.0778990  40.8760910  74.9858398  60.1140099  25.9072285
  75.2012787  59.3172760  26.3920269  75.5072174  60.0555801  25.1066113
  20.5772362  53.0302887  62.1798325  21.2011185  52.3399277  61.9553223
  21.1226940  53.7590523  62.4758224  49.5507927  22.5770206  72.5815735
  49.6399918  22.5155525  71.6305237  50.2809296  23.1322212  72.8552246
  71.7342377  71.1508179  53.7430611  71.1477051  71.2490311  54.4930992
  72.3949127  71.8326721  53.8647575  64.3077774   7.5924478   6.9749069
  63.8120461   6.9930634   6.4170356  64.6722031   7.0342240   7.6617947
  64.0152130  65.4267883  58.0645752  64.0953903  65.9993286  58.8274689
  63.3842087  65.8702011  57.4976082  31.0687866  68.9093781  81.6708450
  31.2831364  67.9821548  81.7735214  31.8071995  69.3712997  82.0678558
  86.3388901   7.2162852  29.9525414  85.8757629   7.0413070  29.1333160
  86.1421585   6.4598899  30.5051670  30.4806938  70.3000488  79.2350082
  31.2961979  70.6936646  78.9247589  30.7366161  69.7964325  80.0077362
  65.2854996  60.0505943  27.0333672  66.2340317  59.9586182  26.9436073
  65.1694641  60.8583946  27.5335922  79.9389572  26.4491386  54.2711411
  79.1076050  26.5112095  53.8007965  79.7910690  26.9328079  55.0838051
  83.7517853  58.0023842   2.5664208  82.8876648  58.2437477   2.2328336
  84.3664093  58.4059944   1.9535869  76.8439331  54.1865425  32.4660797
  76.2698135  54.3096237  31.7101231  77.7274628  54.3062782  32.1178360
  70.1477814  12.2064571  21.0433693  69.2882996  11.8975859  20.7567997
  70.0904083  13.1602955  20.9873867  65.2509232  22.5596542  12.4567442
  66.0562210  22.0778427  12.2681084  65.4962921  23.4805527  12.3674545
  64.5251617   7.6759911   2.1564341  64.0790634   7.9289627   2.9646614
  63.9213867   7.9322991   1.4592999  65.1233444  24.5867386  39.0639877
  65.7259216  24.4315643  38.3366280  65.0110550  23.7270164  39.4695740
  33.0020370   9.5937099  23.7672920  33.5873947   9.5339851  24.5222912
  33.5680008   9.8707075  23.0467472  37.3001785  58.7792244  82.2716675
  36.3789482  58.9760437  82.1018982  37.2796516  58.0138359  82.8461227
   8.3214273  50.6337166  86.7497482   7.8616705  49.8024292  86.6322098
   7.6276097  51.2931480  86.7503510  65.2416916  27.0894432  75.2151642
  65.4328384  27.9133492  75.6633530  65.1230774  26.4544525  75.9215240
  53.2422791  22.6631355  57.4426270  53.7061310  22.8631821  56.6295738
  52.9726868  23.5170250  57.7808914  85.6767426  18.7311859  25.6264763
  85.2254028  19.3239250  26.2274609  85.7425919  17.9064636  26.1078606
  65.9685669  60.2581978  57.1745987  66.6735001  60.4277077  56.5496445
  65.2540436  60.8280373  56.8900375  61.4143372  24.0960503  44.0749664
  60.9292107  24.9204559  44.0398102  61.7201881  24.0365295  44.9800301
  80.3718719  21.2770042  44.1866455  80.5880585  21.6496544  45.0414124
  80.1417389  20.3668499  44.3734360  48.5088005  30.2222042  63.0643768
  49.4072227  30.4657421  63.2874298  48.4113655  29.3316059  63.4013824
  36.1352386  69.2131729  59.4076347  36.1709061  68.3105774  59.0909729
  36.9939270  69.3622513  59.8034363  44.6652145  71.0069046  25.0594444
  44.8060951  71.6539993  24.3683186  44.2517929  71.4997025  25.7682934
  73.4417725  71.6751099  60.2170868  72.6955109  71.3278656  59.7284698
  73.2738266  71.4198380  61.1242027  57.2074318  49.5416718  48.0505600
  58.0507011  49.4093323  47.6174126  56.9646111  48.6735077  48.3723717
  11.9370909  50.4268303  72.3822632  10.9885483  50.3008652  72.4073792
  12.1448593  50.4965439  71.4504929  26.2989559   9.8901062  82.1272278
  25.4259243   9.9037170  81.7349777  26.6210594  10.7857676  82.0258713
  82.8896484  22.9365082  27.6899662  82.8339233  23.7983284  27.2771778
  82.6099625  22.3257828  27.0080395  84.8166962   2.0764787  61.0560684
  84.6202469   2.8607237  61.5685120  85.2357559   1.4823170  61.6786423
  67.8417435   2.8041325  74.2387695  68.7577896   2.5383759  74.3191681
  67.5208359   2.8333468  75.1400986  32.0184860  45.4437637  34.1284485
  31.8146896  44.9528961  34.9245338  31.2224598  45.3845520  33.6001778
  77.5198898  52.9772911  45.2684555  76.7792664  52.4887161  45.6276283
  78.2870102  52.6005936  45.6995621  41.0422516  53.7689476   7.7887254
  41.7866631  53.7965317   8.3898268  40.7103767  52.8739090   7.8593941
  69.9219131  18.3094234  34.1579132  70.1666183  17.6141567  33.5472107
  70.5299683  18.2097530  34.8904228  17.2222157  65.1553421  71.3001556
  17.6112785  64.6958466  70.5560303  17.7743111  65.9280777  71.4197464
  10.3089619  28.2264042  22.7750893  10.5253925  27.3043385  22.6365795
   9.4911289  28.3552418  22.2946930  51.9691887  12.3277636  12.0776768
  51.6306114  12.1101341  12.9461441  52.4628639  13.1372499  12.2090044
  14.1073027  48.4804382  41.1539841  13.2641277  48.7531738  40.7921791
  13.8835030  48.0235214  41.9647675  15.3443365  35.5475616  74.8592148
  15.0816069  35.5939407  73.9399414  15.8458738  34.7348709  74.9242630
  45.0126953  63.2462311  18.5715733  44.4564590  62.4672356  18.5715160
  44.4057159  63.9739342  18.7066689  82.6573715  62.7349358  69.7209625
  83.4081802  63.3067055  69.5609436  81.9839859  63.3168335  70.0733490
  62.4476929  27.2190075   3.8171244  62.2420959  26.8403034   4.6718435
  62.7991409  28.0864506   4.0177746  72.3599319  11.4498787  60.3778114
  72.3304367  11.4513693  61.3345528  72.4570999  10.5271254  60.1426163
  54.3280754   7.7544794  27.9311924  53.5783844   7.6369214  27.3477802
  54.0508804   7.3625832  28.7593288  59.7761993  53.1032143  64.7191544
  59.5909882  52.1675644  64.7996750  59.3982468  53.3504257  63.8751945
  83.1136093  30.7514782  36.0469246  83.9518967  30.3109550  36.1863632
  82.6836700  30.7243233  36.9017029  40.3424110  67.1221619   5.2016683
  41.2347984  67.0348206   4.8666377  39.7913361  66.7430573   4.5169573
  41.0325317  63.4349136  86.3224106  41.6036758  62.9584007  86.9248734
  40.8376503  62.8050804  85.6284637  36.2020798  27.3134804  21.1769142
  37.0241127  27.3369408  20.6870747  35.5309868  27.5282001  20.5290241
  66.8829727  52.0176086  18.6104774  67.3577423  51.1986465  18.4685841
  66.1429672  51.7723274  19.1658688  18.5206795  30.8235607  10.9604359
  18.9531746  31.6526794  10.7561197  18.3531361  30.4241028  10.1068583
  37.4089317  62.9267311  75.7322845  37.3719978  63.8502541  75.4833450
  37.8695412  62.9230843  76.5713654  82.5989380  25.7291889  30.3271618
  83.4372101  25.7228737  29.8651104  81.9497528  25.5458241  29.6480694
  28.9715996  62.3470497  37.6394768  29.8291245  62.2717628  37.2208900
  28.8063278  61.4779320  38.0049248  75.1547089  48.8176537  12.7236128
  76.0340881  49.1578979  12.8884001  75.1371536  47.9721031  13.1719055
   1.1804696  15.1011772  52.4169807   0.6980428  14.3310947  52.1162033
   1.6475960  15.4095335  51.6404877  60.8679237  43.0679932  73.5193405
  60.5463066  43.9465446  73.3170166  60.0807228  42.5238609  73.5410385
  17.2238159   0.8943443  79.8055267  16.9704990   1.0231133  78.8914795
  16.8369389   1.6375957  80.2682724  32.1384735  69.1136322  38.5939293
  32.7862701  68.4784622  38.8991318  31.3017979  68.6535187  38.6610489
  22.5621681  52.9116211  35.7758141  22.6382790  52.2373123  36.4509087
  22.3814945  52.4256554  34.9711876   5.2191205  12.2250919   5.5924468
   4.6398687  11.5799818   5.1868215   5.7936349  11.7090187   6.1579852
  16.0643997  61.7601013  63.8434639  15.9302578  62.2488327  63.0314407
  15.2179527  61.3486404  64.0179825  63.6215897  29.5569324  84.0003815
  64.1714478  29.1233082  84.6529541  62.9004478  28.9456100  83.8504868
  81.7724762  37.5515327  78.8228073  80.8684998  37.3548508  78.5770950
  82.2300491  37.6562500  77.9886093  49.6537514  60.3353844  15.9517221
  50.4789848  60.2955437  15.4683599  49.3662987  59.4242516  16.0103607
  80.5934143  64.7530823  65.2425385  81.1404190  64.6653976  66.0231323
  81.1315231  65.2518463  64.6277847   6.9710498  27.8101044  17.6773529
   6.4657302  27.9598751  18.4763851   7.7496772  28.3572578  17.7802868
  79.2624359  64.3691864  80.1472778  79.8659439  64.6536942  80.8336182
  79.8303833  64.1022415  79.4244995  11.8281412   6.7329097  71.5056610
  11.9759531   6.1273117  72.2320480  11.9544773   6.2003889  70.7203674
  84.4634705   4.5877342  75.8923569  83.7283936   4.8452835  76.4487457
  85.1919632   5.1322737  76.1906967   4.4401479  28.2239323  19.4288788
   3.4936969  28.3365555  19.5170746   4.7599759  29.0855389  19.1613407
  68.4163742  50.0806274  53.1603355  68.3591766  50.9362640  53.5856018
  69.2767334  50.0787239  52.7407875  77.9537659  12.3788080   0.5398301
  77.3455505  11.6457548   0.4452814  77.3911133  13.1401262   0.6814238
  40.3542786  54.8387108  33.3803024  41.2946129  54.7073402  33.5017319
  40.1682320  54.4585838  32.5217438  69.2329712  30.2851353  65.2052231
  68.2927933  30.4467106  65.2838821  69.4763718  30.6882553  64.3718643
  84.9862747  48.0647163  79.0060196  84.1211014  48.4219131  78.8057327
  85.0298309  48.0645485  79.9622269  32.1680450  66.3646851  18.3188992
  31.3807602  65.8202820  18.3250751  32.3233986  66.5506363  17.3928776
  23.3310356  27.7747765  76.4670563  24.0852604  27.4328175  76.9470978
  23.4276562  28.7258701  76.5151749  22.7671413  50.1218300  23.6285534
  22.9160748  50.9840469  24.0166645  22.1075840  49.7164650  24.1914902
  81.2413101  28.4296646  15.8247938  80.7597885  27.7230892  16.2550545
  81.5080643  29.0076466  16.5396442  81.4651337  65.0557022  81.7563324
  82.1681900  64.6256561  81.2695007  81.4578857  64.6150589  82.6060410
  59.0838165  19.1904964  69.1720963  59.0904884  19.4373856  70.0968857
  59.8947563  18.6968002  69.0501404   1.3273691  46.9021492  18.2457047
   0.5116854  46.4021339  18.2160892   1.1771582  47.6406555  17.6555519
  73.1641235  34.8725471  44.6569481  72.5898972  34.6851883  45.3995094
  72.6131516  34.7326355  43.8868332  45.9482689  54.3085022   7.9536328
  45.5589218  54.9595795   7.3699069  45.5687332  54.4985924   8.8115654
  22.7120838   0.6451629  84.7849579  22.2653694   1.3264086  85.2875366
  23.6408119   0.7770808  84.9754715  73.2796783  41.8264580  21.9170151
  74.0456085  41.9883804  21.3662338  72.5554428  41.7319031  21.2983246
  37.5562210  43.1195374  64.1443024  38.4331894  43.4068832  64.3984451
  37.5399895  43.2136230  63.1918755  61.2187042  66.2623367  37.6633301
  60.3452034  65.8880844  37.5486183  61.3002319  66.9015732  36.9555397
  45.8550148  44.1531334  61.7396660  45.1705551  44.7187614  61.3821526
  46.6398735  44.7010384  61.7451706  66.1782990   2.8475978  28.8574734
  66.2156601   2.7988503  29.8127003  67.0926132   2.7953084  28.5790367
  48.3344612   1.7897165  81.6654587  48.9158058   1.4454345  80.9874191
  48.2028999   1.0544932  82.2640991   9.1884146  50.6702995  12.4736528
   9.9783258  51.2049866  12.5535269   8.6069345  51.1842651  11.9133387
  42.1121864  29.7119999  48.8188362  41.7103920  29.0241184  49.3495064
  42.9472237  29.3392944  48.5359383  67.0199356  22.1268406  32.8182106
  67.1373901  22.5701542  31.9780254  67.6132507  21.3767643  32.7782516
  14.7165737   5.4160681  46.4815102  14.5383482   5.2729115  45.5520058
  15.2564526   6.2061963  46.5029488  16.4837551  32.0148087  18.5388870
  17.1303539  32.5189705  18.0449619  16.1931915  32.6098595  19.2300587
  65.3005066  31.1567898  36.0537033  65.6848373  30.4133873  36.5183258
  66.0077057  31.4829865  35.4972000  84.5875626  68.6592026   8.5348806
  84.8685074  68.1772919   7.7570210  85.3960190  69.0219803   8.8968582
  26.8998966  68.7396622  23.7290268  26.4222851  68.1419830  23.1537895
  27.7715683  68.3518753  23.8067570  52.5146408  37.8634872  38.3359108
  52.6795158  38.8060722  38.3117714  52.6233444  37.6248207  39.2564812
  85.8017273  19.5520134  33.3278618  85.3142853  20.1120739  32.7237396
  86.7023621  19.8722553  33.2775497  75.0540237  58.2734337  64.8418961
  75.0420609  58.2168465  65.7973480  75.8351517  57.7846413  64.5827713
  41.4099236  47.7649536  28.9349022  41.8278809  48.5271492  29.3356552
  40.5247803  47.7580070  29.2991886  17.0272484   5.1474380  14.5250759
  17.4332829   5.8831472  14.0667086  16.6131516   5.5424080  15.2923784
  19.2266750   9.9158020   7.3928566  19.7984467   9.1481504   7.3971930
  19.8115044  10.6489744   7.2013807  52.1502953   7.4627738  85.8189926
  51.8689880   7.0437980  86.6323547  51.5943680   7.0731769  85.1441650
  85.9133148  14.3216906  35.0771408  86.4848938  13.9205503  34.4224510
  86.1671753  15.2445927  35.0834732  18.4820499  65.8781586  10.5384884
  18.4629726  64.9829407  10.2001848  19.3913574  66.1563110  10.4288378
  66.8988113  14.1878204  16.6415348  67.4912262  13.8237686  17.2993622
  66.1519470  14.5118608  17.1449490  84.1826248  38.7027206  67.7784042
  83.7951202  38.8995323  66.9255676  84.8406296  38.0325661  67.5935974
  85.7213974  21.1959763  60.7629585  84.8140945  21.3704605  60.5127640
  86.2424011  21.5801315  60.0578308  38.9861031  12.1366062   9.2491722
  38.9232979  12.1159220  10.2040854  38.1127739  11.8880672   8.9462614
  71.4779129  41.6325340  45.8298073  71.5401993  41.4995041  44.8839455
  72.1575317  41.0669365  46.1964874   2.7551625  16.2208652  11.6642857
   2.9277825  15.6196136  12.3888063   2.5804613  17.0616188  12.0871859
  64.6562729  24.1901665  64.9619675  65.6005402  24.3100185  65.0631256
  64.3266907  24.1179466  65.8577271   9.1946859  35.1105042  65.4524460
   9.3858023  36.0424500  65.5581894   8.6883678  34.8799553  66.2313690
  22.3550014  61.7745209  41.4884300  22.7548389  62.4918976  41.9800911
  21.6392365  62.1858978  41.0039902  23.6056137   7.1037550  64.6459885
  24.2895432   6.6050858  64.1989975  22.9757595   6.4425216  64.9328461
  27.2782173  63.6646004  35.5562172  27.8872051  63.0525894  35.9695091
  26.9419079  63.1908417  34.7955055  60.4525833  63.4173203  64.3148880
  60.9531059  64.2257004  64.4254837  59.6123352  63.7030296  63.9562988
  39.6977081   5.6281633  85.3538666  40.0075645   4.8942208  85.8844833
  39.5037193   6.3176823  85.9888229  32.3848305  49.4245186  49.6275215
  31.7574768  50.1131439  49.8476562  33.2387772  49.8022614  49.8380432
  57.7486038  40.7918663  61.2562447  57.2104492  41.3555908  60.7005119
  57.1228180  40.3636971  61.8404465  84.3261108  41.7846069  36.4350357
  85.2661972  41.6897507  36.2818718  83.9593658  40.9294395  36.2104950
  72.5121994  53.6129723  12.9001026  71.6171494  53.2830544  12.9793224
  73.0233841  53.0637817  13.4945049  76.8235779  53.4971695  65.3181152
  77.0097046  52.9368744  64.5646820  75.9399261  53.8283653  65.1578064
  45.7360535  12.2161942   0.2860421  44.9936905  11.8846188  -0.2191183
  45.3720665  12.9348001   0.8031030  72.4402924  27.8762321  28.6515427
  73.1954422  28.2033215  29.1404095  72.5749664  26.9295559  28.6079483
  71.1896439  69.0774918  19.5576744  70.2603455  68.9843979  19.3479900
  71.2469406  68.8682938  20.4899750  36.2917671  70.3092575  46.4072762
  36.4094238  70.5193329  45.4808540  37.0828629  69.8259354  46.6456146
  84.4160767   4.7353296  47.8203583  84.8610153   5.1677551  47.0914764
  84.7752838   3.8481159  47.8278122   0.7353339  21.5960140  78.2623901
  -0.1689679  21.3951988  78.5035172   1.2493817  21.3439198  79.0294800
  51.8126526   3.4837530  35.7350655  51.9860954   3.2122362  36.6364136
  52.2438087   2.8193276  35.1975975  77.9128265   6.4511533  67.6246719
  77.8893738   6.2613311  68.5625687  77.1398087   6.9942966  67.4708252
  84.3001785  14.7265520  25.4822216  84.9683990  15.2881355  25.8750782
  84.7176666  13.8677292  25.4162045  72.7745438  14.1577587  56.4224319
  72.4918900  13.3338785  56.0254936  72.9723740  13.9304371  57.3309593
  42.1900253   0.8303712  31.2438087  42.3706894   1.2819425  30.4193840
  41.6387177   0.0885699  30.9947662  23.1839828  61.2932777  10.7500410
  22.4376030  60.8659477  10.3298759  23.1128311  61.0472183  11.6723337
  77.2288818   9.0403156  36.8575554  76.8992691   9.7682905  36.3306389
  76.4519501   8.5180016  37.0570488  17.2932091  58.9577904  13.7180233
  17.3859749  59.7091103  14.3038082  18.0384407  58.3955994  13.9296923
  84.0076981  66.4818573  41.2927094  83.2302780  66.4190979  41.8476028
  84.5114441  65.6937714  41.4961624  66.1057739   9.7673893  13.8554010
  65.3594360   9.6416998  14.4414158  66.6021500  10.4843445  14.2501354
  58.5008545   8.3501091  59.2611351  58.4655418   9.2017145  58.8255272
  58.7269669   8.5544186  60.1685295  49.2195854  55.2815056   5.3671374
  49.3552933  55.2462158   6.3140111  48.6640091  54.5257187   5.1764736
  59.5896950  12.3569670   8.0681581  59.2505684  13.2245522   7.8478856
  60.1273003  12.5005980   8.8469915  64.7632446  60.2330971  79.5285492
  64.7398224  60.1675186  78.5738831  65.1922913  59.4263115  79.8135910
  83.5424500   9.3362637  63.1017914  82.7719650   9.7795343  62.7466888
  83.9582977   9.9911156  63.6625710  63.1387444  69.6986237  71.4120255
  62.6109085  69.0109482  71.0061646  62.9272003  69.6443634  72.3439789
  10.5137043   6.0137367   2.9950557   9.7630949   5.6021295   3.4233055
  10.6344643   6.8390584   3.4646215  18.9231567  51.4288788  57.5964317
  18.9101009  51.4921799  56.6414146  19.7105713  50.9210014  57.7920609
  13.7248106   9.9078016  10.1537905  13.9195938  10.2401752  11.0300426
  14.4003592  10.2931814   9.5958042  58.8459129  39.0010109  50.8210335
  58.1224289  39.6268616  50.8543892  59.3053818  39.2091942  50.0075340
  28.1821175  47.9253120  48.7239189  27.8738079  47.5272064  47.9098625
  28.6116638  47.2098312  49.1927605   0.0435527  60.2688866  76.7633514
   0.2404482  59.7628746  75.9750519   0.8955618  60.4108734  77.1758423
  85.7340164  38.4476929  29.5915203  85.0348511  38.3676262  28.9426842
  86.1477814  37.5846519  29.6055012  50.1332779  39.3315926  67.7714386
  50.2355690  38.5498543  67.2286148  50.7603569  39.9579391  67.4099274
  76.3613815  31.8968315  62.8230667  76.1599426  32.1356239  63.7278481
  76.2021484  32.6973152  62.3229599  39.3991508   9.4600439  67.6639404
  39.9319725   9.0974178  68.3716431  38.6529350   8.8643456  67.5965729
  10.8168316  40.3893623  74.1122055  10.9751320  39.5145607  73.7573853
  10.0368538  40.6974602  73.6507492  63.7492256  40.0305023  62.5412521
  64.5487061  40.2435074  62.0599136  63.0459747  40.4205284  62.0220680
  30.1138744  56.6950531  57.1201782  31.0596809  56.7727470  56.9951057
  30.0185719  56.2982864  57.9860458  12.8754807  32.8909454  64.3985901
  12.7096243  33.7177620  64.8514633  12.6163130  33.0580139  63.4924202
  54.8427849  21.7329216  65.4817810  54.7965622  22.3510208  66.2111969
  55.7282143  21.8387833  65.1338730  82.3284302  37.8918800  69.5853729
  82.8919373  38.3003922  68.9282532  82.4606552  36.9517632  69.4632111
  11.8410044  69.9646835   5.0696507  11.1196918  70.0315781   5.6953220
  12.6261473  70.1342392   5.5902591  49.8353958  19.4595757  28.2821331
  49.2475586  19.0194035  27.6681862  50.1309471  18.7649059  28.8706188
  53.4903374  31.2648888   0.2834308  54.2782326  31.4579201   0.7915570
  53.7027702  30.4617596  -0.1920560  78.8458710  71.4058075  80.4586945
  79.6344604  70.9015045  80.6587830  78.5568237  71.7445984  81.3059845
  46.7327499   5.4586000  79.5448685  46.7262115   4.5239134  79.3385925
  47.6516609   5.6579075  79.7240601  68.4840088  11.7475119   9.0619822
  69.1311951  12.4042063   8.8048115  67.9245377  12.1976357   9.6949244
  41.0410500  45.3445930  61.9026222  40.8515854  46.2628860  62.0951653
  40.5563202  44.8555145  62.5675049  21.2373810  50.1741714  57.3882790
  21.9034004  50.8174820  57.6307678  21.5935535  49.7415695  56.6122437
  86.4871521  68.6707077  84.4420090  85.9155045  68.8593750  85.1862259
  85.8869629  68.4722519  83.7232437  49.6778984  36.0388947  42.4844208
  50.4846268  35.8112907  42.9466095  49.1848869  36.5695076  43.1102142
   8.5232182  59.8961182  43.3804245   9.1838913  59.7972412  42.6948853
   9.0063190  60.2431297  44.1303749  38.2109261   0.2278036  82.4373474
  38.8149338  -0.0469874  83.1271973  37.6290169   0.8561985  82.8648148
  48.0379028  10.0658913  16.3538933  47.8267021  10.8793383  16.8120747
  48.8621025   9.7772760  16.7458477  86.1394043  63.9427109  44.5420532
  86.0019608  63.2056160  45.1370621  87.0868149  64.0792236  44.5447083
  82.9387054  59.8973846  10.4752550  82.8771439  60.0028801   9.5258799
  82.0570908  60.0888138  10.7951784  44.2874603  56.4054451  43.3733902
  44.9394760  56.1829872  42.7088470  44.7932205  56.5114594  44.1791191
  85.4675293  47.6084900  43.2508202  85.5406494  48.0840607  44.0782967
  85.8573608  48.1947937  42.6023521  84.1244507  58.4185791  44.8755264
  84.1514359  58.1186256  43.9669380  83.2701950  58.8414917  44.9628677
  79.0836639  35.3821983   9.6448641  79.7747650  35.3175049  10.3039732
  79.3504028  34.7718544   8.9574347  59.3452301   9.2789345   8.7291603
  59.1847878  10.2222672   8.7539225  58.4806480   8.8857317   8.8479805
  67.2774811  52.9913445   3.7290137  66.5042191  52.9404335   4.2908897
  67.9242172  53.4631195   4.2537880  66.0602417  67.6278305  55.3410568
  65.1560898  67.8370132  55.5755577  66.2935181  68.2803574  54.6807442
  41.8940735  38.4050903  37.2824402  42.4265480  38.5973473  38.0542793
  40.9909210  38.5023880  37.5842361  78.3697891  58.8737831  17.0308170
  77.8902817  59.5934830  16.6205273  78.1568909  58.1087265  16.4964027
  19.2201748  57.6201935  43.4654694  19.9869232  58.1475334  43.2413139
  19.3026123  57.4655800  44.4064941  38.0104294  66.3584976  17.6686325
  37.1589355  66.6704788  17.9749947  37.9195862  65.4061203  17.6376648
  55.3167648  21.7866783  21.9469528  55.8720284  21.1076832  22.3302021
  55.9099617  22.5216331  21.7914162  65.9473114  62.8177605  62.7291718
  65.3922348  62.0864067  62.4585381  66.4228973  63.0638733  61.9357719
  49.9750481  66.3190460  64.6453400  50.1982765  67.1788483  65.0019073
  49.5837212  65.8487167  65.3814697  20.0717163  27.3179550  81.6909409
  19.5188751  28.0658703  81.4646149  19.6050644  26.8823109  82.4041595
  77.1972351  30.6658134   7.6727576  76.7883148  29.8852253   7.2989893
  77.1101532  30.5519638   8.6191654  56.4373741  45.1929474  32.9306602
  56.0689888  45.6000404  32.1465683  55.6741905  44.9250107  33.4425049
  71.4831390  18.9883919  10.8000374  70.6003265  18.7895546  10.4880590
  71.6387329  18.3534889  11.4992666  58.1334381  22.9049397  64.7324753
  57.6017685  23.0470200  65.5156479  59.0243187  22.7942524  65.0646057
   7.5250416  46.3499870   4.6230345   6.8454461  46.9131813   4.9934325
   8.1602421  46.9580803   4.2449126  64.2257233  53.7488136  63.0747452
  64.5385590  54.6094170  63.3535385  63.6205368  53.4786720  63.7653999
   9.7627974  58.2702370   2.2384491  10.6094913  58.6665535   2.0328364
   9.3056164  58.9354286   2.7529743  55.8543205  29.1774788  12.4719629
  56.0174866  28.5268784  11.7890797  56.4896011  28.9699268  13.1572170
  62.9158020  49.7707863   3.9092500  63.3227081  49.3573532   4.6706495
  63.6100502  49.7958794   3.2507503  52.4021530  59.8357811  15.2429276
  53.3100624  59.8317680  15.5460997  52.3664284  59.1419106  14.5845194
  58.0455704  55.5597992  76.3540497  58.4483032  55.9887466  77.1090622
  57.1136818  55.5213699  76.5693054  21.0285187  67.2092285  10.6709833
  21.1332569  68.0743713  11.0669594  21.5468006  67.2493591   9.8672390
  23.5059109   5.4801002   6.0847487  23.6770821   6.1710935   6.7246394
  22.5808697   5.2657037   6.2054358  83.3218994  60.4243622   5.4113665
  82.9376526  60.4364281   6.2879715  83.1345673  59.5461807   5.0798063
  47.7731667   2.6183221  19.2455502  47.4031677   3.0043519  18.4516277
  47.0348282   2.1741488  19.6624432  10.8455048  58.3444786  14.7067213
  11.7387323  58.4478493  15.0348854  10.5345745  59.2397499  14.5724144
  67.2879639   8.9357767  78.5221405  67.1590271   9.5052977  77.7636795
  67.4610367   8.0724468  78.1467133  81.1694946  38.5229340  53.2347946
  82.0604095  38.4216309  53.5698242  81.2811279  38.9358711  52.3784943
  47.8621674  26.0952492  48.3510780  48.5862465  25.6625977  47.8985786
  48.1923027  26.2524681  49.2356834  22.6103306  70.6336899  17.5972557
  21.9874783  70.3733673  18.2758713  22.7131252  69.8523102  17.0540199
  21.4261551  57.3023415  40.3253174  22.3755856  57.4038849  40.3924141
  21.0707512  58.0460091  40.8120193   2.5132868  37.5778008  19.0079288
   1.9386566  36.8131599  18.9710751   2.6365163  37.8291397  18.0925732
  14.1077557  64.7559967  45.6132812  14.2037363  65.2026596  46.4544220
  14.7818298  64.0764923  45.6246338  66.5188293   3.4436073  22.4683933
  66.6089554   3.5685666  21.5236740  67.2665253   3.9085598  22.8439026
  58.4724922  57.8974075   2.2142775  57.7326431  58.5043335   2.1920130
  58.6856728  57.8136292   3.1436684   1.7891295  29.0774517  59.7143211
   2.5306907  29.3200951  59.1598473   1.6353528  28.1533623  59.5177422
   7.2519021  34.3047409  86.3545914   7.5000248  35.1320229  85.9419556
   6.7993340  33.8193092  85.6648331  27.5095692  23.5353928  78.9052734
  26.9561844  23.0386314  79.5079498  27.7391701  24.3285427  79.3894501
  47.3809242   6.0378623  40.0259972  47.0191383   6.1107445  40.9091873
  48.1736641   5.5124812  40.1345024   0.3951009  23.6020756  50.3845215
   0.0175157  24.3469563  50.8522949   0.7653100  23.0496178  51.0729752
  23.6991329  30.5520248  87.3855820  23.8831387  30.0345688  86.6016083
  24.1796894  31.3689384  87.2516174  85.6483841  16.3450661  27.2834492
  86.5583344  16.2620792  27.5686474  85.1652985  16.5562592  28.0823612
  77.9399643  15.9134083  35.5153732  78.0981674  16.1905155  34.6129227
  78.7972870  15.6294394  35.8325157  55.9313545  46.8820076  15.7264214
  56.2574120  46.9999008  16.6186218  55.9616737  45.9360428  15.5833797
  31.2619400  63.5505905  56.1562119  31.3199883  63.3981857  55.2130051
  30.4449959  63.1257515  56.4176445  77.6156769  66.1306610  53.4546394
  76.7631989  66.2132111  53.8820724  77.4166031  66.1449509  52.5184784
  11.3360205  52.5547180  10.8552351  12.0129614  52.0666046  11.3239832
  11.6578627  52.6064758   9.9552507  62.7786369  49.1135864   0.0813245
  63.4504395  48.9876060   0.7514305  61.9544754  49.1269569   0.5679596
  81.4518204  30.6612206  10.8431826  80.7176208  30.8407993  10.2558680
  81.1147995  30.0064030  11.4546261  39.4136848  38.4767036  76.3103561
  39.3481750  37.6371765  75.8552322  38.8320198  39.0596733  75.8224640
  30.7366295  69.6704407  43.7710533  30.4412365  68.7636261  43.6894341
  30.6413364  70.0335617  42.8905449   3.8477950  16.8856125  77.1147995
   3.2540078  16.1368008  77.1689301   3.6017389  17.3281727  76.3024979
  24.1491280  14.9605989   5.5071187  23.7228107  14.2454834   5.0347896
  23.7855167  14.9139376   6.3913374  40.4588623  65.3155060  43.8353691
  40.9962196  65.5919495  43.0930367  39.5753670  65.2371216  43.4754753
  77.9607391  50.8379898  69.9481506  78.2701187  50.0560226  69.4909363
  77.9865417  50.5995598  70.8748169  61.1122169  58.5467987  36.5339241
  61.7087173  58.1052437  37.1384468  61.4788246  59.4254265  36.4347076
   9.7965746  57.3981285  86.5574875  10.4364147  57.5679169  85.8661118
   8.9588604  57.3360138  86.0985718  51.3524284  35.4281235  48.9327164
  50.9145737  34.5809860  49.0156441  51.8928795  35.3425293  48.1473351
  62.5661049  42.3183365  15.5509310  61.9445992  42.8675499  15.0730963
  63.1425095  42.9399338  15.9954615  79.0530090  23.6153908  30.0155354
  78.3411407  23.0160828  29.7912350  79.3274765  23.3440800  30.8914833
  67.5272141  61.6638222  71.2602463  66.8254471  61.4620171  70.6413498
  67.6206131  62.6153564  71.2145004   4.5428824  59.6960220  16.9008198
   3.6587520  60.0106964  17.0892982   5.1084585  60.4458084  17.0856819
  65.8701782  58.2388878  34.7297096  66.1521530  58.3075562  33.8175659
  65.7032394  57.3052902  34.8591652  67.7000198  13.4742308  63.5792770
  66.9694977  13.3170862  62.9810486  67.4784088  12.9738169  64.3645859
  86.6639709   1.7558078   1.1799512  86.6899719   2.0688000   2.0841591
  85.7317429   1.7192838   0.9658481  61.4993172  31.8613300  25.3478928
  60.6150436  31.9564953  24.9940109  61.4068222  31.2230892  26.0552292
  44.3666267  22.1950512  15.1353092  44.0810585  23.0877056  15.3298655
  43.7928581  21.6396389  15.6630764   8.2083941   1.8253906  33.8276291
   8.4359856   1.6605592  34.7426491   7.3003988   1.5325155  33.7501602
  38.1088181  45.8291779   9.5381041  37.5665245  45.2005882  10.0145741
  37.8673630  46.6798973   9.9044533  56.5452499  16.6140003  86.3005753
  56.0166359  16.8445816  85.5366135  56.0292168  15.9495907  86.7571945
  25.1766357   1.3037676  23.0197620  24.7329311   0.4556407  23.0136032
  25.7807369   1.2634243  22.2783680  60.6572723  17.8179245  28.4196301
  60.7523766  18.4018421  27.6671505  60.0320969  18.2636852  28.9911957
   7.6302757  62.0467758  71.6175690   7.9725156  61.7851562  70.7627792
   8.1140852  61.5087013  72.2441711  83.8986816  58.6795387   7.7498674
  83.0701065  58.4310074   7.3400774  84.4149551  57.8735123   7.7542858
  40.3315048  62.4741478  62.3611908  41.1263504  62.8117256  61.9482803
  39.8024826  63.2527885  62.5346489  86.1522141  60.6208649  41.5642204
  86.9165039  60.5321350  42.1336327  86.1418381  59.8137398  41.0497551
  65.8741531  34.5199165  33.8736839  65.1265945  34.0865211  33.4619141
  66.4644089  33.8048668  34.1114502  10.6954336   9.8416519  25.4950123
  10.0927773   9.3595095  24.9288177  11.0147161   9.1877737  26.1168919
  51.2057762  17.6064758  81.9631653  50.5381279  18.1836987  81.5926437
  52.0073471  17.8340435  81.4920731  68.0811462  22.3502235  71.5122986
  67.2118912  22.5619812  71.1720352  68.4545135  23.1964149  71.7588577
  54.1667442   7.5941124  88.1406174  53.2505608   7.3189492  88.1070251
  54.5849113   6.9634089  88.7267761  41.7078171  24.9258804  74.9977264
  41.5771294  25.2969055  75.8703613  41.1066742  24.1818810  74.9613113
  80.3935165  46.6681595  42.0033684  80.4909897  47.4283714  42.5767860
  81.2550735  46.2511368  42.0099754   3.1645343  47.1818008  69.3090744
   3.6738226  47.3970947  70.0904236   2.4437397  46.6423302  69.6341248
  53.5060921  46.6928253   9.3391228  53.5571747  47.5059242   8.8366337
  52.8104973  46.8492661   9.9777985  82.8268127  63.5183716  47.6060677
  82.5436630  64.3191605  47.1647072  82.2155914  63.4181976  48.3358688
  15.4761562  24.7585640  79.7197723  15.8297825  25.5890617  80.0382919
  16.0908203  24.4813519  79.0403824  13.1413183  55.2521439  49.6443939
  13.5775480  55.9685478  49.1832008  12.6316328  54.8067703  48.9675674
  56.0268440  66.7814102  79.2475586  56.3201332  67.3593216  79.9519958
  55.1347313  67.0707703  79.0561447  81.1071777  26.2576370   5.1273837
  80.5958481  25.8550110   4.4254842  81.7494354  25.5902634   5.3689518
  82.1513367  13.1306839   9.3829575  82.2064819  13.1377373  10.3385410
  82.0287781  14.0492659   9.1433334  58.0048256  56.8542786  32.4623833
  57.6292229  57.6652069  32.1195297  58.7679329  57.1378746  32.9658432
  66.8426437  25.2780266  66.3840332  66.7164078  25.3563137  67.3296356
  67.7257843  24.9212914  66.2890167  13.1002274  48.0478554  16.8261280
  13.6346531  48.8377151  16.7440395  12.3431835  48.3235321  17.3429623
  15.9938469  42.0846939  31.8217068  15.0441418  41.9748611  31.8689308
  16.1345520  42.6194839  31.0404072  63.2362328  24.0146275  70.2277527
  62.4230080  23.5370979  70.3916550  62.9758072  24.9356899  70.2203827
  19.8448448  40.8717079   2.0373082  20.6612186  41.0861931   1.5859100
  19.1798935  41.3970261   1.5922109  67.0649338  60.1866570  48.7869072
  67.6294556  60.0852432  49.5532417  66.9895859  59.3031769  48.4263344
  19.6968479  37.8447266  51.9783707  18.9511395  38.2714272  51.5563812
  19.3132343  37.3593941  52.7087975  76.6337967  40.8114548  67.7016907
  76.1650696  41.5290794  67.2756119  77.3691864  41.2351341  68.1443405
  52.9471321  29.6030483  71.3496246  52.4113693  29.9905224  70.6574860
  52.4293938  29.7187061  72.1463699  69.2760849  37.1790123  30.3196564
  69.3790588  37.7906799  29.5906239  68.4248962  36.7679100  30.1689739
  46.3441391  50.7725754  22.5027065  46.2796288  51.2150307  23.3490524
  46.9370117  51.3218651  21.9898548  63.0357361  52.9232292   8.8167772
  62.1976128  52.7465744   9.2440653  62.8246651  53.5511055   8.1258001
   4.7133164   8.3699427  86.9655533   3.8440008   8.7126532  86.7580185
   4.9290080   7.8007436  86.2268219  20.4108715  24.3651161   4.8256145
  20.6793823  24.9234676   4.0959730  20.4639378  23.4748211   4.4780631
  41.7651749  59.5854988  34.9497223  42.5201378  60.1701355  34.8828812
  41.1235809  59.9523239  34.3414230  52.6986580  13.2060413  29.2743835
  52.8625336  13.5354471  30.1580505  52.8518372  12.2633181  29.3379555
  36.6803627  17.0599174  12.2130079  37.1027107  16.2023487  12.2623062
  36.9261322  17.3988113  11.3522062  58.7818565  20.5176048  60.9897766
  58.3336449  20.8137455  61.7820129  58.3816795  21.0256290  60.2840843
  38.6861000  31.8195171   6.0925775  39.6102676  31.7905941   6.3401852
  38.2423134  32.1715546   6.8641706  46.8784485  46.0100784  81.0202255
  46.0276794  45.9331093  80.5883789  47.2978134  46.7563553  80.5919342
  83.6764297  35.3725281  57.7004509  82.9839020  34.7846336  57.3987732
  83.3927841  36.2418365  57.4174690   1.3062416  13.4914408  33.5424805
   1.1402112  12.5625057  33.3820229   2.2258203  13.5284300  33.8056145
  15.6289024  47.7025375   5.5440702  15.6552353  48.6571922   5.6086702
  14.7463589  47.4673500   5.8304882  46.4947624  57.1686783  26.5158634
  45.7962303  57.7324104  26.8482590  46.2266312  56.2837753  26.7634277
  75.3083191  34.4896736  25.3192120  75.4847794  34.9036751  24.4744053
  74.5912094  33.8808022  25.1424236  20.0935993  12.0958633  13.4008245
  20.3728523  11.9633904  14.3067503  19.1512070  12.2523527  13.4611359
  53.9864998  27.8896523  31.0689926  53.6935768  26.9796734  31.1176243
  54.9321442  27.8299351  30.9332790   5.6272650  32.1970367  55.8127632
   5.7139244  31.6147671  56.5675354   5.2047706  32.9814491  56.1626587
  71.4949036  42.1375580   7.7531047  71.6489944  41.4438210   7.1118431
  70.5427399  42.1714821   7.8451223  10.9854946  47.4221611  82.0935364
  10.5630007  46.5678711  82.1825104  10.5912180  47.9572563  82.7823410
  72.9558487  38.8856468  77.8700256  72.1867523  39.3076668  77.4871216
  73.1139221  39.3672028  78.6820297  50.6286545   6.7288485   2.2830200
  50.0342636   6.6247325   3.0260491  50.0549278   6.7385607   1.5168767
  66.5035400  16.2128086  39.1466789  67.0625916  15.7963943  39.8026390
  66.1800537  17.0049572  39.5757370  20.4912014  41.5117340  67.5338440
  19.5575600  41.6683350  67.3923492  20.9268284  42.2292252  67.0737686
  11.1617012  30.0056667  63.1897659  11.1397314  30.4697952  62.3529053
  11.9250593  29.4317570  63.1253853  45.9668503  71.1322479   5.3839784
  46.7893562  70.6667023   5.2323866  45.9164658  71.7680893   4.6702542
  85.7398300  20.9664097  40.7429543  86.1822205  21.7385349  41.0955811
  85.5477600  21.1948872  39.8334808  48.9352303  52.0251236   7.5038571
  48.9867096  52.9533730   7.7317410  49.6395607  51.8949661   6.8688712
   6.8301778  30.5835781  11.9676552   6.7862444  31.3804054  12.4962101
   6.0994148  30.6623230  11.3544540   0.3420959  64.2798996  51.4475746
   0.3040967  64.7311630  52.2908745  -0.5133657  64.4425507  51.0501289
  13.2200050   5.6194935   2.5716994  13.2090788   6.3140321   1.9131185
  12.3985023   5.7303252   3.0503249  51.1782951  53.0124130  80.4562912
  50.4627380  53.3695068  80.9823074  51.9707146  53.2463379  80.9395981
  24.8533306   8.9511662  25.5036163  24.4544830   9.2326136  26.3269863
  24.1398258   8.5314426  25.0230179  61.4993172  63.7047958  10.3329115
  60.7170258  64.1213684   9.9713621  62.1939812  64.3516083  10.2091999
  48.7797699  38.1327400  30.6337109  48.2672615  37.6095848  31.2500515
  48.3150444  38.9681015  30.5843639  66.1955185  29.6883812  15.6252689
  65.6697540  28.9273720  15.8715887  66.1318588  29.7247086  14.6708794
  70.8197556  21.2364616  25.6641426  71.0863266  22.1187916  25.9223347
  71.4375000  20.9915962  24.9751854  29.2881088  64.1701279  43.0748062
  28.9186840  64.1285095  43.9568634  30.0253906  63.5600090  43.0948906
  51.0358772  13.0492716   4.9199905  51.9851036  13.1233397   4.8214369
  50.7394104  12.6592455   4.0976658  76.7481461  29.8721638  66.8637009
  77.6239853  30.2534370  66.8023834  76.2027664  30.5791550  67.2086029
  65.8068237  56.0037155  10.3245134  65.8378067  55.0524292  10.4261189
  65.6841660  56.1403809   9.3850927  13.4972305  18.8851204  31.2314854
  12.7434711  18.9931717  31.8114891  13.3933983  19.5722790  30.5732574
  37.6526680  55.1104393  26.0509930  37.4117050  54.9537697  26.9640236
  37.8080482  56.0537109  26.0027637  39.9934006  65.6308136  50.5251350
  39.7069054  66.5246353  50.7128258  40.9185677  65.7189789  50.2959557
  24.3479118  50.2129288  28.3511524  23.5924816  49.7682076  27.9667320
  24.2164116  51.1366310  28.1373501  39.0178871  48.9637413  71.5415649
  38.6946144  48.1511803  71.9307556  38.4003487  49.1532440  70.8351898
  62.5485573  14.1914597  44.0530052  62.2517090  13.7487526  43.2579460
  62.8127251  13.4814386  44.6380844  55.6801376  38.4031296  73.8942108
  56.0726776  38.7408905  74.6992340  56.1624413  37.5964890  73.7126846
  73.4993668  66.4740982  26.0656033  73.7837982  66.9261475  25.2712593
  74.2934036  66.0589066  26.4022655  42.5472107  37.6506767  15.3554382
  42.5241966  38.6075897  15.3508234  41.7156601  37.3930092  15.7533817
  65.3371887  32.6842346   6.5388789  65.3840637  32.9023552   7.4697156
  66.2493439  32.5638809   6.2748480  18.5972023  36.0328979  84.9022064
  18.5277691  36.5782318  84.1186142  18.2618256  36.5848846  85.6086502
   3.6814733  54.9618454  51.2301750   3.3199565  54.5010490  50.4730721
   4.2668347  55.6189194  50.8535614  55.5406570  14.4399252  19.8884239
  56.2215767  13.7964106  20.0845623  55.6820450  15.1400270  20.5256824
  74.6065369  31.4268532  82.7933426  75.4662247  31.0074959  82.8294525
  74.0104370  30.7282963  82.5233078  59.9300766  45.2700081  38.4298935
  59.3537292  45.2688522  39.1941299  59.4017944  45.6575890  37.7320900
   5.5583019  57.2250748  50.6414299   6.3788600  57.4861717  50.2234039
   5.1533298  58.0497475  50.9100227  64.7113037  64.3817139  33.0789490
  63.8310051  64.1642914  32.7723083  64.5899887  65.1597214  33.6232109
  38.1825256  17.6469994   9.9459200  37.4404411  17.7013664   9.3437691
  38.6541290  16.8595467   9.6743641  64.3017807   4.2039318  34.8169823
  64.4565506   3.2595851  34.8390770  64.1373291   4.3981643  33.8942375
  85.0992737  38.1818962  50.6656380  84.9866791  38.7887535  49.9340096
  85.2210388  37.3275146  50.2515831  76.5988312  30.0156136  72.6603851
  76.4505310  29.1096325  72.9313736  76.0041046  30.5294437  73.2067490
   9.9617033  30.5125122  28.2673779  10.4725227  29.9926338  27.6468773
   9.5808201  29.8677158  28.8635292   9.5933380   4.7604041  45.6550674
  10.3212938   4.5377188  45.0747910   9.3765240   3.9377885  46.0938492
  12.7570333  46.1623116  78.3028946  12.1900864  46.5724182  78.9560547
  13.0080204  45.3259163  78.6949158  13.8563833  42.2375793  62.8522491
  13.7992058  43.1925468  62.8206406  14.5259619  42.0161743  62.2050438
  29.1109447  19.7469749  80.5251236  29.1884689  20.2866116  81.3118973
  29.5878353  20.2337132  79.8528976  53.1364632  57.0715828   7.7695870
  52.6007500  57.5677948   7.1507049  53.9672508  56.9375763   7.3134437
  77.4560471  33.4131203  23.9799423  76.9586563  33.6288986  24.7687836
  77.9152298  34.2229500  23.7573223  78.3622971  36.7329674  57.4511185
  77.4946060  36.5627708  57.0845413  78.2288666  37.4659996  58.0520287
   8.1099005  34.2938805  23.3744411   8.3568163  33.4274445  23.0510998
   7.7551990  34.7436066  22.6075191  80.9905243  26.5394516  39.4477463
  81.4061279  25.7868652  39.8685951  81.0640869  27.2444363  40.0910339
  51.2428360  50.6090202  32.6318321  52.1938591  50.5145187  32.6852837
  51.0846825  51.5381088  32.7992096  78.1169205  19.2073746  69.4003143
  77.3727722  18.6369286  69.2078094  77.8485260  20.0679874  69.0785370
   1.3714938  58.7621956  46.0306206   0.6504382  58.1418228  46.1376076
   1.3957328  59.2459564  46.8562241  56.9725113  64.0052338  72.8615417
  56.8213196  63.2636948  73.4476242  57.6042404  64.5534439  73.3269577
  36.2140007  13.6399403   7.3366466  35.5411606  14.2248125   7.6851363
  36.8561783  14.2256432   6.9356627  32.9398575  25.8149052   8.4317636
  33.3614922  26.3657303   9.0913448  32.4018173  26.4207554   7.9221644
  56.5383110  24.2478104  66.8098297  56.5715218  24.6674709  67.6694946
  56.0817108  24.8783932  66.2529526  50.9715881  49.3504410   3.7143626
  50.0435982  49.3306046   3.4805524  51.2582588  50.2336960   3.4821715
  62.6735954   3.4931421  61.2104492  63.5107117   3.9279041  61.0478210
  62.4746513   3.6911907  62.1255646  76.1247711  55.4571495  82.7018127
  75.5031738  55.0237083  82.1170197  75.7525024  55.3406219  83.5759201
  45.5968437  27.0450878  14.4631023  44.8993378  27.3933716  15.0184555
  45.7513313  27.7313442  13.8139343   2.0451658  49.3037109  56.8136520
   2.1678860  49.9888916  56.1566124   2.4546928  48.5281258  56.4302635
  80.7497635  61.0980873  34.0630417  81.3958588  60.6198349  34.5827103
  81.2718048  61.6317444  33.4639473  74.9964676  31.4164448  26.3763256
  74.9645157  30.4691029  26.2430725  75.3554230  31.5224209  27.2573185
   2.7848747  34.0936890  69.5697250   2.4413767  33.2136307  69.7238083
   2.8937838  34.4649734  70.4452362   8.0164986  40.6853943   8.2770185
   8.1373549  40.9068527   9.2003727   8.8988152  40.7121010   7.9068360
  76.3839035  11.7165604  17.0332832  76.1204987  11.5459595  17.9375744
  77.2169342  12.1817245  17.1101685  56.6696434  34.4507942  75.9055481
  55.7748756  34.3676186  76.2352524  57.0232658  35.2139854  76.3624039
  40.8042564  69.4274445   6.6519341  40.5054703  68.6371231   6.2020988
  41.6538963  69.6215897   6.2561445   3.0520682  28.7939587  78.9218063
   2.2196178  28.3226376  78.8884125   3.1865170  28.9770355  79.8516693
  75.7407074  33.9834328  27.8501091  75.0547028  34.5288887  28.2349548
  75.5510864  33.9866142  26.9118843  55.7476845  71.0599060   4.8889847
  55.9264717  70.1293869   5.0246525  54.8532143  71.0848694   4.5490913
  33.7119751  12.2540550  11.1926699  34.4479256  11.7258482  10.8834686
  34.0739403  13.1346722  11.2913084  51.2712517  69.7578201  54.4418526
  50.9532471  69.0065536  54.9425507  52.1010551  69.4621582  54.0673714
  19.9357681   8.3815479  17.5108471  20.2010040   8.4490404  18.4280853
  19.9977646   7.4473462  17.3117142  82.5170288  37.1282158  47.2127037
  82.8925171  37.0286560  48.0875359  83.2030182  36.8190842  46.6210251
  10.3942232  16.1831455  16.7576599  10.8375587  15.5664597  17.3402252
  10.3729210  17.0041122  17.2493858  81.2195969  16.7213421  50.5358582
  81.8708344  17.4081573  50.3930359  80.3868790  17.1268921  50.2942963
  52.4790039  25.4671955   2.1367075  52.5598564  25.3154182   3.0783327
  52.7684326  24.6473846   1.7362398  45.8384666   1.6972274  36.4090424
  46.4071388   2.2813954  36.9106293  45.5380936   2.2296324  35.6724625
  41.0980759  59.6388588  68.9500198  41.8501625  59.1350746  69.2611542
  41.3814468  59.9975891  68.1090393  64.5339432  20.5379009  84.3195953
  63.8527565  20.3370113  83.6778336  64.4550247  19.8466415  84.9769897
   0.5800774  37.2755890  10.4713087   1.4898080  37.2008362  10.1831532
   0.3908911  38.2128372  10.4264994  40.4694710  10.1188021  87.0382233
  40.9458389  10.8229122  86.5983047  40.0956306   9.6007595  86.3254089
  76.4250641  20.2661762  27.3295135  76.0297241  20.9445248  26.7819920
  75.9261703  19.4745827  27.1277313  19.6611671  60.3293037   3.3814404
  20.0003319  59.4342728   3.3706548  18.8275375  60.2639427   3.8472939
   8.3329830  68.4336853  25.2916260   8.8637695  69.0235519  24.7563114
   8.5277510  68.6882782  26.1935558  46.2190475  67.8905182  87.5732346
  46.2649994  66.9347687  87.5475235  45.9551125  68.0935593  88.4706421
  77.5875549  64.3979034  45.9855690  77.1911011  64.6009521  45.1383247
  76.9636002  64.7343597  46.6287727  36.3556786  42.6579361  28.5208187
  37.2644348  42.8123360  28.2628403  36.2156525  43.2422333  29.2659492
  45.4452248  38.4763794  50.5620270  46.2757187  38.4454231  50.0871048
  45.6505928  38.1216240  51.4270134  30.8215485  54.5422783   5.0922546
  29.9963970  54.2826157   5.5020514  31.4776211  53.9713898   5.4921165
  17.7489300  56.3368607  52.0255547  18.3987236  55.8777199  51.4933929
  16.9439373  55.8323059  51.9087524  55.5611420  69.1427917  57.3209686
  55.5102234  69.3953629  58.2428398  56.3629265  69.5577469  57.0028763
  27.2790947  25.8832302  76.3867340  26.6604042  25.8831425  77.1171112
  26.8965759  25.2808361  75.7487411  50.2010193  68.8016891   3.9394405
  50.7203140  68.7028427   3.1414454  50.7360420  68.4009171   4.6245422
  44.6386757   7.1602092  78.4215546  44.9821854   8.0533323  78.3978424
  45.3743706   6.6286201  78.7255173   4.4308691  37.1175995  50.9961586
   5.1973338  37.5192032  50.5869179   4.6820035  37.0011749  51.9124603
  80.1980438  23.0235672  85.1143112  80.2422180  22.1960163  84.6353149
  79.2973328  23.3234539  84.9917603  -0.0538389  50.9556923  24.4599056
   0.1039037  50.0195312  24.3376522   0.4324999  51.1788902  25.2535629
  30.4747314  71.2462311  49.7191658  31.1589508  70.6541214  50.0313797
  30.0034103  70.7399216  49.0575485  74.2920151  40.2397156  24.1323624
  74.4102554  39.3656769  24.5042591  74.2834244  40.0980721  23.1857395
   8.2291422  18.4859695  83.8809586   9.1604071  18.6580772  83.7418213
   7.9318051  19.2091274  84.4330978  10.5516024  56.7853394  43.5618591
  11.4564304  56.5075912  43.7045937  10.1761904  56.8394165  44.4407043
  71.1083984  23.4206676  12.6346617  70.7905426  23.4922562  13.5347042
  70.6085892  24.0783978  12.1511154  13.3578463  66.7979279  80.9729156
  13.0060482  66.9528732  80.0962982  14.3022146  66.7146759  80.8407440
  81.6422119  39.1407204  35.9317474  82.0332947  39.7453194  36.5624237
  80.9635239  38.6830254  36.4278603  60.6300812   5.1973100  58.1193810
  60.3914642   4.8383293  58.9740295  60.7109795   4.4308228  57.5517654
  72.7357788  61.5860939  13.1918335  71.8694534  61.7254066  13.5743313
  72.6590881  60.7562332  12.7210035   7.4439936  49.3213997  62.4654045
   7.7831430  50.1997528  62.2930565   6.5659542  49.4684181  62.8170624
  82.2734451  35.6913567  71.4868622  81.7122192  36.0384026  72.1802750
  83.1623917  35.7832489  71.8297272  52.7569618  55.7043724  16.8358116
  52.7504654  56.6211433  17.1109810  52.1349373  55.2738533  17.4223042
  23.8011837  67.3324890  26.1753864  22.9334240  67.6785049  26.3839417
  23.6523857  66.7417679  25.4370575  20.4654179  51.2616005  76.9004669
  20.4821339  50.3563271  76.5899277  19.5360889  51.4559441  77.0221710
  53.4758377  58.9057236  27.9275665  52.5477486  59.0479774  27.7414265
  53.8173218  58.4876556  27.1370983   5.5979004  12.3556776  27.2756271
   4.7890077  11.8696728  27.1152420   5.7235260  12.8794422  26.4843502
  26.1338463  64.1726761  31.0032501  26.0092278  63.8407326  30.1141415
  26.5211468  65.0397415  30.8831062  38.3793640  67.4803619  34.6787376
  39.0143814  66.8636246  34.3145790  37.8612556  66.9573898  35.2905350
  73.2690659  52.4978065   1.9045007  73.6081390  53.3432045   1.6102910
  72.3338928  52.5316391   1.7031740  11.2663107   1.2428408  32.3988266
  10.8441629   0.8102435  33.1410446  11.0550661   2.1697900  32.5100594
  19.8556900  59.4931145  61.6162987  19.7971382  58.5847855  61.3200912
  20.7093334  59.5505180  62.0455170  23.7384338  41.6182899  75.4108734
  23.7649117  42.1435890  76.2106171  24.5339909  41.0872192  75.4466858
  66.4377747  39.4476128  64.5834732  66.0015106  38.9207954  63.9138718
  66.7734909  38.8073578  65.2108536  10.0963030   6.2614207  42.3925056
  10.5464478   5.4881697  42.7326279   9.3747482   5.9087782  41.8717041
  36.4411964  51.8784409   0.6035905  36.0962677  51.0152245   0.8318666
  35.7028847  52.4735260   0.7339729  54.3300819  64.5448837  37.0560226
  53.4092255  64.5951157  36.7996407  54.8052292  64.9280777  36.3187141
  80.6037292  63.7012520  77.7673874  79.8966599  63.3053780  77.2579041
  81.1989136  64.0626373  77.1105881  70.1638641  46.5401230  52.6444778
  70.5727997  46.8186760  53.4638748  70.8868637  46.1933060  52.1217651
  71.6537933  47.8999405  58.7922935  71.3391647  48.7359962  59.1361694
  71.7460709  47.3426170  59.5650215  48.8092346  31.3301373  15.6026554
  49.4862328  32.0035744  15.6688919  48.0938950  31.7553482  15.1296663
  54.5599709  71.0083618  21.4176197  54.6394348  71.9579926  21.5077896
  54.8093605  70.8322144  20.5104237  19.8283291  48.3543777  59.0887794
  20.2167549  49.0245285  58.5264130  19.3791542  48.8482590  59.7747498
  57.5357094  54.3258858  31.6778374  57.4800415  55.2092285  32.0423088
  58.3409462  54.3306160  31.1603394  78.8080826  54.4768524  23.7354431
  78.5195084  53.9851913  22.9665318  78.5367966  55.3777580  23.5593548
  31.5264206  13.0466709  83.9477081  32.4234467  13.1893377  83.6456833
  31.6095791  12.9167261  84.8923874  42.3915672   2.6028287  29.0625191
  41.8441277   3.3079493  29.4079819  43.2495155   3.0071158  28.9332581
   8.7440748   3.8884652  60.6355247   7.9877248   3.5666971  61.1260681
   8.3662558   4.3258553  59.8725243   2.1528132  35.7344704  38.5962486
   1.3542546  35.5339699  39.0844460   2.4950476  34.8794785  38.3352966
  64.6531601  23.8459644  72.7884674  64.1969452  24.1355324  71.9983749
  65.0325851  23.0002594  72.5496063  66.8532333  13.5575161  37.7271042
  66.0908279  13.0413685  37.9889565  67.0806961  14.0619459  38.5081558
  50.5112686  71.4117279  52.2660179  51.2995872  71.9349594  52.1210365
  50.7643127  70.7784348  52.9376869  15.5466499  29.7095890  17.4213772
  15.8120518  30.6141014  17.5876656  15.3379669  29.3582268  18.2869549
  60.5466423  66.6313400  72.2288666  61.2694550  66.1613159  72.6446152
  60.5143394  66.2817535  71.3383713  38.8565674  67.8785400  61.8837700
  37.9218712  67.7535706  62.0479584  38.8907471  68.4375534  61.1075172
  72.1629028  57.8525772  85.8805084  71.6679993  58.2701149  86.5854645
  72.8690033  58.4688721  85.6859818   4.5654206  25.3323326  28.6854267
   3.8803194  25.9664497  28.4738522   4.3662505  24.5729084  28.1378536
   5.2594414  35.0680084  79.9548035   5.9018383  34.5654716  79.4537888
   4.4484253  34.9880524  79.4527130  65.0071335  69.2392654  44.4040489
  64.4670944  69.0571747  43.6349983  64.4275818  69.7195053  44.9954224
  76.8002396  24.2778149  45.5127945  76.3752289  24.0157394  46.3294411
  76.9000320  25.2267799  45.5885315  58.0673943  61.7005882  79.7295151
  57.9575119  62.1961174  80.5410614  58.1606331  62.3694992  79.0512085
  17.1608238  57.5042343  24.1457176  17.7733173  56.7688255  24.1298046
  16.7867775  57.4853897  25.0266075  61.8968048  37.2878036  17.9763603
  61.0230331  37.5482368  18.2677917  62.2586403  38.0755997  17.5705490
  16.9455853  68.1361923  82.9902267  17.0470505  68.0752563  83.9400864
  17.8402023  68.1045456  82.6512680  78.9921036  36.9769402  16.9950237
  79.7037735  36.4077988  17.2880039  79.1936111  37.1592560  16.0772076
  53.3742828  18.1997414  38.4789848  53.2794533  17.8543701  37.5913124
  52.9836998  19.0727291  38.4393234  48.7889137  69.3984985  87.6208038
  49.4286690  68.6931839  87.5234604  47.9882812  68.9580078  87.9057465
  42.8808250  13.2649231   3.9937119  43.0422592  12.7329664   3.2144856
  42.4923706  14.0721140   3.6564035  53.3727303  43.1188164  86.4392014
  54.3111610  43.0548439  86.2617569  53.1616211  42.3103867  86.9062195
  57.9409103  69.9649429   0.0376756  57.3866234  70.0516052   0.8132326
  58.5764732  70.6763000   0.1168188   4.2148352  34.2904701  86.9469070
   4.8042812  33.7211723  87.4415665   3.5997314  34.6238899  87.6001358
  43.8228111   0.1418447  12.7379131  44.5248184   0.7080997  13.0584955
  43.2761536   0.7174758  12.2030783   0.1171394  37.1182365  76.9642563
  -0.0888193  36.8279190  77.8528061   0.4655360  38.0027504  77.0759964
  19.0345554   4.2286315  61.4602470  19.9505825   4.0157409  61.6385841
  18.9871426   5.1800489  61.5539932  39.0306320  51.8343086  82.7430801
  38.1842461  51.6157990  83.1330948  39.3695183  50.9985046  82.4224167
  29.4943218  34.5162926  20.6876755  29.2623844  33.5898285  20.6235924
  29.3752575  34.8549347  19.8003330  52.2433853  10.7795124  59.8157578
  51.5411491  10.9911680  59.2006989  52.6288376  11.6265202  60.0398903
  83.2986145  47.1954346  27.5367012  82.3446579  47.2734070  27.5475178
  83.5456238  47.1490326  28.4603176  52.1072845  27.9130917  63.4841461
  52.7821045  27.2792034  63.2411652  52.5896225  28.6311302  63.8940277
  82.7111588  62.9535828  79.8965530  83.1671982  62.1782990  80.2239532
  82.0774155  62.6104698  79.2665710  76.4207001  25.6578960  21.5687504
  75.7463989  25.9616070  20.9610481  77.0373154  26.3877468  21.6265736
  79.3329620   6.9859743  73.8254776  78.7754059   7.1728148  73.0701981
  80.2085800   7.2570047  73.5496750   2.5023530  32.5410576  88.5782776
   1.8096046  31.9095554  88.7720261   2.4552839  33.1752281  89.2937088
  56.3359184  52.5559158  66.3420639  56.0640526  53.2857475  65.7855911
  56.5483780  52.9617615  67.1825333  57.0169868  27.3121395  10.5361481
  57.9259720  27.5644245  10.6984234  56.9956512  27.0769463   9.6085377
  82.0635147   6.5540528  41.6995544  82.8362045   7.1102080  41.7989616
  82.3836060   5.7798929  41.2364655  76.2014618  46.3118706  39.5753860
  75.8462372  47.2004700  39.5543518  76.7920685  46.3078003  40.3286438
  35.2240219  50.1535339  44.4217911  36.0026932  50.3589363  43.9043808
  34.5001488  50.2104721  43.7980919  11.6136703  33.8356209  71.1901703
  12.2748699  33.5232124  70.5725555  10.7783728  33.6481209  70.7619781
  79.6750946  33.1049004  55.7504845  80.1316528  32.8316994  54.9547844
  80.1553040  33.8772621  56.0489578   5.8873820  23.3969860  32.8552094
   5.8755193  23.3220673  31.9010201   5.0330429  23.7673054  33.0770226
  16.2129288  63.0677948  51.9260292  16.6043606  63.8406754  52.3330612
  15.6582003  63.4189491  51.2294693  53.6121712  60.1937523  21.1764793
  53.2735176  59.8153267  21.9878616  52.8371735  60.3188324  20.6287918
  41.7500420  47.7960968   7.7701740  42.6930580  47.7871361   7.6062365
  41.3941956  48.3684006   7.0904126  29.9122181  42.3266945  79.6540070
  29.0114765  42.6352386  79.5555496  30.4329929  42.9375916  79.1326294
  23.4808731  54.5226021  45.0756531  23.9967594  55.3224640  44.9740868
  23.3042030  54.2361412  44.1795731  19.7050781   2.0884559  49.3071365
  19.1405392   1.4942732  48.8126945  20.2325935   2.5280366  48.6402550
  75.7196960  57.5839424  43.0938873  75.0950851  57.6627884  42.3728638
  76.1786270  56.7612267  42.9243240  22.8061924  36.2907867  72.6858139
  22.6425591  35.4023857  72.3692780  23.6745815  36.2463150  73.0859985
  83.7105255  66.2807922  60.3628540  82.9500046  66.8302612  60.1733093
  83.8004990  65.7218323  59.5910378  12.3056278  66.3288651  58.2722740
  11.9892178  67.0395889  57.7146111  13.2529564  66.3206406  58.1354065
  48.9045830  58.2010651  33.5513916  49.6891060  58.6135368  33.1899719
  49.2053070  57.3482246  33.8651810  37.9218102  14.7350760  12.8233948
  37.9446945  15.0817022  13.7153358  38.8342400  14.5248175  12.6246595
  61.7365913  68.7357483  13.5422096  61.4851913  69.6558609  13.4620714
  60.9825287  68.3166733  13.9569387  63.7824936  42.3494225  85.6652908
  63.5252151  41.6657906  85.0466766  63.3293037  43.1342010  85.3571167
  77.8512573  68.4165421  21.5957756  77.4861145  67.5996552  21.2557716
  78.7705002  68.3970871  21.3296013  57.3502121  22.0223770  27.5039501
  58.0213547  22.3560009  28.0993481  57.4767914  22.5210648  26.6967831
  42.7321358  64.8337555  39.5161095  41.9607391  64.3482819  39.2237167
  43.3999138  64.6413879  38.8578529  47.5899010  37.4788284  23.8415661
  47.9392357  38.3573494  23.6919098  46.7685127  37.6244469  24.3109798
  83.0338669  54.3134918  43.4098358  82.1301498  54.5824966  43.5746498
  83.3507004  54.0054092  44.2589149  32.9912910  68.5816879   4.0786695
  33.6952667  68.1538086   4.5660782  32.2599754  67.9657669   4.1238523
  49.4354210  70.1564865  73.0092850  50.3543510  69.9418793  73.1697235
  49.3132477  71.0109406  73.4230652  22.6176434  44.0796471   9.9632826
  22.8560238  43.3109169   9.4451542  22.0342579  43.7396851  10.6417503
  62.3434410   2.1254566  33.2738457  62.0802841   2.9593332  33.6632423
  61.8434906   2.0731399  32.4592628  38.7587318  37.1744194  80.8746490
  39.0941582  37.7382050  81.5716858  39.5242805  36.9814796  80.3334045
  70.5775452  25.6269436  31.5991650  71.4239273  25.4555416  32.0120773
  70.2453079  24.7602787  31.3652000   3.5324812   3.6531610  85.5806961
   4.1751733   3.9864314  84.9545135   2.8664951   3.2305779  85.0383682
  15.1718369  61.6258583  38.1912231  15.4388895  62.1879463  38.9185295
  15.0322084  60.7673187  38.5907860  80.8425598   5.1221533  35.7407608
  81.3937454   5.5221477  36.4133949  81.2106247   4.2470131  35.6187363
   3.4507504  24.0410557  63.5226517   3.5785966  24.3740368  62.6343880
   3.5158308  24.8160648  64.0806427  78.8618698  13.7035208  60.8108635
  78.3939133  14.2534990  60.1825600  78.8306198  12.8256521  60.4305992
   4.4217892   6.4239898  66.1890259   3.7195563   5.7936311  66.3494873
   4.2194757   7.1600738  66.7665024  46.0634270  71.4593124  32.9563179
  46.9293251  71.8615952  33.0242691  46.1163979  70.6815720  33.5117912
  18.9284477  61.0707741  57.4668388  18.8423824  61.3454742  58.3797302
  18.0328655  61.0781822  57.1290398  22.3323860  55.2783661  62.2678146
  22.2496052  56.0167503  62.8712807  23.2473927  55.0079231  62.3443336
   2.6330061  22.9869633  83.9751205   2.5150585  22.6303215  83.0947113
   2.7732623  22.2183399  84.5280914  70.0539703  61.1245384  68.9560471
  70.8657150  60.9343491  68.4858093  70.0175171  62.0802841  68.9941177
  78.2716370  67.2736893  48.5543709  77.4663162  66.8432312  48.8414230
  78.8432465  67.2486038  49.3217468  35.3237343  66.7707214  86.1405106
  36.0176468  67.0255585  85.5324249  34.8752556  67.5902100  86.3491821
  20.5962753   5.7657695  73.7153625  20.9884567   5.6823859  74.5845413
  20.6586285   4.8877778  73.3392258   6.2026072  64.1150284  29.4685020
   6.1357136  64.4881821  30.3474293   6.4285569  64.8583145  28.9092960
  25.8497887  59.5239449  10.9078178  25.5063210  58.6780205  10.6202965
  25.0758705  60.0811501  10.9903231  57.7985649  62.3688354  49.5765991
  57.3284798  63.1751900  49.3643646  57.4920692  61.7351227  48.9279861
  19.3878231  62.8468704  27.8461819  20.0905037  62.2424698  28.0852833
  19.5589561  63.0624771  26.9294147  67.3730774   2.4021409  33.8611717
  66.6798248   1.7428137  33.8914948  67.5369797   2.6197209  34.7787895
  31.8834648  18.1276550  18.0423203  32.0047340  18.9374542  17.5465870
  31.6561432  18.4191055  18.9252777  55.5850296  51.2462044  46.5275078
  54.6527252  51.2879448  46.7403526  55.9484367  50.6296120  47.1631050
  75.7501907  24.8224106   8.5045233  74.9836578  24.2630100   8.3790751
  75.3922882  25.7076588   8.5714216  71.4241867  54.6418457  21.3350506
  72.2871857  54.3375511  21.0542145  71.5455704  54.8949661  22.2501621
   0.2075685  24.2862511  16.0697327   1.1090322  24.6080437  16.0764580
  -0.2326074  24.7926350  16.7524128  49.1140404   9.3643017  62.7375870
  49.4581223   9.3913507  63.6303940  48.1637955   9.3315821  62.8480110
  42.8112564  50.3924141  22.6352196  43.1883469  49.6270523  23.0691051
  42.5693893  50.0787811  21.7638016  52.7516327  61.9122505  29.0268898
  52.1592712  61.9790688  29.7758083  52.2326469  61.4795990  28.3488789
  79.1208344  33.6299667  13.4746447  78.4268188  34.2827759  13.3829279
  78.7392120  32.8241425  13.1264400  83.6656723  49.5407066  68.5720749
  84.3889084  50.1539345  68.4412308  83.6486282  49.3885689  69.5169525
  80.7838287  11.4991865  24.7276726  80.9829865  10.6300602  24.3795528
  80.5262451  11.3402224  25.6357536  58.8697166  54.2865486  37.1118240
  58.9335976  53.3414726  37.2495995  59.1406631  54.6691093  37.9463730
   2.1776321  32.6765480  31.7716370   2.0956664  32.6167412  32.7234459
   2.9187045  32.1092682  31.5589428  69.9052200   4.1601768  65.8411560
  70.1754684   3.6775928  65.0599289  69.7836533   3.4855890  66.5092773
   4.4780583  63.5005379  75.6825943   4.8179626  63.5005569  74.7877731
   3.9950976  62.6773186  75.7553253  52.1252937  61.4965897  69.6874008
  52.7142715  62.1260948  70.1034088  52.0767746  60.7684517  70.3068314
  48.7761383   3.5830891  22.8011093  48.6005478   2.6557279  22.9604893
  48.7202721   3.9895177  23.6659374  58.1060448  69.3754120  64.3270874
  58.2642632  69.8346481  63.5022812  58.9550858  69.3774872  64.7690735
  74.1623993  26.7093353  71.0558014  73.7334595  25.9276123  70.7077255
  74.3232727  27.2566013  70.2871323  37.5917778  66.0000534  75.3431320
  36.7636261  66.4738235  75.4202118  37.7894859  66.0140991  74.4066772
  40.5055008  57.4920197  40.0716400  39.6792641  57.2980843  39.6289711
  41.1786079  57.2895546  39.4218941  78.7368240  54.9015770   6.8262296
  77.8392868  55.0906143   6.5525117  78.8898849  55.4881363   7.5670080
   6.8240991  22.7856693  15.0501595   7.1357732  23.6738548  15.2239866
   7.6069822  22.3056793  14.7800922  18.8750553  17.4547329  78.3680725
  19.4031677  18.1194820  77.9259872  17.9729366  17.6676598  78.1291580
  58.7830391  49.2229424  16.4869003  58.6668587  50.1730156  16.4963913
  58.2402611  48.9080391  17.2097130  78.2289658  10.8215370  59.4745255
  77.5128632  10.9094591  58.8454857  78.9625778  10.4889984  58.9573593
  72.9739532  48.2727509  79.8334122  72.2930222  48.2174454  80.5038681
  72.5811081  48.7973099  79.1357498  71.1317215  25.6263199  60.4157104
  71.3733215  25.9120750  61.2967377  71.9112701  25.1786346  60.0869217
  73.1667480  31.4250889  51.5951042  72.5134048  31.3531494  52.2909546
  73.2453461  30.5366726  51.2475853  37.5914764  50.4028664  13.6268578
  37.6840973  50.8375473  12.7790937  38.3934288  49.8888931  13.7213697
   9.9460506  51.0157013  54.2103500   9.6005201  51.5858421  54.8972130
  10.7889042  51.4050179  53.9774132  24.2145844  64.8293228   4.7241206
  23.5394535  65.2124481   4.1640759  24.6102753  64.1429596   4.1869416
  58.0198746  32.9299316  73.9955215  57.3327637  32.4707375  73.5125580
  57.5572624  33.3739471  74.7062073   1.7376750  66.2592239  47.8140221
   2.4270387  66.8976822  47.6312981   0.9226259  66.7497864  47.7078094
  85.8256531  31.3030338  33.7045555  85.8858643  32.0541077  34.2948837
  85.8778610  30.5405941  34.2809143  25.4972248  13.7678833  83.0846863
  25.8348293  14.5688801  83.4855042  26.1692314  13.1097031  83.2619858
  82.5199890  46.4300499  10.0926828  82.6742172  47.1910553  10.6524258
  83.0643539  45.7398338  10.4714947  82.8045044  11.1801271  83.6411438
  82.3114014  11.1291265  84.4599686  82.4117737  11.9152718  83.1704407
   2.5290706  43.3944206   3.8984373   2.2496631  44.1200752   3.3402321
   2.4778366  43.7432976   4.7883210  60.6964378  65.8129349  76.0254517
  61.4641190  65.2464981  76.1032486  60.2727394  65.7611160  76.8822021
  82.0969391  50.9210739  45.6477165  81.6961212  50.2025337  46.1368752
  82.9274826  51.0817566  46.0956116  60.2952614  42.0711098  34.9821739
  61.0535088  42.6552849  34.9879303  60.6627502  41.2001801  35.1327133
   9.2440052   4.8944292  15.9715033   9.9911642   5.3514886  15.5853920
   8.4920750   5.4511242  15.7692080  55.2242508  36.4634323  25.7083454
  54.8172302  36.4951057  26.5741177  54.5073051  36.6424904  25.0999374
  43.9960747  60.6520729  24.6808052  43.2252350  61.1343155  24.9799385
  44.2312279  60.0931396  25.4214344  22.5064106  37.4815636  86.6506424
  21.9981823  38.2044029  86.2826157  23.0948505  37.8985558  87.2799911
  65.1186142  21.1775932  34.3248444  64.8249207  21.8329487  34.9576797
  65.7497559  21.6417065  33.7748451  11.9256840  38.4208183  62.4839554
  11.6153488  37.6013145  62.8691025  12.3547783  38.1557388  61.6704178
   1.2868240  58.7445488  57.4036827   1.0365465  59.3068237  58.1367874
   1.9964621  59.2183075  56.9698601  57.0245056   8.3798237   7.6128459
  56.7247047   7.5775495   7.1854038  57.1186104   9.0106821   6.8991270
  77.2974167  57.4369011  20.6054115  77.5414276  56.8382607  19.8994942
  77.5895386  58.2965202  20.3021717  54.1493683  31.9534931  11.8016291
  54.1246262  32.9064865  11.8877764  53.9576607  31.6284294  12.6812954
  36.9750137  40.4091339   0.6835994  37.7952690  40.8010941   0.9832425
  37.2168045  39.5222664   0.4167067  28.8782597  51.5758972  55.3491936
  28.5397644  50.8015938  55.7987556  28.1309261  52.1722603  55.3036728
  57.0484352  48.0318069  27.3337669  57.7290459  48.7041740  27.3033352
  57.1285591  47.6492767  28.2075424  32.7501755  68.5060272  49.1809654
  32.4442596  67.6737747  48.8204117  33.6675453  68.5603180  48.9131546
  27.5090370  49.7940521  22.2138348  28.3062630  49.4071541  21.8519344
  27.1754818  49.1324463  22.8198452   5.9848733  39.1069336  30.8546944
   5.3822188  39.6346245  30.3306885   6.3072968  39.7077713  31.5264587
  82.2553940   6.0242472  10.2458467  82.7578201   5.3560705   9.7796478
  81.4958191   6.1865277   9.6864309  17.7134533  42.2343445  24.4514885
  18.2906914  41.6149597  24.8980217  17.9138489  42.1213913  23.5223408
  80.9092102  41.5036392   0.3765816  80.4093475  40.9251900   0.9525738
  80.3270340  42.2471390   0.2199989  83.6649323  28.4053955  39.2438889
  84.3226700  29.0564899  39.4881897  82.9056778  28.6164055  39.7872543
  53.0271111  28.2305641  39.1329308  53.8664055  27.7724209  39.0891380
  53.2013206  29.0873642  38.7433510   8.9173393  68.4793167  52.6862183
   9.1234760  67.8296967  53.3583336   9.5127382  68.2750626  51.9650993
  69.3641205  36.8372726  47.7836838  68.7123184  36.2150078  48.1064415
  69.4113159  37.5090790  48.4638939  36.4493256  42.5320244  81.3437195
  35.8909111  42.9471474  82.0010452  37.3137436  42.9178658  81.4856110
   8.9945459  54.0954475  10.7930164   9.8836126  53.7453842  10.8500090
   8.9396620  54.7276421  11.5096397  21.8372974  63.4831619  59.8562965
  21.9120483  63.2029152  58.9440994  22.0362644  64.4192429  59.8363457
  76.8552475  64.4944611   1.0728801  76.4873428  64.8085938   0.2469272
  76.1004181  64.1675262   1.5623400  79.1580276  70.7211227  77.7699738
  79.1422729  70.9814911  78.6909485  79.7521820  69.9711227  77.7432327
  28.1328945  27.6147842   1.3444691  28.0869980  28.3799725   1.9177176
  27.4444809  27.0327721   1.6663069  60.7706146  48.1997681  50.5753517
  60.2740326  47.3833275  50.6306992  61.5790558  47.9582176  50.1233482
  22.8210907  49.6237679   3.9585271  22.9578228  49.3041000   4.8503509
  21.8870106  49.4909134   3.7970474  37.8652267  44.5509567  14.0211239
  37.1152611  43.9695206  13.8957605  38.6267738  44.0053215  13.8247471
   6.7980103  69.8980789  34.0337944   7.5281763  70.4213257  34.3643951
   6.0717149  70.1009369  34.6233482   1.5331630  49.8485451  78.1301804
   1.5526501  49.3762321  78.9625092   1.0489008  49.2721596  77.5389938
  49.2010155  34.6980095  61.5434685  49.2921677  34.3928871  60.6407928
  48.5204582  35.3698158  61.5016403  86.0152664  32.3075981  41.0306168
  86.3977127  31.4560928  40.8187027  86.3011093  32.4820557  41.9273300
  82.2254257  33.0487213   0.1210824  82.3694534  32.6685486   0.9876592
  83.0817719  33.0062065  -0.3044609   3.9128425  66.4340591  21.4342556
   4.2937846  65.8698044  20.7614040   3.8350534  65.8701859  22.2038155
   8.8150940  56.4146957  31.1340408   8.2541933  57.1150208  30.8006210
   8.8056774  55.7513008  30.4440784   0.4386080  38.4215584  22.1376991
   0.6758424  38.0260010  21.2989597   0.5927915  39.3579941  22.0130138
   5.5124364  64.0452347  73.2781372   6.0534353  63.5676575  72.6492767
   5.2147546  64.8187027  72.7992249  40.8879700   2.3345444  73.8965607
  40.9301758   2.3482754  72.9403839  41.7372055   1.9868330  74.1688156
  24.9377956  54.6478043  50.0504570  24.4847050  54.4909821  50.8789177
  25.5050240  53.8848000  49.9395142  33.5225487  64.6384354  24.4197559
  33.6683197  65.5790329  24.3184986  32.9587288  64.5649643  25.1897850
  75.0063095  59.7717476  15.9264622  75.4307480  59.7719727  16.7844162
  74.3210144  59.1073532  15.9984388  50.4468803  25.7127056  11.6475239
  50.9803734  26.3260899  12.1528721  50.5417137  26.0036755  10.7405643
  78.9081650  54.0611267  84.6383438  78.8850479  53.8877716  83.6972580
  79.6678009  53.5713806  84.9535141   6.2546377  54.7368774   5.7540426
   5.4516020  54.4910927   5.2947426   6.7951303  53.9472198   5.7307687
  52.2777672  39.5382652  81.7374496  51.8125801  40.2278938  82.2109985
  53.2014847  39.6935272  81.9346161  10.1096449   6.6808982  57.8035011
  10.1888008   7.4875345  57.2942810   9.9714231   6.9780016  58.7028656
   9.0379763  17.2556000  30.0088005   9.6421995  16.5636673  30.2778244
   9.0728512  17.8942642  30.7209282  17.7822838   2.7897825   3.0761166
  17.1316338   3.3061438   3.5517826  17.7342892   3.1138308   2.1767161
  74.2584305  35.8458290  65.9257507  75.1655655  35.6773605  66.1806183
  73.8014221  35.0252991  66.1104279  56.5185776  30.8986664  72.5807343
  56.0561905  30.0755653  72.4228363  56.6073456  31.2937183  71.7133865
  40.4475174  45.0054245  43.1907845  40.9544106  44.6180420  42.4771843
  40.4520493  44.3384552  43.8773460  69.8456345  61.3466873  56.0824280
  69.4399643  62.0539360  56.5838890  69.2992020  61.2631760  55.3009758
  83.2126465  21.7339802  37.6328850  83.0871201  21.3927307  38.5183372
  82.3277969  21.9265633  37.3227463  76.2082138  14.0020075  51.6015892
  76.8479919  13.5080843  51.0887909  76.0140533  13.4376898  52.3499756
  53.8065987  52.7226448  82.9673233  53.2724991  52.4598465  83.7169266
  53.8909760  53.6721268  83.0544739  46.0164795   2.1369720  40.5304222
  45.5650177   2.0768645  39.6885223  46.7582893   1.5377129  40.4477272
   1.9903858  41.9796219  72.5866013   1.9793947  41.0224876  72.5857468
   2.4099896  42.2135925  73.4145050  54.2355995   7.4953518  44.3665009
  53.3680878   7.8975425  44.3229179  54.7605057   7.9892707  43.7366180
   4.3257794  69.9892349  25.5066986   3.6996074  70.1815948  26.2046528
   4.1349854  69.0853195  25.2561741  48.2905655  38.9915009   2.5603604
  48.9099655  38.6088142   3.1817527  48.0923386  39.8556404   2.9211917
  33.0084686  62.4826279  61.1039124  32.4041672  62.9445076  60.5227776
  32.7379341  61.5659714  61.0511818  43.6722679  60.6777229  15.8735361
  43.5429649  60.8725586  16.8017349  44.5876274  60.4048157  15.8113384
  77.7031403  48.8830299  56.5751839  77.7916641  48.8501205  57.5277100
  78.6023102  48.8421860  56.2495193  83.5894775   9.1446581  80.7464981
  82.8592987   9.0912380  81.3631210  84.3373108   9.4075527  81.2830276
  27.3334923  61.2517128  58.5298729  27.7635365  60.4062767  58.6584435
  27.1198959  61.5487556  59.4143906  32.5058022  57.9818306   7.9189148
  31.5633984  57.9924431   7.7516041  32.9038734  58.0136147   7.0489945
  78.3484497  18.1741543  72.0867004  78.3413925  17.2344856  71.9044876
  78.2038574  18.5845490  71.2341156  34.0484962  50.0547142   5.1096025
  34.8967819  49.7216492   5.4023566  33.5190582  49.2699738   4.9677930
   4.4209251  53.0396004  53.6752472   4.5881276  52.2625656  53.1418686
   4.4650106  53.7687454  53.0566711  24.6108971  68.7593994  32.3002739
  24.6836166  67.9335556  32.7787323  24.1490974  69.3443527  32.9009514
  23.3168449  36.7585449  25.6679688  23.6543350  37.5721550  26.0426292
  23.1961632  36.9546585  24.7388802  15.9571714  61.4626617  71.2469254
  15.8607597  61.9688148  72.0536118  16.8295193  61.6894150  70.9247055
  52.3453178  65.0503387  64.0956116  52.7716637  65.1986465  63.2515335
  51.5528297  65.5860596  64.0610580  67.5680466  22.7274761  54.7812500
  67.2855148  21.9346313  55.2371063  66.9856262  23.4126949  55.1091194
  82.2164001  50.2042999  40.9382210  82.3822479  49.5320892  40.2772636
  81.9639130  49.7138748  41.7205009  77.1865387  38.9360390  59.0210190
  77.4858856  39.7968826  59.3135452  76.5876465  38.6443901  59.7084045
  83.1543427  20.6590195  41.5448799  83.1109543  20.8702316  42.4774780
  84.0836334  20.5016155  41.3779373  41.2378349   5.3793693  63.4440536
  41.6398087   5.8474135  62.7122154  41.6589928   4.5198159  63.4389229
   1.7013152  56.9473839  32.2648659   1.3951150  57.8486748  32.1641388
   1.9235611  56.6692162  31.3763504   8.3653469  47.0443230  23.4857979
   9.1936626  47.0070038  23.9640579   8.6223755  47.0916557  22.5649681
   4.7343183  30.5383568  30.7011642   4.4234872  29.8598003  31.3004780
   5.0396619  31.2420444  31.2737217  70.3501740   6.8424902  70.5427170
  70.1366348   7.1545215  71.4220734  69.5481415   6.4182563  70.2377701
  67.0711823  31.6009388  30.3762169  66.6692047  30.9538231  30.9557743
  67.9980240  31.3625374  30.3572960  75.9066315  17.1107693   8.0698013
  75.8060913  16.4710846   7.3648701  75.5514755  16.6726818   8.8432198
  34.0818901  30.1226215   8.6367016  34.6327705  29.7984638   7.9241824
  33.8361931  31.0072727   8.3660355  15.9453077  50.1265602  30.0901947
  15.0393677  49.8995590  30.2998905  16.2643776  49.3863029  29.5740108
   7.6536794   0.3330311  16.5076733   6.7030969   0.3471557  16.6191425
   7.9276919   1.2350810  16.6733704  71.1658020  31.1480579  22.9133320
  70.9168167  32.0539551  22.7300587  70.4182205  30.7856979  23.3887768
   5.1734996  68.6657486  38.9719353   4.2588477  68.9254990  39.0822830
   5.1310649  67.7484360  38.7018204  23.7534218  65.8824921  11.0559196
  23.2509117  65.0700073  10.9959602  23.0942993  66.5618057  11.1984606
  62.4843025  39.7645264  40.5078812  61.7697525  39.3070755  40.9510345
  62.6920166  39.2115707  39.7546692  65.9864349  71.0250702  28.4573727
  66.0519714  71.3745651  27.5686722  65.9971237  71.7990265  29.0205021
   1.1972274  12.7476072  16.3473358   0.7411467  12.3972921  17.1125164
   0.5828605  12.6221867  15.6241112  81.9506073  48.1700172  16.9254875
  82.4677277  48.1668053  17.7309780  82.2387161  48.9546471  16.4590340
  33.3700256  30.8598042   4.8323541  33.8062248  31.4930420   5.4024191
  33.6435280  30.0064507   5.1688309  40.7512360  54.4244614  75.9121170
  39.9814186  53.8818741  76.0830383  40.8761024  54.3713417  74.9645844
   6.2807393  63.4042053  85.3307037   5.3910661  63.6966553  85.1327515
   6.8046560  64.2051849  85.3175354  70.9072266   3.1941013  17.1949520
  70.5680618   2.3246367  16.9822788  71.2345200   3.5338330  16.3620682
  70.1634293   8.3878717  22.6867142  71.0849152   8.5171089  22.4622345
  69.8877792   7.6454535  22.1490650  11.9851856   3.3815234  72.7296906
  11.2560606   3.7564802  73.2236633  11.8529291   2.4353349  72.7885742
  61.3262711  21.8889256  70.3079605  62.0792656  21.4619675  69.8993835
  60.5951729  21.6991825  69.7199783  57.1193619  38.8032265  29.0112724
  57.5739975  39.5831985  28.6931820  56.9002533  38.3136749  28.2184525
  83.8414230  29.2859135  32.5265350  84.0545731  28.3605881  32.4058304
  84.4464111  29.5844612  33.2055664  81.5412292  31.9222698  63.3800507
  81.5554810  31.3726254  64.1635818  80.8150864  31.5786324  62.8596001
  53.8738632  27.4194946  25.7655277  54.7156906  27.0728931  25.4698448
  54.0604286  28.3261490  26.0092602  76.6782837  16.1825848  49.8226242
  75.9532700  16.0798454  49.2061615  76.4525528  15.6097069  50.5554848
  46.3617477  12.7669935  44.6606445  45.7727280  13.2215328  44.0584106
  45.8034172  12.1302776  45.1068420  26.7974834  70.3437576  84.9462585
  26.0667915  70.7991104  84.5279541  27.5379944  70.4871826  84.3569336
  15.2606497  63.3809357  61.7352676  14.8543758  63.2805176  60.8744011
  14.9287348  64.2177200  62.0606155  54.3402786  69.9619675  16.0768852
  53.4765244  69.5786514  16.2293053  54.2150764  70.5442352  15.3275433
  77.2369690  43.6610222  85.4810257  76.3346634  43.7218246  85.1673737
  77.5335770  44.5695190  85.5347824  17.5316200  37.2353973  87.3796539
  16.8157520  36.8546143  87.8883438  17.9071407  37.9011841  87.9558029
  60.9185562  43.4382439  52.4457474  61.3553619  44.2854118  52.3577690
  61.6288452  42.7976189  52.4093971  -0.0106942   0.5035085  40.9545746
   0.0825867   1.1007582  41.6967506   0.7289988   0.7128345  40.3842506
  25.4640007  29.9275379  14.4166603  25.4728699  29.0706558  14.8431664
  26.1213799  30.4374866  14.8899832  62.8044205  48.9708977  16.0790596
  63.6275406  48.7131615  15.6639938  62.6916313  49.8900795  15.8369646
  49.5990791   2.8573563  53.5444221  48.9934807   2.4652653  52.9153366
  50.0023460   2.1101587  53.9863510  65.6920242   8.4699812  65.7878571
  65.1300278   9.1411095  66.1751328  66.5819397   8.7954931  65.9231873
  84.7144928   5.5404959  21.5936508  83.8211594   5.7051291  21.2918720
  84.9191360   6.2880325  22.1553841  34.6355286  42.4804688  15.7849770
  33.7770195  42.7650948  16.0983276  35.0985413  42.2017784  16.5750275
   4.8671665   2.2295175  65.6089325   5.4222326   2.9098394  65.9901047
   5.4733238   1.6700376  65.1233521  20.1257877  70.7478485  84.3338470
  19.6635609  71.4186325  83.8312302  20.9643288  71.1515808  84.5576401
  46.5792122   6.8153262  42.8320236  46.8557625   7.7114139  43.0238037
  45.8056221   6.6810489  43.3795280  81.6288986  52.3697739  73.7325592
  81.2729416  51.7262192  73.1198959  80.8623352  52.7127304  74.1918945
   1.3951552  41.1513596  21.6276054   2.1068547  40.5488777  21.8437767
   1.8279461  41.9941406  21.4910622  60.0059242  36.1131363  21.7828732
  60.7407913  36.1360245  22.3957977  60.3941460  36.3301201  20.9352684
  76.7306824  68.0342636  55.9936523  76.8435440  68.9761734  56.1213303
  77.3017960  67.8225250  55.2552605  10.6565952  52.5421410  75.6498032
  11.3315086  52.1624031  75.0872040  11.1124754  53.2229691  76.1446533
  44.5018044  33.7837868  12.0305204  44.9963646  32.9794922  11.8731852
  43.9442215  33.5791359  12.7811537  41.1660004  39.6203117  18.7318821
  41.8381729  39.5053024  18.0601749  41.2717896  40.5256805  19.0240364
   1.4078828  22.5955105  67.1769791   0.4652863  22.6077156  67.3430939
   1.5368857  21.8558998  66.5832062  62.6664314  16.9178162   2.7341256
  62.7035751  15.9704065   2.6027250  62.3561058  17.2637024   1.8972911
  63.2186737  54.9323654  72.0010071  62.6083946  54.2586365  72.3008194
  62.6595993  55.6685791  71.7527008  57.9346504  61.4292145  31.1864948
  57.7660713  60.5049324  31.3695736  58.3900414  61.4274330  30.3445663
  66.5436325  65.2164841   9.2790689  66.8467560  65.1409836  10.1838608
  66.9461441  64.4738312   8.8288651  22.1254501   7.8611455  70.4427261
  22.2165623   8.7353458  70.0636444  22.5049171   7.2753110  69.7877197
  69.8913498  50.1821823  64.8443451  70.2539062  51.0625305  64.9431992
  69.6894913  50.1096458  63.9114838  17.4093361  27.2586250  21.2400951
  18.1725998  27.5075188  21.7613525  16.9985771  28.0905018  21.0045261
  64.4791718  17.7871151  67.0776596  63.8007317  17.4335670  66.5023804
  64.3494568  18.7349777  67.0466309   0.9548137   0.3614027  68.3504410
   0.9097057  -0.5548626  68.6236725   1.6225049   0.3742526  67.6646881
  42.7117844   7.0481367   3.0762358  43.0242996   7.9157710   2.8197677
  42.7168922   6.5419264   2.2638586   4.7592816  41.8863831  27.3580494
   5.0949841  41.5929337  26.5110397   4.0335112  42.4706383  27.1386547
  18.4824429  35.9403381   1.5193470  18.0304794  36.7634201   1.7050787
  17.8934517  35.2632446   1.8523123  77.4782715   2.6038601   0.3523635
  77.5560150   3.2702978  -0.3303138  77.9434662   1.8449764   0.0003363
  43.6581078  25.4599285  10.5966549  43.7731361  24.7670460   9.9463348
  43.1299019  25.0565701  11.2855177  31.0754719  39.0197754   4.4410553
  30.3394413  39.0147209   5.0529914  31.8473015  39.1333122   4.9956923
  14.0346880   0.8898906  21.0686207  13.8798647  -0.0482849  20.9586735
  13.5903826   1.1116810  21.8869324  34.3121109   8.4323978  70.9645233
  33.8405800   7.7051611  71.3707428  35.0921326   8.5453024  71.5077057
  45.7686653  34.5698738  84.6312943  46.0370636  35.1643410  85.3318634
  45.5013771  35.1474686  83.9163284  13.4848337  40.0274582   9.4499474
  13.4797955  39.1796036   9.0057039  14.2634716  40.0018311  10.0060930
  22.1220207  48.5930710   6.4321361  22.3033695  48.3256912   7.3331647
  21.2092476  48.8809242   6.4468255  18.3254395  61.2714958  77.0616455
  18.2959995  60.3493004  77.3164291  18.1219349  61.2681847  76.1263351
  82.3641891  56.6602440  26.9218559  82.0502777  57.1777725  27.6633778
  81.7729645  56.8870964  26.2040672  79.5809937  12.6433134  78.5236435
  80.0193481  11.9266148  78.0649261  78.6563644  12.5423498  78.2975922
  79.4396896  52.7051392  51.0618172  79.9108200  53.5224152  50.8995323
  78.6976547  52.7324333  50.4577827   2.9245076  32.4461441  21.0782261
   3.0380590  32.0689583  20.2058334   3.7442315  32.2507324  21.5322056
   7.2275038  51.3846359   3.1611197   7.2992935  51.5288811   2.2175777
   6.3650074  50.9861717   3.2775588  64.5855865  19.7720261  25.7976704
  65.4037247  19.5719166  25.3428783  64.8586121  20.0393047  26.6753120
  81.1262283  12.2706966  35.5397720  80.9985809  11.4032898  35.1556587
  80.3808365  12.3835039  36.1295967  80.1635818  35.9636536  53.0824089
  79.3273544  35.7214279  52.6845627  80.2620087  36.8950310  52.8847237
  65.1720428  27.0947227  69.9405136  65.2865829  27.8841705  69.4114761
  65.6875381  27.2587185  70.7301941  10.0898876  58.5057907  67.4095078
  10.1847630  59.1326027  66.6923370   9.1459837  58.3630753  67.4795761
  28.5365944  67.0368576  88.4669876  28.7901306  67.9570389  88.3947754
  27.6361046  67.0104294  88.1434860  19.5392303  67.9103317  39.4601746
  19.0276413  68.5823593  39.9106026  19.5278797  68.1767197  38.5408592
  78.5014038  53.5465393  81.9395370  77.6817932  53.2624550  82.3442154
  78.3365555  53.4885483  80.9984207  49.2097702  49.0312653  42.3036118
  49.8750992  48.9730186  42.9893074  49.7088470  49.0575790  41.4872437
  21.7295094  39.5179749  68.9586563  21.4477444  40.3865204  68.6714783
  22.3367481  39.2261848  68.2786942  76.2477722   3.1379793   9.5783472
  76.7732773   3.5904067   8.9185085  76.7000275   3.3103533  10.4041691
  56.0518570  18.4259491  66.9799271  55.6596222  18.6700344  67.8182602
  55.5246887  18.8851395  66.3261185  12.0639095  71.2544861  81.6805267
  11.7770128  70.8124466  80.8814468  12.7149076  71.8897018  81.3823090
  66.7003403  27.0280304  45.8747482  66.0572052  27.0885773  45.1683884
  67.2152863  27.8313808  45.7993202  17.8427563  47.3587456  57.2940178
  18.1672306  47.1358528  56.4215126  18.6329880  47.4631691  57.8239822
  81.9004517  40.8773842  24.8804512  82.6363907  40.9280739  24.2704887
  81.7018890  41.7894287  25.0925331  77.7292480  12.4338589  47.0485687
  77.6775589  11.9887762  46.2027206  77.0052872  12.0676794  47.5565338
  61.5778580  32.8228111   8.5327682  61.9482231  32.1744919   7.9338150
  61.5696754  32.3852730   9.3840771   2.6827326  21.6566658  36.2706375
   3.5761542  21.5429478  36.5948257   2.2457671  20.8306351  36.4779205
  49.3990898  54.6607285  33.4215813  49.1744881  54.7540016  34.3473701
  50.1516342  54.0692253  33.4161072  36.3626060  31.5162945  88.8142319
  35.5153351  31.8662224  89.0897598  36.6074142  32.0494270  88.0578766
  43.9958115  59.2950745  47.6637344  44.1747246  59.4553299  46.7371597
  43.1670952  59.7447166  47.8289146  55.3535767  24.0300941  26.8685036
  55.7474174  24.0341473  27.7409172  54.4340782  24.2488708  27.0197945
  77.5715561  57.7503929  82.7770615  76.7856750  58.1025238  82.3591843
  77.3962555  56.8135948  82.8659821  57.6201706  70.6332932  22.5190067
  57.9536133  70.3530045  21.6666660  56.6936951  70.8179626  22.3648109
  84.5986023  45.5884933   7.3899212  84.8398285  44.7062798   7.1075382
  84.6336823  45.5519981   8.3457813   9.1279039  22.8225746  19.3034782
   9.5924082  23.4916668  18.8007011   8.5885601  22.3680840  18.6563473
   2.3654380  37.7756195  70.6108170   2.6506939  37.2702026  69.8496246
   3.1617296  38.2024345  70.9270172  36.6295815  47.0484581  38.6477470
  37.4963799  46.7202339  38.8868294  36.4726067  46.6946945  37.7722778
  52.0994911  66.1883698  24.1138783  51.6359291  66.3021622  23.2841816
  52.0976105  65.2426300  24.2615376  86.3163147  56.6245193  19.3727837
  87.2340240  56.7306023  19.6233711  85.8235321  56.9847870  20.1100750
   4.0294914   2.1645179  39.3289986   4.2162662   3.0465868  39.6504059
   3.8963132   2.2758055  38.3876648  78.3801346  43.1441193  82.3832245
  78.6654053  43.8148575  81.7627716  77.8097763  43.6102982  82.9944534
  56.0848083   4.6594057  62.2200890  55.6790848   4.3102579  63.0136375
  56.1892128   3.8979576  61.6495399   8.1291723  46.6684380  42.2750168
   9.0326986  46.7582130  42.5780220   8.0238733  45.7314720  42.1099815
  70.6156693  37.9051628  45.4859505  70.2893677  37.4361801  46.2539444
  70.4110870  38.8236389  45.6613846  81.8082275  31.4390278  16.2872639
  82.3168182  31.0569611  15.5720081  82.4201736  32.0284653  16.7280712
  33.5171661  48.9914856  84.9011765  32.6242332  48.6660118  84.7872849
  33.5479431  49.7938004  84.3800507  19.6498508  26.8972721  78.5295105
  20.5903835  27.0049515  78.6710587  19.4507999  26.0331154  78.8898544
  74.5094452  32.2496681   5.3613501  74.3323059  31.3456936   5.6215086
  73.6577377  32.6838989   5.4090142  16.7404976  18.6141148  65.0299988
  16.1570835  17.8917713  64.7974548  16.7898903  19.1470814  64.2364349
  41.5764771  57.3030357  63.2280540  41.1125145  58.1025734  62.9796448
  42.1700630  57.1334686  62.4965248  57.8927116  50.3401909  65.4853363
  57.7721710  49.6717796  66.1598206  57.2163696  50.9917908  65.6702881
  55.0885048  38.8509598   4.7002301  54.5878639  38.7793617   5.5129209
  55.5076408  37.9961395   4.6010180  23.5256844  48.9487610  19.3805428
  24.0296440  48.3402863  19.9209290  23.1407547  48.3999252  18.6972847
  75.1844254  11.4817429  19.4378738  74.3302078  11.6662426  19.8283882
  75.7970200  11.5208626  20.1723270  61.9732513  70.1530991  16.8796692
  62.1893883  70.1220322  17.8116302  61.7347908  69.2527313  16.6589584
  68.2482452   4.1539426   4.4604411  69.0820007   4.6122446   4.5655241
  68.4948578   3.2517316   4.2568979  35.4230042  38.4083328  20.0587654
  35.8601341  37.5576363  20.0205231  35.5573349  38.7064171  20.9583950
  15.8811693   4.3211699  83.2182159  15.2589369   3.6247280  83.4280396
  15.5484676   5.0880818  83.6844635  66.5188751  24.9013653  21.8076687
  66.1638794  24.4901829  22.5957909  65.7529526  25.2581997  21.3579388
  70.0891647   0.3163319  77.3625259  69.7516632  -0.3218760  76.7340164
  71.0389328   0.2005485  77.3348541  46.8174591  29.1297379  22.2626476
  46.7301140  28.9186039  23.1921768  46.0735054  29.7024517  22.0761890
  14.5641966  55.2148170  41.8209763  14.7749062  55.7692413  41.0696831
  15.2738018  54.5731354  41.8516121  43.2355118  19.2808933  12.5647726
  43.3814926  18.7264881  13.3312950  42.3709946  19.6657677  12.7086945
  56.9765129  16.5241261  36.7969513  57.1192360  16.1973915  37.6852684
  57.0540009  15.7486544  36.2411880  30.3169956  13.3977518  14.8325491
  30.2722607  13.1049356  15.7427626  31.0941639  13.9554873  14.7982941
  79.0050964  56.7354622  28.6817684  79.0896988  57.4114189  28.0093422
  78.9913330  57.2194290  29.5074921  73.7321854  47.5539284  57.1129265
  74.2434158  46.8874893  57.5719872  73.0913544  47.8512535  57.7588043
  35.3192902  67.1498413  57.7956543  34.5903969  67.6742249  57.4640388
  35.1304817  66.2606201  57.4958763  74.1933060   0.6153554   2.0683248
  73.8215103  -0.2626872   2.1522501  73.8324890   0.9507956   1.2476376
  45.7325325   5.8003645  84.7715607  46.1655312   5.9694972  83.9348145
  46.0171013   6.5177288  85.3378143  53.1047897  35.4538422  37.3316460
  52.7707443  36.2767563  37.6886597  54.0492783  35.4934158  37.4819946
  41.3839722  42.7252159  10.8786936  42.3295059  42.6099815  10.9731035
  41.1821480  42.3547707  10.0194674  84.0548172  30.1411152  14.7692728
  84.2380447  30.3167305  13.8463335  84.0065155  29.1868496  14.8265114
  71.8796768  49.1997719  36.8029938  71.7439270  49.8618851  36.1251984
  72.8308716  49.1134605  36.8664169  68.2540741   4.5831962  13.8989944
  68.4066162   5.4583173  14.2555428  68.4432831   3.9915278  14.6272535
  77.1247177  18.4021187  56.1643524  76.2387314  18.7407494  56.2932014
  77.0295792  17.7347507  55.4847946  65.7501450  20.3991871  64.5968475
  66.4780731  21.0204754  64.5780792  65.6442566  20.1267147  63.6853752
  51.3709106  52.9630280  26.3251286  51.6396408  53.2211456  25.4434299
  51.9970932  52.2844162  26.5773392  14.2371140  52.0500298  45.9325218
  13.4534826  52.3921814  45.5023079  13.9065676  51.6017723  46.7110062
  37.1079636  52.1178284  15.9281359  36.8223991  51.8774185  15.0467224
  38.0579414  52.0015564  15.9121780  10.4498625  56.4490471  21.4770870
  10.9643669  56.0373077  20.7828350  10.4562864  55.8109283  22.1905270
   6.9670262  46.3764687  16.3384895   6.6448750  46.9536591  17.0308037
   7.3223724  45.6192970  16.8039513  77.5644379  35.9074478  76.2226562
  76.8623581  36.5337257  76.3989716  78.0305023  36.2752419  75.4718246
  48.2016182  70.8685074  22.3128757  47.7653656  71.3366623  23.0247421
  48.8114471  71.5076141  21.9442444  82.7174149  68.0450974  87.8656235
  82.2405472  67.2620239  88.1406250  83.0366516  68.4300842  88.6817780
  56.2735329  11.3715296  72.6721344  56.8278084  10.8594236  73.2609940
  55.8919067  12.0486107  73.2308426  79.7392960  59.4599991  73.1102829
  80.6273499  59.1240540  73.2316666  79.1724854  58.7650070  73.4448624
  28.1078148  49.1370316  56.6062698  27.2716064  49.0850563  57.0691795
  27.9067440  48.8499222  55.7155571  73.4731750  34.9813156  28.9423275
  73.2775497  34.0571022  29.0965900  72.7218323  35.3055229  28.4457417
  38.8836899  67.6984100  78.9575043  38.4003525  66.8730621  78.9199905
  38.4481735  68.1998978  79.6467590  62.7890663  48.0791626  11.9835863
  63.5063667  48.5349350  11.5431528  62.2725334  48.7775841  12.3856220
  80.6546021   3.3731384  32.9047813  80.6155777   2.6748586  32.2512436
  80.3008652   2.9762516  33.7007599  10.9715052  58.9220695  84.5176392
  11.3149691  58.9032784  83.6243820  10.5369720  59.7719345  84.5893402
  26.5286541  28.5843258   4.5018301  26.7724724  27.6940365   4.7551441
  27.2990742  28.9230862   4.0458403  57.9291229  14.2063503  87.2165070
  57.7583504  14.7014036  86.4152603  58.8706245  14.0349207  87.1960526
  85.1678925   9.4686556  84.6420746  84.5563583   9.8432188  84.0080643
  85.4640198  10.2170477  85.1601944   8.5107241   8.2748528  23.9194641
   8.6430731   8.5002241  22.9986362   8.9207640   7.4154468  24.0170326
  64.3921509  65.4255447  25.3145523  64.7706833  65.1404648  24.4828835
  63.7460060  64.7520447  25.5269871  77.2334290  15.7968149  39.9940033
  77.0608749  16.7380371  39.9704018  77.2688828  15.5366535  39.0735207
  12.6876755  63.2097359  41.6344948  13.6037159  63.1450577  41.3644600
  12.5162153  62.3900871  42.0981789  53.6437302  23.0828228  29.8781338
  54.3785629  23.3547478  30.4279594  53.6848373  22.1265068  29.8791885
  41.7426872  20.3155594  88.4105988  42.0495148  20.4097347  87.5088120
  40.9506340  20.8514957  88.4513092  16.7401733  17.2811279  14.4531813
  16.0001202  17.8781509  14.3431091  16.4048138  16.5857468  15.0190544
  43.5372505  65.4860382  18.4735413  44.1679955  66.1268539  18.1452885
  42.7110939  65.7266769  18.0542717  67.9752274  17.5363560  36.8188934
  67.3667526  17.2990360  37.5186539  67.5655518  18.2875271  36.3897858
  65.8452835   2.3292768  19.1817245  66.7194519   2.0104375  18.9572201
  65.9545975   3.2744555  19.2862206   6.7773795  42.6492462  22.7837334
   6.7526031  43.1214333  21.9514732   6.3048048  43.2150536  23.3942814
  33.3503494  26.0188885   3.8577881  33.9006081  26.6656399   3.4160223
  32.6993370  26.5396023   4.3281856   2.2556829  42.4145279  42.0299721
   2.7125187  42.1000175  41.2498322   2.3836436  43.3630409  42.0163879
  28.4140835   9.9693327  67.8583908  29.2184544  10.3662481  67.5242081
  28.6912651   9.1206884  68.2036438  24.7409916   0.7319993  18.4896603
  24.3081303   1.3993951  19.0220566  24.0334377   0.1488895  18.2147369
  39.5819435  65.5711060  85.3168030  38.9900246  65.7378006  86.0503387
  40.1580772  64.8728485  85.6278458  33.6868439  57.6676598  45.7388992
  33.6479454  58.5999069  45.9525146  33.2686882  57.2338600  46.4826660
  84.6193237  58.8070183  78.0536270  84.0610733  59.5502701  78.2820282
  85.3397522  59.1928177  77.5552597  23.7526150  19.6803379  55.3955231
  23.6444874  19.1185684  54.6280899  23.8416157  20.5628586  55.0357056
  69.5480423   5.6449833  17.5070362  69.4086609   5.4161487  18.4259720
  70.2164688   5.0296531  17.2057018  18.8350716   8.3944530  87.6429291
  19.6578693   8.8529415  87.8132935  18.8150482   8.2835608  86.6923828
  63.8813095  49.8451157  23.3355789  64.0506592  48.9290543  23.5555458
  63.0436935  50.0413094  23.7552662  83.6594849  11.1803541  40.1959953
  83.3443604  10.8936872  39.3388214  82.9261246  11.0147686  40.7884483
  61.0063477  55.4532509  20.8320370  60.7224731  54.8761940  20.1230564
  61.9555092  55.3357506  20.8709965  63.7360344  62.7991943  81.8132782
  63.5227699  62.6363106  80.8944626  62.8917542  62.9791069  82.2268677
  23.3306656  60.7520447  39.1653481  22.5242023  60.3013191  38.9149551
  23.1856499  61.0152969  40.0741386  38.1709824  14.0028648  88.1959076
  38.6894836  14.7127218  87.8171082  37.8220825  14.3685246  89.0087967
  56.9436646  50.5636711  35.7373543  56.6709442  50.6615448  36.6496468
  57.4891243  51.3315239  35.5667343  51.3960304  60.8780975  10.1648407
  51.1532059  60.2732582  10.8658686  51.8690834  61.5818672  10.6088686
  45.8485603  56.5043030  45.5859070  45.5850143  56.9382057  46.3973885
  46.7933846  56.6483803  45.5331955  28.7509308  13.0431957  12.6220951
  29.3679447  13.0767651  13.3531218  28.3545189  12.1740685  12.6829777
  62.9990044  30.1501064  32.1827240  62.5059929  30.5043182  31.4426537
  63.8346481  29.8761635  31.8047161  11.3843231  66.1275406  29.4507046
  11.1135912  65.7983170  30.3077602  12.2570887  66.4916687  29.5987759
  82.4385223  64.4339066  32.5235710  82.7958450  63.5459023  32.5218697
  82.7207565  64.8040466  33.3599701  36.3768959  60.8122597  53.5083504
  37.1223145  61.4127350  53.5118675  36.3234673  60.4915123  54.4086266
  74.6446075  32.9128304  72.0486450  74.8368607  32.2402077  72.7019806
  75.3984833  33.5017052  72.0821533  46.3965759  12.3624582  12.6991806
  47.2790565  12.7317476  12.6662331  45.8168068  13.1205502  12.6257248
  79.9420090  60.5041122  12.1125507  79.9960938  60.7302971  13.0410700
  79.0142441  60.3211174  11.9642544  56.5667801  33.7502441  38.4878883
  56.0975761  34.4244270  38.9793701  57.1552048  34.2391167  37.9125671
  50.9337082   3.8182878  55.9911919  51.8174438   4.1599102  55.8550491
  50.5031586   3.9228463  55.1427040  60.2889709  32.1749763  69.8035812
  60.4804802  32.4649200  70.6954803  59.8410492  31.3364544  69.9153061
   8.8443203  17.6089268  22.8388538   9.6955929  18.0134506  22.6717377
   9.0523062  16.7105465  23.0955448   5.7810655  49.6286430   1.0673275
   6.6652975  49.2850647   1.1950809   5.2052903  48.9279251   1.3734467
   7.1622715  25.5290909  15.7823553   6.8360591  26.1519928  16.4318237
   7.0606432  25.9811325  14.9447622  78.5065765  61.8259583  65.6053772
  77.7415771  62.3670235  65.4097824  78.5002365  61.1487389  64.9289398
  86.8624344   5.3111835  69.5737076  86.8090134   4.4618421  69.1355362
  85.9543686   5.6083045  69.6317139  17.8797283  55.7836418  12.1004257
  18.3872910  55.7624626  11.2891521  16.9672947  55.8018303  11.8116922
  35.4743500  22.3380833  82.8440247  35.9859772  22.4867840  82.0488129
  35.1563606  23.2067204  83.0901642  72.9033051   4.7752113  42.2312279
  72.6662140   4.2856479  43.0188484  72.2868881   5.5071888  42.2095680
  30.6893959  63.0165863  72.0835190  31.2647915  62.2667465  72.2348175
  30.0721321  62.9962349  72.8148193  40.0315552  67.7689743  75.1562958
  39.8001251  67.8249054  76.0834122  40.0992584  68.6801376  74.8709412
  68.1460571  36.9035645  23.7068100  68.3524246  36.4282722  22.9019833
  67.2998123  37.3151588  23.5316143  44.7200165   1.5037497   9.3099623
  45.5303955   0.9964251   9.2637043  44.1849327   1.1664373   8.5915365
  35.4926643  66.0183563  26.7860222  35.2198410  66.8311691  27.2116222
  35.2354813  65.3292389  27.3985596  21.9288769   2.9476397  68.5855408
  22.1293392   2.6381967  69.4688873  21.3069763   3.6631689  68.7177963
  37.6355629  14.0230083  74.2568893  36.9440002  14.1698961  74.9021759
  37.3895721  13.2054539  73.8240738  47.5085144   1.9675518  68.7690353
  46.6206703   1.6997241  68.5318909  47.6533012   2.7771640  68.2793427
   0.7749636  19.2653637  47.8932686  -0.1734267  19.2221050  48.0154037
   1.1213051  19.4417171  48.7680168   3.0578010  17.5261059  23.5591755
   3.6264510  17.7681332  22.8282223   2.9164515  18.3451061  24.0340366
  56.8338394  51.2699013  75.8123627  57.1948776  51.7956009  76.5261688
  57.5805206  51.1013222  75.2376633  78.0903320   3.5643947  72.2277222
  78.8676300   3.2140262  72.6627808  77.6439056   2.7934868  71.8775177
  14.6946039  42.4669914  40.3451157  13.8038330  42.2953148  40.0396881
  14.6499596  42.3465195  41.2936554  42.3683548  59.7100716  28.9014645
  41.7601357  59.1054840  28.4762840  41.8319588  60.1797256  29.5401611
  21.4928627  71.1894302  72.0803299  22.1180439  71.8882828  71.8880386
  21.1610832  71.3984375  72.9535217  37.9679260  44.6128807  87.2425919
  37.5334969  44.2777176  88.0269165  37.3007240  44.5602913  86.5582581
   8.2953444   1.7812518  12.4705648   8.9544210   2.4709871  12.3923664
   7.5048509   2.2370067  12.7597704  81.6089020  27.0537071  58.4298019
  81.2239685  26.1831760  58.3286171  82.5536118  26.9031544  58.3969231
  58.9753380  60.9365387  51.7455788  58.9447708  61.6376190  51.0945930
  59.2101784  60.1550941  51.2451515  37.8882141  57.4464111   5.8208532
  36.9593582  57.2160797   5.8006749  38.2902374  56.7725029   6.3689909
   7.1254272  15.3684435  59.5354309   7.6318879  15.0021172  58.8104935
   6.6367025  14.6240072  59.8864212  49.7723236  29.1287060  16.7866344
  49.3172226  29.8204174  16.3063755  49.5200882  29.2653522  17.6998348
  62.9391785  25.7235107  25.1807613  62.4132996  26.1081257  25.8820152
  63.5912056  26.3935032  24.9753265  38.4657249  53.7752686  37.3592644
  38.8865547  53.8016434  38.2185898  39.1368294  54.0909576  36.7541275
  55.5651360  55.5962830  16.7949314  54.6292572  55.7958870  16.7721558
  55.6127625  54.7126694  17.1598873   8.9090691  65.5830917  17.6759319
   8.1833096  65.0285416  17.9622459   9.6922235  65.0601578  17.8475151
  22.3537579  63.7378273  10.3854847  21.7856121  63.5813141   9.6312008
  22.7627258  62.8896370  10.5573845  50.8039665  64.2082291  70.3490753
  50.0803375  63.6802864  70.6865234  51.5899086  63.7897453  70.7003555
  11.2279768  14.2918587  22.1258945  10.4323769  14.1400499  22.6359978
  11.8834486  13.7228870  22.5294552  67.6506882  18.5902309  47.9394379
  66.8609924  18.0543346  47.8657303  67.7273712  19.0220661  47.0886345
  23.8829536  50.9277458  76.1405716  24.4282284  50.5591011  76.8355560
  23.4755898  50.1668320  75.7266922  17.9695930  11.9143734  21.7543030
  18.9023361  12.1251812  21.7120838  17.8792210  11.3854532  22.5469608
  26.5533066   8.7142773  18.8072548  25.6351051   8.8163652  19.0576859
  26.8209667   7.8881717  19.2099209  62.6541748  63.7487564  28.6215324
  62.3855743  64.3726044  27.9470692  62.1608086  64.0096130  29.3992062
  21.1522865  36.8757591   1.1193690  20.6925545  36.4499168   0.3958109
  20.4558392  37.1611595   1.7107573  43.1055908  13.9395971  67.6040192
  42.9479141  13.0269842  67.8459015  42.4250679  14.4304705  68.0646286
  19.3003139  52.8713799  33.5452156  19.7802296  53.2117271  34.3002510
  19.7029839  52.0210838  33.3689194   2.0931878   5.5604329  49.2229576
   2.2188144   6.3887582  49.6859131   2.4610677   5.7142205  48.3527603
  30.9836464  42.9247971  82.2931976  30.7437572  42.2995567  81.6092606
  30.3136787  43.6063957  82.2402878  27.1989975  56.0297966  19.3890476
  27.0848560  56.9801636  19.3915272  26.9620075  55.7577896  20.2756596
  71.5909882  46.0591431  43.9611816  71.9317703  45.6860085  43.1482391
  70.9098587  46.6690216  43.6777382  86.7883911  56.3330460  70.5365601
  85.9999237  55.7999916  70.6385880  86.8052750  56.5602074  69.6068573
  15.5639000  66.7262115  47.4914398  14.6962118  67.0064392  47.2001915
  15.4106693  66.3204880  48.3447495  71.4221497  61.8407860  36.5054398
  71.1873093  62.7645111  36.4170609  70.7229614  61.4660912  37.0411377
   0.2567882  46.7716179  21.2353172   0.9574476  47.0509605  20.6460171
   0.2944525  47.3920555  21.9632397  52.3356209  38.6695480  16.6921558
  52.6103554  39.1043777  17.4994202  51.7388840  37.9798431  16.9827499
  32.4788399   1.8439711  75.6514359  32.9952698   2.6269546  75.8424072
  33.0456581   1.1154860  75.9049301  41.6390800  57.2444038  43.1003838
  41.3933983  56.9997063  42.2081985  42.5703926  57.0313034  43.1593399
  14.2382030  66.7702637  51.4431686  13.5080862  67.3209076  51.1604080
  14.9145870  67.3904953  51.7152977  14.4158278  53.7652206  15.8397474
  13.9280729  54.5845680  15.7561111  13.7518768  53.0812645  15.7525501
  53.9587364  67.1333771  58.5341187  54.6458282  67.3477707  57.9031105
  53.6839027  67.9801178  58.8858719  12.0440140  53.0148277   5.0668330
  11.2583303  53.2912560   5.5385556  12.5314074  53.8250580   4.9178205
  64.6784515  18.1857071   3.6908839  65.3233337  17.5334129   3.9645112
  63.8760948  17.6838055   3.5475345  75.9660492  40.4193192  77.3215561
  75.4110489  41.1907082  77.2068253  75.7739029  39.8707542  76.5610352
  16.8222256  14.2905169  11.1830435  15.9751587  14.2296238  11.6246347
  17.1709461  13.3995047  11.2099285  32.2257385   2.3882179  80.2168579
  32.0792656   2.8609681  79.3975372  32.9995422   2.8033142  80.5978470
  65.5034637  27.4401455  48.4684334  65.8995972  26.8959217  47.7878952
  64.8414764  27.9556580  48.0077248  47.3350067  61.0646286  53.8971291
  46.7212029  61.1263313  54.6290245  46.9075050  60.4760628  53.2749825
   6.0171561  51.8916130  85.3207092   5.7850747  51.1403351  85.8665619
   5.6189947  51.7024422  84.4710541  59.5999870  44.4904327  21.4043903
  59.9593086  45.2636948  21.8393459  59.0553322  44.8429222  20.7005920
  44.8010483   1.8734595  86.1413956  44.1034088   1.5008535  85.6022339
  44.9800339   1.2016295  86.7993011  52.0855637  55.8494949  53.3700142
  51.1759605  55.6989250  53.6272812  52.2406502  55.2247581  52.6615791
  63.4768143  50.7806931  67.3448334  63.7617912  51.6786842  67.5140381
  63.3172226  50.4123001  68.2137680  59.7215729  39.3458862  86.6472473
  60.5815392  39.0408669  86.3580246  59.9004555  40.1665421  87.1063309
  18.8595238  58.6533546  77.6994781  17.9633884  58.4962807  77.9969788
  18.9988079  58.0071335  77.0072174   9.9059315  36.2803802  79.6236191
  10.1712036  36.6586494  78.7853012  10.4373016  36.7409325  80.2730560
  10.6420889  49.0867157  30.5379715  10.0806513  49.1596680  29.7661552
  10.1398401  48.5481415  31.1494560  25.2261333  29.3672161   9.1093245
  25.7993050  29.5362358   8.3615694  25.7845383  29.5034218   9.8747416
  28.1557922  33.0784531  10.6150646  27.3806286  33.5023079  10.2466908
  27.9301815  32.9218864  11.5320263   3.8646653  26.7157688   7.2804613
   3.7974055  27.3148575   6.5369563   3.1260970  26.9484730   7.8431311
  74.2350616  70.0055847  73.9003754  74.4807663  69.8659744  72.9858398
  75.0545273  69.9102020  74.3857727   3.6178439  62.9002724  70.0104828
   3.0396461  63.6012611  70.3113708   3.6036341  62.2572212  70.7193604
  70.0249252  22.7961082  43.8009605  69.8756104  23.1083736  44.6933899
  70.5713730  23.4715157  43.3991623  11.1382589   9.3083391   9.7726965
  11.1581478   8.3925028  10.0503273  12.0590868   9.5667009   9.7332268
  69.5952835  39.8175011  58.7807503  70.4855194  39.5409737  58.9981003
  69.1654282  39.9291992  59.6286812   9.7289906   6.8415680  12.2276115
   9.4341125   7.6282992  12.6862326   9.1218615   6.7507248  11.4931908
  41.5221443  28.2388840  69.1676102  42.1728668  27.7391129  68.6746368
  41.7514496  28.0911484  70.0851212  24.9089203  66.3925552   1.4064149
  24.0901585  66.6891174   1.0090357  25.3830147  67.1991730   1.6084913
  59.2058105  70.9803772  29.6238937  59.8914413  70.3696823  29.3533516
  59.0957680  71.5645905  28.8736839  83.3819580  12.9532671  74.5898361
  83.7733383  13.0957336  73.7280045  84.0019684  12.3818731  75.0429611
  78.7178726  33.5085182  60.5756912  79.0142746  33.8950005  59.7516708
  78.7473373  34.2307091  61.2032318  66.8880615  42.6555824  32.7230377
  65.9719696  42.8755341  32.8922348  67.2341080  42.3973694  33.5773277
  12.9310284  57.2933617  55.8838768  13.7321701  57.5041542  55.4043236
  13.2106848  57.2185211  56.7962494  27.2654057  58.5379791  53.5589142
  26.6368961  58.9736137  52.9832115  27.4708157  57.7170029  53.1116600
  32.7242241   2.9600205  29.4785767  32.2330666   3.6733682  29.0709839
  32.1099701   2.5716612  30.1015530  45.2441483  62.4253922  55.5882721
  45.0585365  61.9944763  56.4225922  44.3901711  62.7287788  55.2801971
  41.1787262  20.7358665  14.0200300  40.8702469  21.5753727  14.3610601
  41.2795563  20.1845970  14.7960253  10.2505913  17.4313450   8.5328407
   9.8177166  16.7559853   9.0550852  11.0924520  17.0448208   8.2917967
  71.6282043  43.9318504  30.4000034  70.9946442  43.2173538  30.4657745
  71.3403397  44.4380455  29.6403103   9.4699039  34.1020927  68.8851089
   8.8622446  34.6407738  69.3918686   8.9120703  33.4592857  68.4471054
  52.5774689   6.6923523  20.7490273  53.3121605   6.3130150  21.2312737
  51.9665756   5.9647894  20.6320076  58.7378807  67.8156433  30.3379822
  58.2740707  68.2082977  29.5984306  59.5716133  68.2844925  30.3740368
  62.3502998  16.0564480   5.5842414  62.7117653  15.1967020   5.3688045
  62.1256790  16.4409885   4.7369480  74.9648514  46.0119629  13.9501104
  75.6026306  45.5476112  14.4921837  74.1671524  45.4870186  14.0160341
  35.1059608  50.8429222  69.4337997  35.1620064  50.9815063  70.3792496
  34.2729378  50.3887253  69.3072662  36.2583847  60.5542221  63.4270477
  36.6059074  61.3636436  63.0524864  35.7546616  60.8399353  64.1891937
  10.5107603   1.7906528  22.7781849  10.6594381   1.3802711  21.9262962
  11.2633848   1.5250387  23.3066139  23.9648952   2.2098165  26.1133690
  23.7394829   1.2795743  26.1049652  23.3313999   2.6043606  26.7127419
  49.0680122  56.8100281   9.7272501  49.6926956  57.2403374   9.1434383
  49.6134453  56.3704414  10.3795547  76.0768433  15.6754169  23.9407425
  76.4355392  14.8216887  23.6984196  75.7142029  15.5429811  24.8166332
  -0.0672817  41.6861916  54.3838348   0.4133290  42.5056877  54.2669220
   0.0633278  41.2126350  53.5622978  19.2863960  30.8454037  75.0550842
  19.2615700  30.4827957  75.9405899  19.1627789  30.0882473  74.4826660
  39.9486618  22.6138020  75.8023682  39.4788399  22.4135704  74.9927979
  39.2694244  22.9172421  76.4046936  63.3086319  35.4176064  32.3512955
  62.6483574  35.9805603  31.9471226  63.0537567  35.3730659  33.2728653
  25.4034462  22.3037434  80.4474487  24.6017513  21.8732605  80.1504593
  25.0983238  23.0234470  80.9998627  19.3534641  64.6125488  18.4505978
  19.4148483  65.5504227  18.6318874  19.3906727  64.1989594  19.3130302
  30.5480957  50.9545746   5.8506823  31.3207245  51.4926224   6.0232511
  29.8105011  51.4999695   6.1240520   8.1363182   3.0483232  70.6273804
   8.8413143   3.6341386  70.3516388   8.5087614   2.1703386  70.5457611
  48.9545517   4.0756922  46.2973633  49.2533951   3.5170078  45.5798683
  48.0003014   4.0719676  46.2223358  35.0370483  48.8958473  27.1441517
  34.9640121  47.9887238  26.8474617  34.9832230  49.4152870  26.3419571
  79.6035538  43.9869728  50.9474564  80.0792313  43.8691750  51.7697029
  79.1524277  43.1539688  50.8102798  65.4162064   5.5399647  28.9481220
  65.5182037   4.5914836  28.8692989  64.8884811   5.6593099  29.7377357
   2.2685308  43.3950958  47.1572990   1.9768564  42.7025681  46.5643692
   1.6209270  43.3954010  47.8621712  56.8466721  26.5149345   2.9831192
  57.3385849  27.3360615   2.9854026  57.4982834  25.8459549   2.7731235
  40.9795074  46.6758919  71.2349167  40.7073364  47.5346489  71.5584717
  40.3414459  46.4633255  70.5537949  47.3359337  28.4648952  66.5307617
  47.9834480  28.0231628  65.9813690  46.9469452  27.7636509  67.0534210
  22.7118244   5.6811790  24.5930805  22.7806911   4.8298016  24.1610565
  22.7022400   5.4753494  25.5278397  40.1039162  15.2348042  76.1383438
  40.7739067  14.5584059  76.0392151  39.3200493  14.7574558  76.4102325
  46.8995323  37.9484482  56.2823715  45.9821091  37.7611160  56.4810524
  46.9373169  38.9014778  56.2015419  40.6805534  67.4648972  14.4665279
  41.3245583  66.8114777  14.1935205  39.9636917  67.3713531  13.8391628
   2.7034645  65.1589813  63.0094872   2.3612034  64.4391022  62.4795227
   3.4248273  65.5159225  62.4913597  38.3164597  58.3271828  44.7784462
  37.5827065  58.5817032  44.2189331  38.1130219  57.4313812  45.0474892
  64.8283081   5.2054687  43.3932228  65.1842041   5.2597070  44.2801399
  65.2725449   4.4529986  43.0024872  82.2349854  39.2930374  12.2270203
  82.2925797  38.7791862  13.0325470  81.8100891  40.1084900  12.4929714
  41.2444191  41.6763954  39.6488838  41.3692131  40.7312927  39.7351608
  40.4152527  41.7666130  39.1792297  83.1478424  12.0697422  87.8237686
  83.8796158  11.5619221  88.1742706  83.5286331  12.5733681  87.1043320
  54.8045273   7.6354551   9.6205702  55.4699097   7.1528225  10.1110449
  55.3019066   8.1509800   8.9856815  13.6804352  15.4988966  70.9028931
  13.0801430  14.7732077  70.7318420  14.4702559  15.2777910  70.4094086
  71.5144424  39.1848297   2.6164751  70.6910324  38.8809013   2.9983873
  71.2722931  39.5017853   1.7463406  63.9565392  67.0457840  33.7570801
  63.0129662  67.1956482  33.8157387  64.3253555  67.5559464  34.4781532
  48.4068336  61.3251152   1.2928429  47.6234436  60.7981567   1.4504892
  48.2791138  61.6878090   0.4162733  78.4561691   9.4951811  19.1919041
  78.4260559   9.1567698  18.2970276  79.3751221   9.7244263  19.3304787
  73.9374542  16.9567833  79.2757187  74.7747726  16.4971752  79.3381348
  73.7719574  17.0264053  78.3355103  30.0865879   2.4660828  26.0984879
  30.5591660   2.0669725  26.8289757  30.7359676   2.5271699  25.3979111
  71.6408310  69.5505066  34.8463860  70.9683762  68.8900604  35.0132256
  72.0361328  69.7115784  35.7031403   1.2064782   9.1015043  31.0468788
   1.8845593   8.6919432  31.5841846   0.8012003   8.3730612  30.5763988
  45.5391922   6.9612041  88.7699203  45.3211899   6.0589623  88.5361099
  46.4541817   7.0622063  88.5075836  19.1871815  36.4076576  20.6613770
  19.6549606  35.6838531  21.0779343  18.8299370  36.0307579  19.8572884
  26.8417377  14.6860218  66.2439041  27.6759624  14.5059891  66.6773605
  27.0850353  15.1268711  65.4298477  50.4295769  15.7389698  79.9653854
  50.7206306  16.1007442  80.8024216  50.8659973  14.8890457  79.9070816
  83.4191132  32.4346313  81.2033463  82.9785614  32.6415100  82.0275650
  83.8358154  31.5873623  81.3605881  84.2976303  41.7933960   3.5164855
  83.8322754  41.3757591   4.2412310  83.8638000  42.6398849   3.4093795
  86.5129471  69.4571609  37.7504311  86.6254425  68.7033920  38.3295822
  85.7869873  69.9484253  38.1349754  61.3371620  54.0213928  18.3283176
  60.9782600  54.6966553  17.7526093  62.1847839  54.3689384  18.6057682
  27.5879288  24.8139915   2.0431473  27.0077095  25.3981781   2.5313087
  28.3951015  24.7936497   2.5572393   1.0913900   2.6034300  15.3571281
   0.2575403   2.4559572  15.8034220   1.3103243   1.7548761  14.9720888
  86.1475372  51.6846390  37.3700905  86.2344208  52.2617302  38.1288071
  85.4257507  51.0981827  37.5966454  51.3480415  35.8477669  31.1889687
  50.6428566  35.3642197  30.7587013  50.9930916  36.0747452  32.0484581
  21.1044941   1.1595557   2.6458280  20.4881802   0.6148129   2.1562951
  20.5815048   1.9033915   2.9448638  84.9355240  58.3846283  87.6175995
  85.3302078  59.2170982  87.3579025  85.6698532  57.8612175  87.9385986
  82.1466217  64.3070221  67.5011139  82.7631226  64.8712845  67.9677658
  81.6778107  63.8406143  68.1931458  83.3886642   0.9978301  65.7267914
  84.0880127   1.4870119  65.2933807  83.5570068   0.0841997  65.4962006
  57.1942635  19.0638962  86.7033691  56.7687149  18.2081261  86.6504898
  58.0255623  18.9468288  86.2435150  46.0882835  17.6094780  82.3443985
  46.9549904  17.2409344  82.5153656  45.5650139  17.3532753  83.1038589
  46.6749916  71.3203125  61.9518585  47.2212486  70.6435471  61.5520821
  45.8958321  70.8525848  62.2524796  81.3880386  10.7889805  11.3090267
  81.4788361  11.7346687  11.4259081  80.7036667  10.6941395  10.6465521
  37.0212708  63.6127396  22.1048660  36.7650032  63.0554008  22.8396683
  37.9664078  63.7244225  22.2071934   2.2790656  50.8689880  37.5274696
   2.3418145  50.3013153  38.2956123   1.3416032  51.0349808  37.4282646
  11.9426670  36.0165291  72.4742889  11.7403908  35.2042198  72.0101013
  11.3411512  36.6613235  72.1019363  27.3088169  51.4238434  64.2007523
  27.4372597  52.2916527  64.5836792  28.1666412  51.1887741  63.8470383
  84.2529144  63.9699554  63.7959633  84.7538376  63.5586357  63.0915985
  84.8830109  64.5400391  64.2366486  80.0345230   5.5249515  66.2051773
  80.4899826   5.1610017  66.9643402  79.3177261   6.0375161  66.5789566
  51.5750694  19.2499561   3.4724748  51.5872459  18.3055267   3.6278396
  50.6578827  19.4501419   3.2856052  11.6413870   9.9081440  68.7914047
  11.3160524   9.7513590  69.6778641  12.5928392   9.8385334  68.8696594
  50.8336220  48.0081940  51.7394867  51.0175438  47.0697708  51.7815742
  49.9027328  48.0795212  51.9506378  12.1621752   6.9688873  19.8837147
  12.0573292   6.0796485  20.2220840  13.1083870   7.0798473  19.7909641
  29.4077969  61.4744568  69.2682419  29.3152580  61.5329437  70.2191620
  29.0993862  60.5946655  69.0512543  32.0585327  50.5419273  71.8217545
  32.9637642  50.7831230  72.0182648  31.6853085  50.3012924  72.6697159
  58.4140434  27.5510731  46.1087379  58.5336456  27.3880100  47.0443306
  57.5693932  27.9974918  46.0494766  66.1135025  43.2565842  58.7072830
  66.3062134  42.7707748  57.9053574  66.9572067  43.6206131  58.9753838
  78.8741302   4.4836535  46.7478828  79.4448776   3.7449892  46.5360947
  79.2104111   5.2059612  46.2173920  56.2345505  47.8208733   6.7606020
  56.5419083  47.9395905   5.8618979  56.8741493  48.2899666   7.2964144
  17.3338737  39.1777496  51.3035393  16.7580376  39.8326073  51.6982651
  16.7446499  38.4753380  51.0284729  23.0989246  71.4049149  61.2507782
  23.5691891  70.5724030  61.2059441  22.2501678  71.2225723  60.8475494
  40.2622070  42.5981407  86.9833374  41.0606842  42.7147369  87.4981918
  39.9337044  43.4866982  86.8462830  14.0240278  44.5075951  80.1294403
  14.2690687  45.2381020  80.6973724  14.8490906  44.0569153  79.9494781
  85.2490540   9.8322163   2.4539750  85.7530823   9.1137247   2.0719337
  85.2182693  10.4960318   1.7650388  15.4264345  61.8932037  48.1658287
  14.5033770  61.7620049  48.3825836  15.8995342  61.5964622  48.9432297
  83.2416153  32.4675255  84.0692749  82.6011581  32.9188995  84.6191025
  82.9724426  31.5492477  84.0926208  84.8716888  52.6296387  79.1700897
  85.5912094  53.1575890  79.5161896  85.1194153  52.4526825  78.2625961
  81.0062637  32.1536522  79.7672501  81.7079849  32.5887527  80.2515106
  80.7277527  32.7990417  79.1175232  79.0451965   0.6082419  50.1075287
  79.5449142   1.3494444  50.4497681  79.1537399   0.6641133  49.1581459
  84.9164124  40.5575333  69.6170349  84.4735336  40.1431198  68.8765259
  85.8470230  40.3988190  69.4588776  45.1380310  16.7600632  74.2029343
  44.4454918  17.2980309  74.5866241  45.5732193  17.3398972  73.5779343
  38.6838760  53.2106209  12.1555090  38.4215355  54.1167145  11.9930162
  39.4318352  53.0700455  11.5749683   0.6283213  27.2912426  36.8970871
   0.4761444  26.9876900  36.0021400   0.5926899  26.4962234  37.4289780
  37.4219933  16.5994492  73.6287231  38.1451302  16.8188725  73.0412216
  37.6095657  15.7058821  73.9160995  66.5141983  50.2633209  74.3781662
  65.8576584  50.9421425  74.2220078  66.6422729  49.8527374  73.5230331
  20.8555069  58.6596451  51.8679581  20.5646248  57.9586487  52.4512444
  20.4633064  58.4451599  51.0215492  23.0949535  46.5050659  77.3176270
  22.4727802  46.2854347  76.6241608  23.8230858  45.8975372  77.1873627
  49.0916290  62.8690186  51.5101013  48.7287674  62.0088196  51.2988777
  48.3353310  63.3868294  51.7859993  77.0467606  32.8587608  33.8304710
  76.5642090  32.9182739  33.0059547  77.9516678  33.0618744  33.5935822
  83.4542770  45.8691292  14.0229836  83.0106506  45.6370201  13.2071657
  82.7487640  45.9488640  14.6649561  69.1898270  44.9169350  22.8784294
  68.9708099  45.7930794  23.1956596  70.1328354  44.9492874  22.7174454
  34.8869324  52.4613495  45.9284477  34.9732132  51.9117966  45.1494865
  34.8817635  53.3568573  45.5904160  84.6957016  28.7053299  78.7634354
  84.2224655  28.4333782  79.5497665  85.0175171  29.5830345  78.9691086
  74.1623840  43.8763046  29.0762424  73.5002365  43.7078819  29.7466316
  74.0986786  43.1276207  28.4832458  42.1602325   8.3490133  87.6005173
  42.2099495   7.7761950  86.8352432  41.4648323   8.9717646  87.3887787
  20.7679100   4.8517804  28.6087189  21.1394348   4.8545837  29.4908714
  19.8300667   4.9879684  28.7433777  38.6860199  58.4897957  30.8981781
  38.9867325  57.9366989  31.6192093  38.7465706  59.3820572  31.2394066
  52.9892159  10.6161127  19.3160381  52.9880714  11.5450907  19.5467548
  52.1891365  10.2701225  19.7115059  27.5781155  11.0793905  14.9158163
  28.0960369  10.9668055  15.7128820  26.8991623  11.7090397  15.1582966
  46.4050293  66.4808044  49.7035179  45.7409515  66.8989868  50.2515640
  47.2370377  66.8162537  50.0373917  58.1558151  59.1521759  11.3369541
  58.6113014  58.7900467  12.0969725  58.8281593  59.6461525  10.8677273
  45.6409378   3.5118721  62.5299950  45.7030334   2.9166000  61.7829819
  46.5282364   3.5403745  62.8879395  42.9135437  53.0510674  11.5298004
  43.8104935  52.8365746  11.2734747  42.7378807  53.8913536  11.1063700
  33.3851509  63.2215538  69.3537064  32.7984352  63.9507103  69.5545120
  33.8674736  63.5087547  68.5783920  28.0542583  67.5991745  81.0901871
  28.2994270  66.8082962  80.6099396  28.8533669  67.8580933  81.5491180
  56.2499695  57.5049286  10.3997650  57.1425705  57.6871910  10.6934958
  56.1482391  58.0273895   9.6042042  82.8430176  24.4596405  62.4894295
  83.0471420  24.1821804  63.3825035  82.0086136  24.9221935  62.5671425
  74.3734436   0.8569181   9.4740562  74.0391846   1.6478301   9.0510159
  75.2704926   1.0793900   9.7231407  72.0676193  42.2425919  12.5952148
  72.7528381  42.9039993  12.4990702  72.2815628  41.5789871  11.9394045
  45.9450760  12.2601509  38.9943619  46.5452499  11.8130226  38.3976212
  45.4112434  11.5586033  39.3673058  65.3481445   4.8649216  14.8052368
  66.0206070   5.3622246  14.3397112  65.7913208   4.5372210  15.5878220
  48.3966331  36.4810028  39.8718147  48.3652763  37.2133789  40.4873390
  48.7933044  35.7663193  40.3699188  29.9257641  38.8214378  69.5456467
  29.3657246  39.1443558  70.2515564  30.7877865  39.1917915  69.7353439
  36.4568748  60.3378220  33.4967766  35.5226669  60.5459175  33.4832458
  36.7294731  60.5183945  34.3963966  50.6804962  70.4212494  31.5083904
  49.9875832  69.8699951  31.8720131  50.5654030  71.2672577  31.9411278
  36.8908234  22.5721989  17.4929504  36.5912476  23.1557140  18.1900845
  36.2021141  21.9113064  17.4213123  64.4852371  34.9778824  58.0690155
  64.3965759  35.7012520  57.4484406  65.2783203  34.5196571  57.7910118
  25.0553303  66.0187225  71.3296738  25.0048866  66.3477020  70.4322052
  25.4476528  66.7368317  71.8263092  65.5410309  31.2264004  82.5814285
  64.8350983  30.6995354  82.9560013  66.2037888  30.5873413  82.3195496
  72.2942123  28.9290524  64.8051376  71.7299652  29.5439320  65.2739410
  72.6926727  29.4521694  64.1095734  52.4016838  32.7514305  37.6849442
  51.6061211  32.8774033  38.2020912  52.6771622  33.6374092  37.4496002
  21.1151505  30.4278831  80.7774734  20.5618324  29.8331261  80.2711716
  22.0046539  30.1014309  80.6416626  53.9064102  47.3371887  13.2611446
  54.2065887  47.5772400  14.1377869  53.8021317  46.3863144  13.2957067
  27.6879578  12.2440805  84.4661636  28.1335831  12.1223259  83.6278152
  28.1345425  12.9888182  84.8688583  84.7127457  46.0187149  69.1369934
  85.3420715  46.3075104  68.4761047  84.2255478  45.3130760  68.7116165
  40.6240921  19.8192043  83.7876434  39.8626633  19.3140678  83.5025177
  41.3627968  19.4179363  83.3299026  11.4425468   2.9201300  17.0288792
  10.7724037   3.3224266  16.4763412  12.2555323   3.0259566  16.5348263
  42.6811714  36.0767136  28.1913071  43.1768074  35.6858521  27.4717216
  43.3483658  36.3509369  28.8205032   4.9056406   0.6028534  10.5804844
   4.6263714   0.4689376   9.6747761   4.1519241   1.0121247  11.0055027
  14.3005362  71.0238037  15.6906452  13.4673033  71.2515793  15.2782478
  14.8237066  70.6486206  14.9822941  65.5180740  37.5088501  84.9715958
  65.1054077  37.9624023  84.2365875  65.5931931  36.6000710  84.6805496
   3.9698863  31.0324059  37.3011780   3.5341456  30.1834202  37.2264557
   4.1986070  31.2642746  36.4010925  28.6034489   5.4876680  45.6614075
  29.1078892   5.8207488  44.9192314  28.7561607   6.1242132  46.3597794
  55.7989883  70.0900803  43.7287674  56.2750320  70.8035049  43.3037453
  55.4767227  70.4705505  44.5458527  27.7130775   2.5401909  63.2894516
  26.9152069   2.0228772  63.1798096  27.4109020   3.3722291  63.6536446
  73.5932007  61.3715363  73.9415894  73.3712769  60.7272682  73.2693481
  74.3156586  61.8729362  73.5635910  21.3085613  53.7425346  25.4830151
  21.5200348  54.4961357  26.0340099  21.9814873  53.0952873  25.6939049
   0.5140582  66.9365158  27.8554726   1.2648343  66.7047653  28.4021549
  -0.0264952  67.4942551  28.4148998  12.1152115  50.1224136  34.0239639
  11.2162638  49.8381386  33.8586960  12.4448080  50.3860817  33.1648483
  44.5560799  20.7446289  72.8894958  45.3863945  21.1409168  73.1536331
  44.1147652  21.4274731  72.3843307   5.9630995   4.2681003  83.3988266
   6.7459655   3.7173450  83.4034500   5.9561343   4.6671629  82.5288086
   7.2659283  21.9232254  22.6868382   6.5544643  22.4126568  23.0997639
   7.9879532  21.9760647  23.3130322   6.3830190  21.3562641  72.3606033
   6.6951580  20.9795265  71.5378799   5.8801117  22.1264496  72.0957794
  50.4203987  70.9510956  43.3929596  51.0927658  70.2840576  43.2543221
  50.4138298  71.0913849  44.3397980  43.5747948  64.5192413  79.1231003
  43.8733025  64.1128769  78.3094711  43.0048714  65.2338333  78.8388748
  34.6384201  54.8046799  68.8471375  34.7910576  54.6827583  67.9100800
  35.5146179  54.8846245  69.2241211  18.9666691   1.8804629  59.8326797
  18.9345989   2.5036159  60.5585480  19.8846970   1.8754511  59.5616989
   0.0295553   0.7625077  83.1773453   0.1130841   1.4850075  82.5550537
   0.9317936   0.5282064  83.3948364  41.8483772  26.6937294   0.8569745
  41.3103142  26.9422855   1.6086007  41.7154160  27.3989525   0.2235617
  54.8882446  26.5116768  46.4008789  55.3945274  26.3856449  47.2033920
  55.3319283  25.9679775  45.7499046  65.1182785  11.8689137  85.6301270
  65.9442139  12.1443386  86.0278778  65.1563416  10.9124956  85.6369705
  20.7738533  48.5291328  65.6432266  20.6366539  49.3639107  65.1953888
  21.6807690  48.5665703  65.9470901  83.3596954   2.2656713  58.7112083
  82.7574692   1.5465312  58.9019775  83.9041443   2.3365304  59.4952927
  62.5707550  49.5973282  19.3173676  63.3339539  49.8790550  19.8217316
  62.8693962  49.6026001  18.4079628  19.8225899  27.6482277  63.0118904
  20.6665325  27.2713318  63.2607765  19.2762527  27.5479355  63.7914352
  81.4790878  59.7624893  54.6956635  82.2635193  59.4376068  55.1376495
  81.7481308  59.8779602  53.7843399  29.5791416  48.0770569  65.9378204
  30.5032501  48.3265533  65.9405670  29.5629044  47.2137489  66.3509293
  21.9210300  34.5396652  16.4220028  21.2973270  34.1391182  17.0276337
  22.6378860  34.8403091  16.9805374  68.9939728  62.7067223  47.8145332
  68.5629883  63.4314423  48.2675896  68.5328751  61.9253845  48.1197128
  53.0098877  44.7333755  13.0715933  53.5637169  43.9921951  13.3168612
  52.1154938  44.4134674  13.1897154  14.7469406  38.5129547  75.2799377
  15.0600157  38.3501396  76.1697159  14.1046495  37.8211098  75.1216736
  71.2824707  11.9649048  84.8568115  71.3905716  12.9123058  84.9403534
  72.0817108  11.5983677  85.2350922  86.4954147  13.3996019  50.6630516
  85.6278534  13.7941103  50.5739937  86.3219604  12.4984674  50.9352646
  78.2005463  32.6353874  50.7076683  77.5342407  32.8813133  51.3493805
  78.9308701  32.3094559  51.2336235  67.5150146   2.7751379  78.8800049
  67.1030807   3.5444167  79.2733917  68.3227081   2.6543138  79.3792725
  69.9331818  11.9651175  53.0698166  69.9034348  12.8083782  52.6178665
  69.0147552  11.7153215  53.1714592  81.5441513  67.3697052  79.9132385
  81.1820297  66.7833023  80.5774918  82.3903809  66.9831161  79.6881332
  32.4400177  43.7128448  16.7187099  32.7801476  44.5695801  16.9766827
  31.5680733  43.6731110  17.1116047  42.3994446   4.9396944  21.1803551
  41.7240028   4.6928906  20.5486126  43.1124725   5.2877460  20.6449299
   5.3802195  40.6408539  24.6008968   5.8885703  39.8537407  24.4052792
   5.8133388  41.3352318  24.1044331  57.9334068  63.4284592  16.1165428
  57.6473808  64.2674713  16.4777565  58.3225937  63.6518822  15.2710571
  65.8076096  21.5118275   8.8977680  66.1497650  22.3792591   8.6816130
  66.2307587  21.2871170   9.7264328  69.5110168  53.3641205  29.6451149
  68.7292480  53.0026016  29.2275314  69.2400513  53.5444679  30.5452728
  81.4315720  65.4821930  16.7514896  82.1808624  64.9029846  16.8904419
  81.7614899  66.3555222  16.9628620  75.5065842  10.3916960   1.6443185
  74.7521667  10.0941896   1.1358174  76.2344513   9.8561668   1.3286285
  18.1140347  51.1541634  87.8656158  17.7754536  50.2965584  87.6085052
  17.6294231  51.3742981  88.6611862   5.6479788  19.7563305  59.2085075
   6.0064545  20.6340504  59.3401794   5.6221161  19.6483154  58.2577744
  61.6963463  14.9008036  47.1350784  61.0942307  14.1706524  47.2784920
  61.3133011  15.3872976  46.4051247  70.5151596  67.8189392  66.1428909
  71.3405685  68.1993027  66.4433289  70.6366577  66.8746185  66.2415390
  24.5015793  53.2125053   6.4526415  24.8367577  53.2367172   5.5563707
  23.6389275  52.8050690   6.3748226  79.6828690  51.0227051  43.3922844
  80.1709213  51.8015289  43.6596146  79.3805008  51.2219582  42.5062218
  57.8356476  58.6502495   6.0540881  57.8540077  59.5138054   6.4666004
  58.7296944  58.3212547   6.1472535  44.8017349  64.1768417  26.6206055
  45.2225418  64.8908920  27.0994434  44.5053482  63.5734787  27.3020325
  50.9692612  27.2216835  21.9041500  51.3333664  27.5913715  22.7085094
  50.2287636  26.6911583  22.1981564   1.8598596  35.9039345  30.2451496
   1.4650525  36.1018448  29.3959198   2.7135620  36.3360634  30.2189312
  35.0409889  39.0145531  49.1474609  35.3852196  39.7732124  49.6188087
  34.5206490  39.3898163  48.4370728  29.9733391  61.1178703  33.8803673
  30.2260704  60.5870552  33.1249886  29.2702141  61.6794205  33.5540123
  31.0417423  30.7643433  12.4097137  31.0447140  31.1347218  11.5270796
  31.9659843  30.7231903  12.6553030   9.3517885  13.0818367  72.8491516
   8.6076612  12.6268721  73.2435074   9.6324339  13.7064514  73.5179749
  51.7499886   6.4150357  88.1722336  50.9552231   6.5614023  88.6852188
  51.8798180   5.4670033  88.1969604   2.5429275  12.6363325  44.3037605
   2.5519893  12.4901896  45.2496948   1.6199534  12.5674982  44.0596046
  15.3448210   8.4185877  57.7064552  15.1340094   8.6205158  58.6180573
  16.1672974   7.9311595  57.7531357  53.4281578  40.9376526  26.4680786
  53.9571609  40.7546387  27.2445431  54.0107765  40.7510452  25.7318974
  63.0967712  32.6540947  40.3236885  63.9430046  33.0644035  40.5019188
  62.4940491  33.0709190  40.9394951  63.5468864  64.6661530  75.6554871
  64.0634384  64.2440872  76.3419724  63.5039940  64.0161362  74.9541473
  29.7470188   7.9210658   0.8863414  29.2776375   8.7446680   1.0189810
  29.4709625   7.3677087   1.6169716  67.2539597  10.5490503  60.2374725
  67.8182831  11.2963820  60.4356155  66.6770172  10.8625965  59.5410080
  59.8830223  58.8970947  -0.0149126  59.9859085  59.7152405   0.4711828
  59.4972305  58.2901077   0.6167222  66.9116364   6.0613279  63.2027016
  66.8944702   6.5878000  62.4034729  67.7176590   6.3255386  63.6462784
  40.9649124  57.1069984   8.6416149  41.0348930  57.8863297   9.1929550
  40.2606316  57.3112946   8.0264053  77.7395248  67.7514038  43.7003746
  77.5447693  67.6365891  42.7702560  77.3997726  68.6212234  43.9106293
  81.8100967   4.0980363  40.5787392  81.5810776   3.5303068  41.3145828
  80.9860764   4.2246943  40.1084366  49.2969894  57.7203712  82.7761612
  49.8201332  57.9463730  83.5452347  48.4298058  58.0804253  82.9621353
  19.9250259  25.6430569   9.9291697  19.2722416  25.5696239  10.6253824
  20.3225746  26.5033932  10.0633659  64.9111023  40.5774345  43.8320084
  64.3278046  40.5531578  43.0734520  65.1468658  39.6619682  43.9822388
  19.5809612  13.5528831  66.8924255  19.4640884  14.0429697  67.7062988
  19.5321503  12.6342411  67.1569061  67.5172195  61.2040329  87.4775848
  66.5734558  61.0689125  87.5629654  67.7519302  60.7499619  86.6682892
  64.6815338  36.1306915  80.2506561  64.7467117  35.3189011  80.7536240
  64.0709915  35.9253960  79.5426178  81.3533249  35.7222290  41.9639702
  81.4868851  36.0340271  42.8590546  82.2135773  35.4038696  41.6903763
  65.1248856  60.3727074  18.1007614  65.0978470  60.6528015  19.0156631
  64.8833160  61.1542816  17.6037560  70.1073990  32.2363586  12.8274841
  70.5529938  32.5681152  12.0479851  69.7792740  33.0204201  13.2677269
  84.7261124  67.2007294   3.3395085  84.8557968  67.8770599   4.0043321
  83.8674774  66.8285828   3.5407422  22.9968758  60.0769844  52.6967812
  22.3423386  59.4697723  52.3516655  23.8021622  59.8510857  52.2312508
  45.1351624  64.1734238  43.6372414  45.4392357  65.0589600  43.8362007
  45.6416206  63.6093216  44.2216377  35.6642303  55.1652565  61.1351814
  36.2643127  55.6579971  60.5754128  34.8839951  55.7166557  61.1936913
  82.3637390  17.6019402  44.9794312  82.0711212  16.8701363  44.4362297
  83.2563019  17.7788486  44.6823273   7.4036040  37.3325996  12.2594576
   8.1539450  37.2509460  12.8481455   7.0205293  38.1826096  12.4761829
  47.0650024  65.1343994  30.3738785  47.9116173  65.5646667  30.2540703
  46.5542603  65.3929138  29.6067104  10.6032219  35.6056824  57.0832787
  10.3396416  36.4591827  56.7393341  10.6021976  35.0289078  56.3193665
   3.0564852  62.5481529   9.9008856   3.4616826  61.6828423   9.8435392
   3.5846272  63.0987206   9.3228102   9.0577469   7.0192337  80.4425430
   9.6185255   6.3261333  80.0941620   9.6211805   7.5018435  81.0474091
  83.1184464  21.8860111  60.0707130  82.3217850  21.4166622  60.3182259
  83.0006027  22.7647572  60.4314766  17.7780361  45.6791306  43.3595963
  17.5540257  46.4098129  42.7832680  18.7169380  45.7778168  43.5175705
  38.4739075  34.9606209   1.8548117  37.5379677  35.1181145   1.7305146
  38.5658035  34.0093117   1.8019086  77.0188904  14.5097771  44.0254173
  77.9469910  14.6357718  44.2228508  77.0079727  13.8362350  43.3453751
  56.0179901  25.7712212   5.4075594  56.0058212  24.8214359   5.5258465
  55.9691887  25.8951759   4.4596753  45.6442108  30.4539280  16.7071781
  45.5010376  30.6286259  17.6373463  45.8001747  31.3165321  16.3227024
  45.9101372  22.6062813  75.5839615  45.7174454  22.5935898  74.6464462
  45.2457809  22.0373249  75.9727478  50.2415924   6.3208137  84.0537720
  49.7847557   5.5408373  83.7388611  49.6246834   7.0369816  83.9029236
   1.4402179  68.1867294  13.6887856   1.4194098  67.2568283  13.9147921
   1.7055498  68.6239853  14.4978848  23.3781948  62.2800255  34.9183159
  23.2541542  62.7075233  35.7657204  23.2609329  61.3477478  35.1009254
  70.5609665  67.2150574  82.0985870  71.0780869  66.5071182  81.7143478
  70.6495132  67.0906982  83.0435410  55.8142014   1.3821173  39.5585632
  55.6410332   2.2436764  39.1791420  56.5144119   1.5360589  40.1927834
  71.7382736  18.1979942   7.3139129  71.0817566  18.7055893   6.8368688
  71.2579193  17.8148403   8.0478668  47.0597229  59.8301964  61.1424408
  47.1786842  59.5747414  60.2276611  47.0337029  59.0016518  61.6210518
  46.5306091  56.5723686  32.0132065  46.0859184  57.3674774  32.3069534
  47.4454002  56.7035370  32.2625732  35.0680580   0.7088528  35.5905495
  36.0140533   0.7566965  35.4525795  34.9688606   0.6086095  36.5373039
  78.3747787  47.7270164  61.6620064  77.5000458  47.8876686  61.3080711
  78.7117767  46.9954529  61.1448212  50.2773933   1.4468768  47.6496849
  50.8761635   2.1911397  47.7111549  49.5234337   1.7014730  48.1816254
   7.2535343  11.9686918  61.1929932   6.3215485  12.0842247  61.3781586
   7.6980319  12.4270458  61.9061279   1.1778694  44.1184425  53.5051842
   1.6349370  44.8943863  53.8295784   0.4606136  44.4668503  52.9756699
  52.6204185  36.5657883  10.3820086  51.6916008  36.6020126  10.1534882
  52.9747391  35.8654518   9.8340874  18.7035103  13.7832460  54.8056412
  18.4554234  13.3550997  55.6250153  18.6712856  13.0852900  54.1513863
  73.1390228  57.0898476  56.3564034  73.3259811  57.9521255  56.7275543
  72.3484268  57.2207260  55.8328934  39.6529808   8.1109238  80.7965012
  38.9534760   8.4761343  81.3382950  39.8199387   7.2463050  81.1717224
  25.7646198  49.9063988  69.2037048  26.3492661  49.1594963  69.3323746
  26.3017845  50.5555840  68.7495651  68.7374649  69.5869980  23.2497730
  69.6256104  69.3849792  22.9554558  68.4752502  70.3401947  22.7204647
   9.6107531  13.5283146  29.3565655   8.6871510  13.7788343  29.3358116
   9.9908037  14.0715208  30.0470142  27.1530323  59.5226784  62.8335228
  27.4942169  59.2916107  63.6974869  26.2942562  59.1016922  62.7947083
   0.6394066  56.6137238  29.4539413   0.4839151  57.1716766  28.6918774
   0.2453186  57.0906105  30.1843548  58.6531334  71.1946411  48.0174408
  58.9598999  70.7038803  47.2550201  59.2134628  71.9702301  48.0443573
  65.6996460  55.7068710  84.1777344  65.2715378  55.5811996  85.0245819
  66.3097382  56.4300537  84.3227463  81.2009659  17.5121002  54.3945770
  81.3220825  17.5708961  55.3422623  80.3208771  17.8569469  54.2437401
   1.3983663  46.3410378  45.1308174   0.7593641  45.8339729  44.6300278
   2.2467258  45.9852600  44.8663597  74.4135437  20.6860809  66.9213562
  75.3545151  20.7828636  67.0677948  74.1543655  21.4975872  66.4848785
   3.0478046  21.6480503   7.5193439   2.7311752  21.2746315   8.3418627
   3.7412782  22.2531815   7.7822928  14.4368725  34.9856415  17.4347076
  15.1254292  35.5847969  17.1463814  13.6408529  35.3182411  17.0200253
  10.5736914  66.5341797  48.8013611  10.9472275  65.6529083  48.7928009
  10.8032360  66.8999176  47.9470940   2.1952703   3.4624252  76.1205826
   1.9231230   4.2635779  75.6730118   1.9675392   2.7591717  75.5124664
  76.5928192  22.3736324  78.2478867  76.6059952  21.8240166  79.0314560
  76.6148987  23.2697887  78.5835190  73.3407516   0.8206802  12.1852741
  73.4914322   0.8833280  11.2420874  72.4070969   1.0031136  12.2912989
  24.7419186  53.6044617  79.4155273  24.9834003  53.0453873  80.1540070
  25.2007904  53.2236748  78.6667480  24.6716919   9.4511709  11.1716614
  24.7478142   9.5706491  12.1183195  24.8355236   8.5181875  11.0340614
  70.8704910  37.8350639  10.7562075  71.1493683  37.3950539  11.5592327
  71.4276352  38.6115646  10.7026968  12.9443197   7.9146609   1.2539201
  12.2939625   8.6059971   1.1301354  13.5321932   8.0017138   0.5035484
  85.4734497  16.4991074  49.3722801  86.0136490  15.8130426  48.9802017
  86.0707245  16.9726906  49.9512520  51.7720146  14.4019995  22.5822792
  51.0283661  13.9189472  22.9426670  51.3915863  15.2159357  22.2521038
  33.5467148  45.3519897  74.4324570  32.8570328  45.0154381  73.8603516
  33.5437050  44.7603149  75.1848755  27.4381714  71.6145096   5.1198654
  27.9137039  71.0455704   4.5145521  27.8064461  71.4106445   5.9795427
  41.4161377  47.9676895  26.2470646  41.3428841  47.7296410  27.1712933
  41.3955383  48.9246635  26.2438583  26.3855438  43.9005928  20.2309437
  27.2715950  43.5385933  20.2208061  26.1271954  43.8757629  21.1522846
  20.1845379  30.3538780  20.7852898  19.8300362  29.6725273  21.3565388
  20.2724266  31.1200294  21.3523178  17.4107552  11.0209322  11.1863804
  18.0837288  10.4472952  11.5528221  16.6138668  10.7909365  11.6641903
  50.0898399  29.7041779   8.2409172  50.9779778  29.5762424   8.5741949
  49.7869072  28.8229580   8.0220165  71.0311813  32.1816864  28.1346054
  71.1056747  33.1040688  27.8898773  71.3332214  31.7038002  27.3621883
   5.7273054  19.8635273  25.4306087   5.2821727  20.6766243  25.1919365
   5.9900045  19.4797993  24.5939636  66.9513168  19.0050278  40.9061241
  67.7742691  18.6593876  40.5604210  67.2012329  19.4577065  41.7116394
  64.0780640  62.7400665   1.8816890  63.7303619  63.3193893   1.2036633
  65.0222778  62.8967438   1.8694761   3.0425808  62.3539467   7.1109328
   3.6175184  62.8513145   6.5292921   3.6387208  61.8325424   7.6485057
  40.2481804  67.5599747  19.2898598  39.6900635  66.8828659  19.6723003
  41.0329552  67.5612411  19.8379097  41.9149017  37.7982483  20.8072891
  42.2252884  38.4446831  21.4413338  41.3478012  38.2946625  20.2172031
  21.3172283  21.4439297  20.7637005  21.3106365  20.4951534  20.6371593
  20.8923130  21.5754757  21.6112709  33.1740265  53.2941818  39.4189186
  32.7609673  53.3353195  38.5564079  33.7282524  54.0737038  39.4564857
  24.3460846  62.4019852  74.2501144  23.8279953  63.1349297  74.5826950
  24.9069824  62.1524239  74.9845123  37.8701096  65.2860489  78.0023041
  37.9271507  64.3381805  78.1228256  37.7300339  65.3999710  77.0622864
   6.6323347  65.1219254  54.4684219   7.0130939  64.2825089  54.7265587
   6.3772669  65.5332947  55.2942238  53.2470551  18.3511276  58.4145241
  52.4885292  18.9106350  58.2477417  53.2841644  18.2759075  59.3680420
  56.0383224  64.6225510  42.7782402  55.9919510  65.5326462  42.4853058
  56.6096420  64.1945114  42.1405792  41.6737137  66.5386200  78.8813095
  42.2571754  66.8752518  78.2012482  40.9036903  67.1055984  78.8384399
   0.3102968   3.1904762  52.9742279   0.1852392   2.2553813  53.1360626
  -0.4316966   3.6102197  53.4095383  85.5320816  62.8987045  30.5452309
  84.8475876  63.5633659  30.4682674  85.1425018  62.1090927  30.1697617
  58.3292236  55.7206421  54.2645073  57.8912468  56.5368500  54.5057793
  58.5784111  55.3263817  55.1003876  19.5104942  30.0878334  87.9002151
  20.1826401  30.6998920  87.6004944  18.7354107  30.6321945  88.0385895
  50.6248512  35.1691704  71.0374603  50.9069595  34.8090706  70.1966400
  51.3221817  35.7768402  71.2838364  71.3691254  66.9307632  57.0356979
  70.4356232  67.1402435  57.0661354  71.4803391  66.2374344  57.6862030
  72.6620483  21.8916073  43.6484833  72.0514832  21.4387970  44.2302055
  72.8206787  22.7332230  44.0759811  32.4009361  47.4259529  20.3439178
  32.8618317  48.2090759  20.0430374  32.1436005  47.6300850  21.2429943
  75.8947220  22.4945354  25.0034885  75.1588364  22.0487919  24.5839500
  75.8512421  23.3917904  24.6729202  25.8724556  62.8749352  25.7210464
  26.3512840  62.7920761  26.5457230  26.0398502  63.7732811  25.4361134
  19.0097389  55.9338493  19.7585640  18.3850250  56.3949890  19.1988182
  19.8389473  56.3913918  19.6196346  39.7112045  40.0798912  22.4212189
  39.3982620  39.4010887  23.0191517  40.6122475  39.8261375  22.2213078
  58.4648285  69.5325470  20.0650997  58.4640503  69.0158234  19.2593517
  58.9890060  69.0181580  20.6789989  24.9012127  12.9068108  10.2649641
  25.2728806  13.4076653  10.9910774  24.1917248  12.4010334  10.6612568
   0.4726723  65.5371094  21.3779507   0.3307064  66.4507980  21.6254444
   0.6450132  65.0887070  22.2058792  63.3174095  41.0285072  83.4005966
  63.9972000  40.5440865  82.9321442  63.0421791  41.7093048  82.7865982
  60.7994537  11.7230186  54.9585419  61.4478798  11.2675629  54.4215736
  60.0321922  11.8022881  54.3917389  26.4455318  32.5967102  76.3662872
  25.8129292  32.4198570  75.6700287  27.2805309  32.2868080  76.0156174
  67.8140335  11.9762983  73.4430161  67.7109909  11.0326147  73.3202286
  68.4419250  12.2382879  72.7697067  28.1141129  45.7097931  27.9748077
  28.0503292  46.0003891  28.8845978  28.7035599  44.9562111  28.0048409
  56.4320526  55.7873726  82.5266724  57.1579170  55.7082596  83.1456223
  55.7597618  56.2711067  83.0065231   2.4986079  54.3021545  59.2063675
   2.2757068  53.3808479  59.3395805   1.7192742  54.6807175  58.7994766
  17.7369099  37.2099190  14.2755556  18.2791939  37.3493652  13.4992094
  18.2431965  37.5910149  14.9929609  10.7407436  40.9286156  47.0538712
  10.7487793  40.1991386  46.4341698  10.1164551  41.5517845  46.6821747
  64.6671982   7.5399885  11.4324684  64.1020203   7.3579936  12.1832571
  64.0738144   7.5440011  10.6813955  21.9861012  58.4932976   6.0703888
  21.4806519  58.1323471   5.3420572  22.8701534  58.5993996   5.7190642
  40.4404144  62.0168343   1.2961271  39.9812775  61.5905266   0.5724657
  41.3468475  61.7209320   1.2121506  79.2748413  46.6632195  58.6348381
  78.9072647  46.3156242  57.8222504  80.1546936  46.9537697  58.3946877
  29.8867569  52.1775475  66.0121994  29.5696030  52.7625084  65.3241119
  30.1673813  51.3898315  65.5463791  47.4964867  55.8553123  57.8564796
  47.5168419  54.9681816  57.4975624  48.4179115  56.0979347  57.9478073
  47.0598259  15.3179855  77.6326828  46.5183640  14.7533674  78.1842728
  47.3075523  14.7635937  76.8927383  48.5666504  22.3629589  69.6236954
  49.3861618  22.2050266  69.1549911  48.1883430  23.1295605  69.1930771
  17.1821709  45.3348885  77.3024445  17.5995960  44.8665581  76.5794983
  17.8498116  45.3614426  77.9878540  44.3012047  51.2924843  28.6111431
  43.6462555  51.1841850  27.9215469  43.8578682  51.8099365  29.2833977
  18.1324310  53.8290787  58.9241524  18.3512421  53.0613861  58.3959465
  18.1408310  54.5574150  58.3031120  74.6226425  58.3658447  67.6962128
  75.1762466  59.1303368  67.5371475  74.9898605  57.9638443  68.4834747
  36.3854599   4.4412279  68.8901825  35.7010231   3.8415751  69.1871567
  36.3443680   4.3973379  67.9348679  57.5860023  22.3441620   9.3593016
  58.0173569  21.7364712   8.7585697  58.2554588  22.9982033   9.5600224
  47.2616806  50.5501137  62.3964081  46.5858231  49.8729973  62.3654289
  48.0302277  50.1397209  61.9999924  40.6239815  46.1908569  59.2346573
  39.8380699  45.8616219  58.7985649  40.5907516  45.8063087  60.1105843
  19.6927261  49.1976471  20.7028465  19.0789852  49.9306221  20.7508087
  20.5504532  49.5928535  20.8588810  30.4167500  68.8334732  15.7679949
  30.2196617  69.2848816  16.5887394  31.3345604  69.0423813  15.5941648
  84.3302231  16.8275661  85.3226013  84.6173477  17.2121181  84.4944000
  84.8863983  17.2397842  85.9836426   6.7671466   8.1770630  27.0058708
   7.0898366   9.0448999  26.7630482   6.7823524   7.6786242  26.1888275
  71.6288147   6.5678220  44.8059654  72.4833450   6.9840541  44.9189453
  71.6135712   5.8704009  45.4614067  69.6552124   6.5979948   1.2400837
  69.3565140   5.7283115   0.9742600  68.9485168   6.9362435   1.7899959
  36.3143768  67.6703262  41.3666916  36.1113586  68.4804993  41.8342705
  36.7871399  67.1370316  42.0056915  53.6903076  48.7332497   7.4845314
  54.4902802  48.2944603   7.1951509  52.9986000  48.3506737   6.9447069
  41.8948631  48.8720360  20.2352619  41.9372482  48.0128784  19.8154011
  41.2297707  49.3487549  19.7386494  82.6844406  51.2937508  24.7039242
  81.7364273  51.2671356  24.8335209  83.0492172  51.0342369  25.5499859
  60.3466759  10.3515902  35.5806503  59.9095345  11.1879454  35.4204979
  61.2339935  10.5922642  35.8470573  28.0812168  54.4478035  76.1102982
  28.0323181  54.1737022  75.1944885  27.3278313  54.0287590  76.5262833
  45.7076683  41.7651520  53.7438164  46.3163910  42.4076805  53.3793373
  45.2172470  41.4437752  52.9872246  59.2345505   0.9369209  75.0903549
  58.3976555   1.3619848  74.9028549  59.4894714   1.2776889  75.9477463
  64.4579163  19.9707699  12.8993282  63.9329224  19.8684998  12.1055050
  64.7813187  20.8707485  12.8583078   2.0683954  55.5487366   1.0648342
   2.6456463  54.8468323   1.3654042   1.2125535  55.1307564   0.9696562
  56.0344582  14.5811262  15.6519842  56.8925629  14.3957481  16.0334587
  55.5763397  15.0835991  16.3256893  57.6452942  52.4408493  19.5783978
  57.5841331  52.5569382  18.6302357  57.3334198  53.2696533  19.9417877
  13.9071207  56.3162346  62.3510017  14.8510647  56.3535995  62.5052910
  13.5336399  56.9040031  63.0077171  64.3832092  56.2566032  24.9260826
  63.7488480  55.5423660  24.9867840  64.8193893  56.2625999  25.7781048
   6.7119408   6.3928308  47.2041397   6.4323478   5.7997379  46.5067863
   6.3616848   7.2459536  46.9477539  42.6055374  69.3506165  30.6095600
  43.3882179  69.7903824  30.2775192  42.7093925  69.3628540  31.5610313
  51.8257675  33.2345619  66.3062592  52.1183205  33.6266327  67.1290131
  52.4137077  33.5992432  65.6447678  77.2142639  19.5085506  46.3933525
  77.6516953  19.3643894  45.5542450  76.3986511  19.9543762  46.1647949
  56.9954224  39.6618919  17.8272839  56.6885185  38.7619019  17.7174606
  57.2031326  39.7320976  18.7590332  15.9771776  24.5768719  12.5444231
  16.1700478  23.6479301  12.6713009  16.8232174  24.9700871  12.3303432
  17.8300838  43.6714249  38.6761322  17.1800213  43.0986671  38.2691917
  18.6726322  43.2844124  38.4383011  54.9300041  50.4253960  64.6946487
  55.7422295  49.9444809  64.5357590  55.0805283  51.2857361  64.3030014
  61.7631569  64.6103058  69.4974976  62.0378685  63.9803391  68.8312378
  60.8170280  64.6899872  69.3761597  43.8303642  52.3153000   1.3847709
  44.4273262  52.1766129   0.6494929  44.3990517  52.3356133   2.1544530
  85.6438293  36.4832497  79.5210648  85.1101456  37.0986595  80.0237503
  85.8173676  35.7645912  80.1290512  35.1038857  27.9348240  70.1157150
  35.8939781  28.4748745  70.1340561  34.3971443  28.5363045  70.3501740
  52.4474373   3.0224094  18.6971569  52.3317146   2.0879178  18.5252094
  51.5948410   3.4097786  18.4990215  14.7529411  58.9268494  25.5866280
  14.1995420  59.2164116  26.3119793  15.2027693  58.1518326  25.9231396
   2.2059324  44.0628929  36.2424736   2.8259203  44.7259598  36.5460968
   2.0366089  44.2937050  35.3290825  44.6564674  12.3941154   9.8308945
  44.9285889  11.4765263   9.8454514  44.4115944  12.5857086  10.7361898
  33.5175247   6.4419718  81.8179169  33.6457939   7.3514113  81.5482864
  32.5670853   6.3361249  81.8590393  39.3066139  20.5232983  80.3735504
  38.8686028  19.8251839  79.8867035  40.2351456  20.4111710  80.1698532
  10.2379322  46.7886314  48.9256859  10.5734100  47.3864098  48.2575912
   9.3695183  46.5392380  48.6096306  66.3916779  60.3109512  45.0988350
  65.8562622  60.5516701  45.8548889  67.0697937  60.9854622  45.0610657
  55.3796654  53.0737381  17.4720383  55.2990303  52.4606781  16.7413616
  55.0290298  52.5970840  18.2244263   0.1106493   3.7282438  50.0870819
   0.5356668   3.4631858  50.9027634   0.7380643   4.3195686  49.6712494
  10.2588730  23.4840679  88.2349091   9.9813633  22.9338188  88.9673386
  11.0656910  23.8993454  88.5395737  68.2986069  68.3976898  19.3718910
  67.8509140  69.1512909  18.9873276  67.7614899  68.1600876  20.1277218
   6.5472546  13.7702551  79.9232559   6.9733205  14.6266413  79.8871613
   5.6107659  13.9680490  79.9133606  53.8840942   2.4925301  48.5250587
  53.9955940   1.5536216  48.6742249  53.6732292   2.5637643  47.5940971
  33.5099869  24.2441959  77.5896606  33.3427238  23.3027554  77.5455399
  34.4338799  24.3122864  77.8305206   8.2813826  38.0245895  87.3042221
   8.2635040  38.5233459  88.1210175   9.0071697  37.4103394  87.4145050
  26.3976994   1.8447609  11.7324333  27.3482208   1.7825727  11.8266401
  26.2547474   2.6842675  11.2953691  18.9557076   0.5721498  32.3051338
  19.0372505  -0.2727396  31.8627033  19.1570053   0.3830084  33.2216148
  74.6752853  30.5066547  36.4302216  75.3123322  29.8890877  36.7894096
  74.8504715  30.5112801  35.4892006  63.2942924  14.2802687   1.8987584
  63.6172905  13.4635706   2.2794275  63.2395515  14.1017475   0.9599478
  44.2892838  22.9785385  45.3620110  43.8666420  23.7763481  45.0440407
  44.0888367  22.9579391  46.2977638  42.0534248   3.5493736  10.7987432
  41.4197159   2.9327729  11.1654148  41.5594673   4.3613892  10.6852999
  82.6049728  57.7327919  19.3614883  82.2011871  58.4563293  19.8407421
  82.1620407  57.7308006  18.5129375  68.6057205  21.9235783  35.9173126
  68.1038437  21.3735981  35.3157539  68.5880814  21.4480801  36.7478676
  20.4563026   1.8998604  16.4736862  21.0127258   1.1216217  16.4425526
  20.5760498   2.2446666  17.3585606  39.7628555  27.0724545  67.2893906
  40.6041832  27.2365265  67.7154007  39.7000160  26.1184578  67.2427597
  51.8999825  68.0517273   5.8528743  51.6545029  68.0680771   6.7779174
  52.8460388  68.1973495   5.8535175  60.1964188  32.2406387  42.0321579
  60.1943207  31.2834492  42.0364647  59.2938423  32.4830627  42.2390785
  46.3982162  28.1496429  73.2661514  46.8254814  27.3189125  73.0574265
  46.5319328  28.6900330  72.4874802  83.9351120  35.0399857  13.6931095
  83.3016815  34.6997757  14.3249798  83.8872299  34.4323082  12.9550934
  34.5822906  59.5756798  81.9262238  33.6327515  59.5584335  82.0458450
  34.8242722  60.4916954  82.0625687  74.1036682  51.0129585  72.8996887
  73.4254150  50.3733406  72.6826706  73.7266541  51.5295219  73.6119080
  53.7809486  14.8543587  11.5406418  54.1253510  15.7459946  11.5916748
  52.9720879  14.9385605  11.0357771  43.3142357  30.4821777  86.3009491
  44.0854568  31.0302830  86.4459686  43.4747314  30.0615654  85.4562225
  77.9834824  17.0943794  14.7685442  78.3432999  17.9813137  14.7789345
  77.3993530  17.0817509  14.0103445   9.1944237  11.3819370  20.0810986
   8.7365808  11.7452497  19.3230648   9.0611048  12.0286903  20.7740402
  44.0749779  43.0785294  11.0167294  44.1757088  43.5053139  10.1658831
  44.6433907  43.5772247  11.6036196  48.6700439  50.9345703  24.2217445
  48.2847290  50.5933533  23.4146900  49.4284515  51.4403915  23.9298668
  34.4919090  52.8998070  30.0277615  34.0293808  52.7101898  30.8440590
  34.2441902  53.7997208  29.8155842   4.2118163  25.7144909  61.2833099
   3.3639319  25.8744278  60.8688927   4.6352959  26.5727291  61.3013191
  80.9260178  18.3820763  20.2905750  81.5030289  17.6608829  20.0392456
  80.0875854  18.1725731  19.8790245  21.0346928  32.9468422   1.7571694
  21.0485020  31.9899006   1.7397300  20.7158756  33.1658630   2.6327367
  63.1699600  36.6349640  41.2259293  62.4254532  36.0817261  41.4622955
  63.5519943  36.2077103  40.4592896  31.7496700  58.4639359  42.0572205
  31.0237198  58.5807381  41.4443703  31.5114307  58.9976768  42.8152390
  31.3054085  47.5698700  82.4284210  31.5493889  47.2890320  81.5464706
  31.2967129  48.5258827  82.3815384  67.6119308  45.8305168  26.8631344
  66.6553497  45.8455849  26.8941879  67.8403397  44.9065399  26.9647255
  21.8118000  41.5609016  89.1367188  21.9973183  40.8059616  88.5782623
  22.0918293  42.3160477  88.6194458   1.9645162  64.1607590  49.4233856
   2.0343895  65.0404968  49.0526924   1.4435397  64.2763672  50.2180252
   2.3705206  59.6064186  10.7112541   1.8439426  59.6187973   9.9120083
   3.2759018  59.5856934  10.4012747  78.4455261  14.9542093  74.4309692
  77.8970566  14.8652220  75.2103882  79.1660843  14.3405094  74.5737991
   3.9924626  22.8292370  14.5287647   4.9275022  23.0236797  14.5929899
   3.9490743  22.0344028  13.9971743  70.2923203  64.7377243  39.9022865
  69.6343079  64.3192062  40.4573479  69.9832306  65.6380463  39.8016815
  16.0193081  58.7595558  77.7466888  15.1058102  59.0055237  77.6009064
  15.9750824  58.0285568  78.3630600  41.4037209  18.7407188   3.5365582
  42.0563736  18.8564224   4.2271290  41.3969116  19.5769844   3.0708919
  14.3191223  54.3223877  23.6452160  13.8625660  55.1467628  23.4773102
  13.8291702  53.6707764  23.1436348  31.5959244  52.9141426  48.6441956
  30.7126808  52.8618164  48.2789917  31.4814034  52.7264786  49.5758057
  14.8998365  54.3120804  85.7729263  14.9270382  53.9483032  86.6578827
  13.9772968  54.2636528  85.5223083  29.8657322  45.3083763  85.2427521
  29.2633476  46.0452461  85.3446808  30.4786644  45.3973618  85.9725647
  59.9978294  15.3910456  77.0854187  59.3411560  15.0101576  76.5023804
  59.5051613  15.9997225  77.6358948  80.7806015  40.8652000   9.8797636
  80.2022095  41.1041183  10.6040688  80.5170135  39.9751015   9.6463623
  58.8783875  50.2137794  50.4276695  59.4863586  49.5394058  50.7306900
  58.4874954  49.8453445  49.6354027  67.5868988   2.9941876  69.6041412
  67.0219955   2.6080911  68.9347763  67.5528336   2.3744655  70.3328476
  85.7719498   8.3948603  47.4928589  85.7181702   7.7391334  48.1881027
  86.4088516   8.0366840  46.8745537  45.0557671   5.2425804  71.0909424
  45.8906593   4.8081317  71.2654114  44.9091606   5.1123109  70.1540527
  44.3843307  66.7519608  59.2775154  44.4964409  65.8039627  59.2070847
  43.4716568  66.8661804  59.5424843  44.4342613  61.3959122  85.9379883
  43.6085472  61.0413399  86.2676849  44.1814613  62.1838684  85.4568939
  42.5991364  15.7949238  13.8023691  41.8929138  15.1959858  13.5599680
  42.2197380  16.6674576  13.6976061  28.5280132  28.4226227  26.0849190
  28.6099510  28.2030239  25.1568584  29.3207645  28.9207344  26.2840767
  19.9701595  66.3715897  57.5345650  20.8555775  66.6911163  57.7082520
  19.5264950  66.4233017  58.3811569   2.3637044   8.3588409  71.6698761
   3.1393418   7.9508114  72.0547485   1.6696334   8.2061892  72.3111191
  15.5548506   0.1795122  51.0981827  16.4983940   0.2390771  51.2478752
  15.1914778  -0.0575871  51.9513969  52.2552414  39.8926353  47.2495613
  53.1076431  39.5221176  47.0207291  51.6476974  39.5013771  46.6218376
  19.9783649  63.8718834  53.6072845  20.9056301  63.9964905  53.4050865
  19.8357983  62.9306602  53.5072899  71.1545563  66.1033096  84.5518646
  71.2087860  66.4869843  85.4271317  72.0306778  65.7539368  84.3888016
  15.8098040  54.8273506  33.5969772  15.5187435  53.9606285  33.3135948
  15.0190449  55.2463684  33.9366226  78.7208862  25.0719376  47.6273041
  79.3845978  25.5874996  47.1691360  78.3933792  24.4616985  46.9665680
  44.8336372  10.3766270  45.4410057  45.7601509  10.1693726  45.5628738
  44.6807976  10.2490120  44.5047455  28.5629311  59.3155403  38.0967484
  27.6313972  59.3095932  38.3168373  28.9866199  58.8803864  38.8365860
  64.7909012   9.2745981  82.9036407  65.0338364   9.5887432  82.0327072
  64.5446396  10.0654135  83.3834305  58.8321877  32.2784004  50.6307564
  58.4288673  31.4147930  50.5427475  59.0293007  32.3566895  51.5641632
  83.5517197   9.4257317  19.7066345  83.8140564   8.8146772  20.3951302
  84.2149429  10.1154203  19.7330589  12.8398209  60.2748337  54.0308838
  13.7776165  60.4199524  53.9055367  12.4812908  60.2457581  53.1438408
   7.1807485  10.4784622  58.6689186   7.6640286  11.1178827  59.1921921
   6.5334396  10.9986992  58.1929169  37.3487320  43.6450272   6.9892340
  37.6759415  43.4015541   6.1232738  37.9086685  44.3722076   7.2611055
  46.4121017  57.5234375  56.0464935  47.2380714  57.6507492  55.5798035
  46.6078720  56.8534088  56.7014503   3.3399582  69.0234985  56.7891541
   2.4582453  68.6700439  56.9069748   3.7045410  68.5200195  56.0612640
  71.2852783   1.2205257   1.1533686  71.0572281   0.3098389   1.3401139
  71.8378906   1.1739035   0.3731917  67.9909515   6.3299332  77.0374146
  67.5070877   6.0054169  76.2779465  67.5049667   5.9961967  77.7915192
   0.4087115  54.0590096   8.1371889   1.1521348  53.6073952   8.5366869
   0.7875080  54.5384102   7.4003582  64.6793594  57.9501495   5.1269374
  65.5232162  58.3271294   4.8778791  64.7484894  57.0268440   4.8841252
  80.7160187  11.9514923  40.1452484  79.8114319  12.1615677  39.9132690
  81.2436905  12.5558596  39.6232033   2.0884361  37.6045914  81.8595276
   1.5806466  36.8117409  82.0320740   2.9639943  37.4051132  82.1909485
  69.8481369  12.3281355  40.8106689  69.7674561  11.7212563  40.0748558
  70.6935577  12.1147242  41.2055626  73.7954025  25.7770061  74.5436249
  74.6392441  25.5406704  74.1585236  73.9647369  25.8180332  75.4848328
  53.8633080  60.0829430  37.4111595  53.5508347  60.6728020  36.7251129
  54.5031929  60.6010551  37.8993568  38.2845688  54.0604019  77.6806641
  37.4601135  53.7137070  77.3396301  38.0764122  54.3396568  78.5722427
  73.2906570  60.8224373   1.8702731  72.9436417  60.9450417   2.7538915
  73.7600098  59.9891930   1.9107565  28.1568108  12.4742460  73.9683914
  28.3306580  12.5035734  73.0275650  28.9622135  12.7989740  74.3710175
   9.1252155  54.5771637  88.3871078   9.3117161  55.4988594  88.2084198
   9.0620794  54.1733932  87.5215378  33.7538986  64.1823502  11.2994490
  33.5781555  64.5724258  12.1557121  34.4049492  64.7605591  10.9019165
  24.5873833  57.6066666  22.9921780  23.9809971  58.2425308  22.6124420
  24.2307682  57.4253464  23.8617649  35.3713264  44.8064804   4.6567278
  34.4598465  44.8900261   4.9368310  35.5417633  43.8647308   4.6737461
   0.9069496  55.8438530  13.1837606   1.3317686  56.6748619  13.3963165
   1.4263862  55.4866676  12.4634562  52.4248886  60.7318611  83.3936157
  52.7696571  61.4817352  82.9087906  52.1506653  60.1140289  82.7158890
  75.3203354  39.2769737  75.0035172  74.6273117  39.6628456  74.4677353
  75.1386795  38.3372726  74.9896088  68.7541885   4.9710274  52.8443718
  69.1769714   4.7834978  52.0063248  69.4785538   5.0566020  53.4642143
  11.6650343  27.3542042  84.7820740  10.9612474  26.9584427  85.2961655
  11.2136812  27.8341236  84.0876770  78.8870316   0.1049472  42.0249977
  78.9963226   1.0203494  41.7674561  78.4580307  -0.3055167  41.2741966
  24.7036896  33.6985435  65.9832153  24.9141521  32.9645538  66.5604401
  25.2390003  33.5511894  65.2034912  32.5181465   8.2598066  10.7416773
  32.8692207   7.4897256  11.1888390  32.2522430   8.8471260  11.4491959
  29.3918858   3.0716584  30.3054161  29.0981178   3.3061543  31.1857262
  30.0054150   2.3497505  30.4420261  24.7124386  20.2374496  36.5536423
  25.0175648  19.3930397  36.2218246  24.6378727  20.7882385  35.7743454
  14.7994013   1.7673593  44.9357300  15.4808016   2.0918479  45.5244865
  14.7950115   0.8201314  45.0734711  79.7461700  57.3551025  53.3778305
  80.4629974  57.2655678  54.0058212  80.1601028  57.7092628  52.5907707
   5.8626451  11.6391315  32.3423996   5.1622176  12.1934004  32.6865196
   5.6860108  11.5854139  31.4031715  22.7283916  65.8658524  15.0265923
  22.4415073  65.2703094  15.7188787  22.2437305  65.5829010  14.2511730
  71.6598282  67.8099289  63.4256363  70.8565598  67.9807205  63.9173851
  72.0335236  67.0321655  63.8399696  78.1681976  58.7855644   6.2495313
  77.8175964  59.4856682   5.6989255  78.1267319  59.1368484   7.1389756
  64.3090973  57.9565849  77.4789505  64.2803879  58.8903885  77.2705612
  63.9657097  57.5258293  76.6961594  12.4939871  24.3743973   0.4425396
  12.3558521  24.9275570   1.2114114  13.1133423  23.7063084   0.7362875
  55.9944572  57.2900963  46.9744797  56.3037224  57.5972061  47.8266907
  56.6993370  57.5169296  46.3679161  26.0236626  47.9560013  76.0685883
  25.9773064  47.1511307  75.5525742  26.1525021  47.6564560  76.9685364
  53.4998169  61.9334412  50.9271431  53.1704216  61.0416412  51.0386200
  54.3009949  61.9599838  51.4502525  79.7063675   2.8515656  10.6152296
  79.1885071   2.1018384  10.9084215  79.5824890   2.8718288   9.6662951
  82.3891907  36.1055679  49.8461494  81.8610153  35.5342216  49.2886276
  82.6201935  35.5597992  50.5978165  79.2224579  21.6173038   4.0709753
  79.1093750  21.1642952   4.9065757  79.3988800  20.9181557   3.4414520
  38.2341118  58.6880302  49.1755638  37.9112701  58.9019623  48.3002129
  38.9749107  58.1018867  49.0210037  55.9347878  31.5007954   9.5390368
  55.7654610  30.6258316   9.1897545  55.4785538  31.5152454  10.3803902
  66.8023376  40.5026817   9.1010218  65.9808273  40.5115547   9.5922241
  67.4645462  40.7735481   9.7369022  61.2435303  25.2933578   2.1834815
  61.4170990  25.5755959   1.2854575  61.6766014  25.9500427   2.7288680
  40.7742729  12.8132982  86.4543915  40.6583366  12.9421587  87.3957672
  40.1838951  13.4496851  86.0510330  63.6142082   2.9213967  69.0782928
  63.7885742   3.7485583  69.5273209  63.1616936   2.3858590  69.7299500
   1.4748743  37.3849106  27.7970791   2.3434134  37.6524010  27.4965458
   0.9125921  37.4915009  27.0298042  32.7042809  51.2406044  64.4444275
  32.2667999  50.5169945  64.8930130  33.1890030  50.8230095  63.7324638
  10.7092924  52.3179016  84.6328659  10.6883821  52.1291275  83.6947021
  11.3700857  51.7202721  84.9827652  80.1927795  43.6050148  31.9710369
  81.0748291  43.9639816  32.0677452  80.2294540  42.7570190  32.4135208
  72.8457184  22.2100391  56.0998688  73.5215759  22.7062588  56.5616150
  73.2816849  21.8886070  55.3106651  14.6739960   3.3240936  19.6982040
  15.3453951   2.8405838  20.1795292  14.5523033   2.8251550  18.8904400
  65.0328369  22.9478741  85.5857239  64.4131775  23.0280437  86.3108597
  64.7890778  22.1303253  85.1516418   4.4451375  14.1101675  64.6609802
   4.0138879  14.9609890  64.5812454   4.8314738  14.1185989  65.5367126
  57.0544586   8.7409039  51.6688347  56.8315430   8.8176794  50.7411270
  57.9919968   8.9302425  51.7063560   9.8976736  62.7435532  79.6003036
   9.8128576  61.8672791  79.9760437   9.4000149  63.3073044  80.1925430
  56.6817703  56.0946045  25.8965015  56.5657158  55.1447258  25.8742924
  57.5347061  56.2413101  25.4875889  77.8013763  36.4261131  44.9702911
  77.9406738  35.4826698  45.0524254  77.9196930  36.6053772  44.0375023
  66.6676254  64.3485947  19.8904514  66.9608002  64.9843521  20.5432053
  67.3760986  64.3215637  19.2473583  63.3024330  22.0896778  59.3785324
  63.5800781  22.3338966  60.2614250  63.5095749  21.1575623  59.3115578
  60.5738983  30.2786236  83.5432587  60.3690262  30.4584885  82.6257095
  61.0247002  31.0665340  83.8469162  32.9728889  55.9236412  47.7520905
  32.5872231  56.0315819  48.6214828  32.7666359  55.0211067  47.5089493
  71.9484711  18.6548080  62.1058197  71.8124313  19.3393536  61.4507446
  72.3877640  17.9507313  61.6288185  60.0459251  71.7311096  72.5616989
  60.4339180  70.8647308  72.6845169  59.5986595  71.9125977  73.3882904
  24.8352165  53.2476768  28.0698414  25.7915134  53.2565231  28.1104622
  24.6076241  54.0547066  27.6081753  83.0139389  17.3423386  61.6207733
  82.6561279  17.3512840  60.7330093  82.3530807  17.7890568  62.1498756
  43.6119385  12.1295919   6.2130899  43.3471985  12.3227148   5.3137307
  44.2330780  11.4060745   6.1297979  78.2012405  39.1349411  29.6685658
  78.1713028  38.2017975  29.8796997  77.9730377  39.1778412  28.7399559
  53.5170479  40.0413322  18.9715443  54.2109833  39.9364357  19.6224518
  52.7091331  39.8583870  19.4511642  32.4013023  69.4249039  45.9107323
  31.8034897  69.5570602  45.1749382  31.8420715  69.4761810  46.6858864
  71.7426300  55.8622017  80.5133057  71.5367126  55.3813210  81.3149185
  72.2961960  55.2643967  80.0108871  70.7204590  16.1904392  38.7287674
  70.4163589  15.7570028  37.9313431  71.5029602  15.7015676  38.9835854
  73.7993546   8.6882381  40.9945831  74.5361481   8.4415808  41.5536194
  73.9761276   8.2541599  40.1599808  48.3623886  16.6658020  83.2822876
  49.0942955  16.7169285  83.8970490  48.3835335  15.7650633  82.9590988
  51.5602264  58.9536858  70.9461594  50.6462746  58.6906242  70.8379135
  52.0616722  58.1602135  70.7585754  78.3210297  29.5055828   2.6993730
  78.1339264  30.2217560   3.3062663  79.1892929  29.7076874   2.3507969
  45.5836830  62.3931274  39.4356041  46.0186310  62.5820503  40.2670822
  44.9763565  61.6818314  39.6391869  84.1557846  12.6938629  77.8911057
  83.9614944  13.6299973  77.9373322  84.7883530  12.5455332  78.5940094
  51.1931686  68.5660553  65.5505829  51.1934357  68.9122391  66.4429855
  51.1127052  69.3401947  64.9933929  32.0716705  20.2654190   5.7614031
  31.6155281  21.1012993   5.6640902  32.5249252  20.1414032   4.9274898
  49.8705635  71.5827332  27.5141430  49.3199806  70.8014832  27.4618492
  50.6944313  71.2705231  27.8883038   8.1864090  36.6961784  62.5260544
   7.2584791  36.5868568  62.3181458   8.1988163  36.9167023  63.4574203
  63.6911774  11.9732933  48.1004066  63.8507423  11.9296494  47.1576118
  64.3502960  12.5858870  48.4267769  75.7616425  34.0556755  83.4150772
  75.2716141  33.2635231  83.1946259  75.3703842  34.3591576  84.2342453
  14.7817307  34.8606377   7.9308267  14.8378487  33.9999695   8.3459558
  13.9959822  34.8131104   7.3862419  15.9092417  61.9258041  17.1000233
  15.4487877  62.1782990  17.9003124  16.5127316  62.6496391  16.9324036
  80.6689453   1.7216427  54.9067039  80.5396042   0.8449469  55.2685165
  81.5321198   1.9868490  55.2242393  63.5264702  58.1924133  17.7745514
  64.2477188  58.7988586  17.6064568  63.2737923  58.3662148  18.6812916
  18.3936329  53.8760681  64.4323807  18.9626007  53.4377213  63.7996407
  18.4782524  53.3556900  65.2313080   7.1995082  40.1932831  67.9884796
   6.2851052  39.9190369  68.0583801   7.3035755  40.8562355  68.6710510
  79.4807587   8.6697731  81.0242996  80.1827774   8.6477613  81.6746216
  78.7179718   8.3180408  81.4832764  63.5072060  28.4629288  66.6956406
  63.8694267  28.3208599  65.8210907  64.1328049  28.0419979  67.2852783
  25.3437443  70.0840073  53.8816833  25.0799713  70.9218597  53.5013390
  26.0068302  70.3145218  54.5323868  18.3939381  54.6881180  27.4774895
  17.9829330  53.8243141  27.4435711  18.5567818  54.9120255  26.5612030
  81.1873169  28.2701149  87.7303543  80.9616089  29.0246220  88.2744217
  82.0825043  28.4438725  87.4393692  46.8419609  32.6610374  74.1185226
  47.5749054  32.6585617  73.5028839  46.4846764  31.7743950  74.0691223
  50.8094292   8.4760761  79.1496582  51.5761490   8.0259533  78.7950287
  51.1110573   9.3694630  79.3143158   2.8511143  20.1460304  43.2858543
   2.4860563  19.6743793  44.0345268   2.9485736  19.4786034  42.6066818
  75.2748566  41.7386818  47.1512146  75.4504318  41.2406425  47.9495621
  74.7186203  41.1625137  46.6269379  83.1216583  66.6405487  76.9624863
  83.8662567  67.1990204  76.7390823  82.6125488  66.5853195  76.1537933
  77.5960693  19.0999413  42.6837654  78.1232529  18.9266453  43.4636879
  77.5186157  20.0535393  42.6540527  76.0544739  47.8054085  82.4893875
  75.9463959  48.1904335  81.6197357  76.1830673  46.8714943  82.3235550
   1.8961473   6.3742728   2.7811022   2.5605333   6.2421908   2.1048052
   1.9562720   7.3047657   2.9974351  63.7849617  21.3693104  23.0803394
  63.3782234  21.0792522  23.8968315  64.3897629  22.0617294  23.3468170
  13.1750269  60.4027748  27.3739567  12.4047861  60.2800446  27.9288425
  13.8444672  60.7458000  27.9659157   6.4247761  38.1417694  23.7610245
   5.9178157  37.9460716  22.9730358   7.3057189  37.8232117  23.5643196
   0.8008644  61.1745758  28.1427231   1.7307339  61.2201958  27.9202538
   0.6459340  61.9484291  28.6843700   6.1662712  17.2456379  27.5006542
   5.3508158  17.7260532  27.6437092   6.8555899  17.8785305  27.7019444
  23.3166313   2.4610329  43.6082878  23.7326736   2.7483199  44.4210663
  23.6815300   3.0364907  42.9360313  43.5029259  22.6821575  70.7750626
  43.7106476  23.5590210  71.0978546  42.7541008  22.8122883  70.1932068
  45.1750107  67.2125168  72.9925613  45.5118027  67.3865509  72.1136322
  45.6087570  67.8603592  73.5478821  76.7144699  17.2733746  12.4002676
  76.7798843  17.8640747  11.6499176  76.4914246  16.4245682  12.0181551
  16.5764694  10.4030952  30.9525394  16.2681427  10.6004534  31.8369675
  17.4369965  10.0044756  31.0822639   5.2693543  28.0673332  38.7990570
   6.0100131  28.2049789  39.3895760   4.5127883  27.9831715  39.3793640
  80.0906906  18.8322639  76.4502563  79.1954956  18.5757637  76.6717606
  80.3439255  18.2346935  75.7466812  70.8656998  40.1941223  76.4787369
  70.6855240  41.0504189  76.8667068  70.2697220  40.1394539  75.7317047
  47.3044205  13.3556824  41.1863747  46.5291252  13.4340668  41.7422562
  46.9559059  13.1754360  40.3132896  52.0235786  46.0358467  54.0709381
  52.3774948  46.8711510  54.3762932  52.7179985  45.4017868  54.2497597
  56.1572342  17.0077000  32.7441673  55.3156624  17.1887131  33.1627617
  55.9642944  16.3214931  32.1053162  70.1748886  71.2590408  62.3027191
  70.0941544  70.4874878  61.7419853  71.1184921  71.3945618  62.3892365
  32.3794899  48.4298897  66.0216827  32.7162094  48.9398499  66.7584305
  33.1522293  48.0006752  65.6544266  80.8180847  22.5384235  36.7648354
  80.1782150  22.0895538  37.3173866  80.3408813  23.2858639  36.4044991
  47.0266914  14.3217354   9.7542763  46.3056679  13.7616644   9.4667358
  47.2296066  14.0159731  10.6383390  69.2714920  32.7522125  40.3034706
  68.8953400  33.4764519  40.8036880  68.5443192  32.1416550  40.1823311
  68.5679169  50.9012794   2.3306220  68.1921463  51.6367607   2.8144562
  68.6095810  50.1902046   2.9700491  53.6595993  13.9485741  59.4767113
  53.6461601  14.4108124  60.3147964  53.3610344  14.5980854  58.8401375
  41.5883064  23.9096603   0.1136469  42.2366486  23.6116333   0.7516645
  41.4017639  24.8138847   0.3662532  77.7079239  70.2363281  25.7085972
  78.3572617  69.9250488  25.0779686  77.5532608  69.4864426  26.2830372
  76.7529373  57.2803574  79.0823746  77.4077148  56.6911011  79.4569168
  76.2129211  57.5431290  79.8277359  47.5457993  27.4823093   7.3895049
  46.9273300  28.1838589   7.5933599  47.8043709  27.1353683   8.2433224
  41.6715012  70.1825027  53.0166779  42.3069496  70.8927612  53.1059837
  42.1200638  69.4140320  53.3694878  54.7226639  55.4860382  80.3476562
  55.1475105  55.0640221  81.0944061  55.0751419  56.3759651  80.3430405
  65.9401932  27.3227119  63.6029549  65.5540619  26.9993420  62.7889748
  65.6165848  28.2201099  63.6816101  82.8874664  44.8908539  59.4234428
  82.8188629  45.7801476  59.7708359  82.5166016  44.3363075  60.1098595
   5.7618184  34.6324577   1.8933980   5.1344509  35.3421936   1.7558717
   6.2151942  34.5476685   1.0546528  38.5178185   2.6467404  18.9025307
  38.5102386   1.7063437  18.7241268  39.3032265   2.9681962  18.4597759
  25.6868019  67.0318375  21.8372631  25.0090065  67.3800354  21.2579689
  25.8193455  66.1325378  21.5373917  50.3700218  71.6513748  61.5622406
  50.7043571  71.5625763  60.6697350  50.8639984  71.0063324  62.0683365
  84.7202988  14.7117624  53.9545555  84.7741547  15.4723682  53.3759270
  83.8950806  14.2885418  53.7176323  12.2792006  24.2152500  13.0598307
  12.9778843  24.4747028  13.6604605  12.6091890  23.4226151  12.6366625
  36.9820595  46.1441307  44.1677246  37.6348991  46.5494919  43.5970116
  37.3845673  46.1529579  45.0361366   0.7118492   6.9524112  13.0526590
   0.2105363   7.7605572  13.1613655   0.9347292   6.6869640  13.9449005
  85.4329834  62.7225761  77.5089798  85.7757950  61.8800011  77.2110291
  84.4819794  62.6238976  77.4633026  55.8841286  54.5831757  53.9233780
  56.0336189  53.9393463  53.2310104  56.5233040  55.2742538  53.7498817
  35.0968628  62.1146927  65.4258957  34.2084084  62.3809547  65.6625137
  35.5115471  61.8958015  66.2603760  44.8759689   0.5123197  56.5979042
  44.6701660  -0.3258828  57.0117836  44.5135841   1.1686493  57.1930046
  29.0200157  41.9577065   5.6821847  29.6852150  41.4747314   6.1725731
  28.1873493  41.6418877   6.0331225   9.5188417  49.7514648  33.5249596
   9.5433044  48.9414635  33.0155144   8.5865154  49.9453888  33.6218796
  68.1483002  11.0759592  56.2970276  67.4819031  10.6874390  55.7302780
  68.8265381  10.4039211  56.3647652  55.7748871  66.9743042  45.3378296
  56.3018379  67.1177826  46.1239395  56.4165115  66.8262329  44.6431160
   2.7221680  42.8389244  51.5813065   2.1018975  43.3330688  52.1173248
   3.1626527  42.2565384  52.2002029  64.1153336  60.7897148  61.8748322
  63.8219185  60.4418907  61.0327148  63.3503494  60.7134438  62.4451103
   1.7163497  10.3252573  26.6282043   1.9474803  10.7148876  25.7849960
   2.5506442  10.0284138  26.9916172  63.0634079  57.8568268  32.8683891
  62.7977753  57.0590820  33.3258553  62.7886543  57.7161179  31.9623280
  25.4046993  69.1630554  41.9973717  25.9296341  69.9376831  42.1989288
  26.0360565  68.4438095  41.9798508  82.9663773  10.4983015  71.7645111
  83.2648163  10.2644958  70.8855896  82.7045670  11.4161625  71.6922913
  21.9543266  53.4758186  48.4805260  21.9279194  53.0627441  49.3436012
  21.8645115  52.7489281  47.8642502  16.6484642  28.9752865  58.5286179
  16.1513557  28.1672211  58.6556854  17.1063499  29.1078434  59.3586769
  45.6181793   6.6513681  82.0652161  44.7607040   7.0658412  81.9694061
  45.7986107   6.2726245  81.2048492  80.3879242   4.1850533  58.0493088
  79.6150131   3.7269838  58.3794708  80.8377991   4.4934268  58.8359146
  26.3344612  13.0393162  76.1708755  26.9551582  12.8660803  75.4630966
  26.0127411  12.1741848  76.4244080  72.1776505  53.4682922  32.2726631
  72.7527924  52.7374954  32.4993439  72.2672195  53.5582085  31.3239136
  56.7673416  42.8648453  63.7370033  55.9654694  43.0407143  64.2292404
  56.8113060  41.9101257  63.6839714  71.6748962  48.1299248  29.5527134
  71.1837311  48.6799011  30.1630497  71.9485550  48.7286301  28.8578091
  39.7483711  53.8637810  30.8769913  39.8449516  54.5437202  30.2102146
  38.8077507  53.8311996  31.0513554  56.7722054  27.4613400  63.7002945
  57.5052032  26.8460751  63.7203064  57.1502647  28.2733841  63.3628235
   1.4702129  50.7412643   2.6628003   0.8369103  50.2441597   2.1450694
   2.3128297  50.3303642   2.4694388  13.8087492  28.9085159  86.9109116
  14.1297646  29.7644272  86.6270142  13.2678909  28.6020832  86.1830368
  48.9893684  60.1775589  73.7165070  49.2213936  60.8678894  73.0953445
  49.4769897  59.4108047  73.4155960  66.0736084  68.7161484  50.4819069
  65.5858612  68.2103271  49.8319283  65.6333008  68.5287247  51.3109016
  63.4825783  24.8252907  17.1692333  63.9791107  25.1048603  17.9383392
  62.9024124  24.1375008  17.4957085  43.4692421  33.2479362   6.6926398
  43.1378288  34.1028671   6.4178891  43.7730255  32.8373680   5.8830843
  63.2019730  27.1335964  40.5896950  63.0942802  26.2102032  40.8176804
  62.3197899  27.4999390  40.6511650  73.7857361  20.4721889  58.8621635
  72.8489456  20.2763138  58.8452873  74.1345596  20.0416012  58.0816841
  46.5287666   8.8336754  70.2393036  46.8468056   9.7319822  70.1491547
  47.2945747   8.2890568  70.0572128  22.1627979  46.6064072  58.1633263
  21.6189213  46.8032188  58.9260178  21.7005978  45.8974915  57.7160683
  81.3371506  63.8125916  29.1234207  81.9531021  64.3953857  29.5674744
  81.0594101  63.1963501  29.8011684  68.6587219  41.4310036   7.2964072
  68.2093430  40.9139023   7.9649072  68.0618286  42.1566010   7.1134810
  82.9501953  61.6691704  32.0977402  82.0474854  61.7700539  31.7957859
  83.4067535  61.2682190  31.3581276  40.2235641   7.8845491  17.5858288
  39.3389397   7.6025667  17.3531189  40.0956955   8.5104733  18.2986412
  18.8023701  19.1909122  73.8926468  19.1648254  19.9236813  74.3905487
  19.3333263  19.1560574  73.0969696  10.6272535  20.9604492   4.9704738
   9.9609337  20.2930813   4.8065562  11.3271446  20.4931622   5.4265723
  49.7913399  38.3600311  37.8803291  49.2390289  37.6608086  38.2300034
  50.6860161  38.0429153  38.0037079  77.9053574  63.6499329  23.6848488
  78.8205032  63.3702698  23.7080364  77.9275665  64.5654678  23.9633102
  46.5416260  30.6714230  79.7680664  46.4330978  29.7611618  80.0435181
  47.1397972  30.6262474  79.0221558  71.0335388  47.5051994  22.3431988
  71.1456223  48.1364861  21.6324635  71.2230072  46.6569405  21.9422112
   1.0129759   7.7729716  45.2955246   0.1921258   7.9633360  44.8414345
   1.6819267   7.8246922  44.6128349  40.1411972  22.5124245  11.9761505
  39.1995506  22.4493580  11.8163023  40.3415871  21.7565346  12.5281544
  33.0748444   0.4546659  46.9671631  33.0516586  -0.3576238  46.4613190
  32.2127495   0.8472104  46.8295517  75.4864426  35.5775146  31.5212154
  75.5879898  36.0991707  32.3173256  76.3508835  35.5964088  31.1105919
  51.6329231  18.6278019  17.1077538  50.8422966  18.8061790  17.6169891
  51.7752419  19.4259682  16.5989227  12.4792805   0.9492755  78.3199387
  11.9450312   0.2934421  78.7679214  13.1114101   1.2345620  78.9796753
  73.0905380  55.9054909   2.8520908  72.9438171  56.8493767   2.9136269
  72.2479706  55.5500679   2.5692651  48.7027855  57.6891670  15.7247219
  48.7043648  56.7631798  15.9671650  47.7845612  57.8869133  15.5403471
  70.4384995  71.0774536  68.6289368  71.1418457  71.2974548  69.2397842
  69.9826508  70.3443832  69.0425110  49.9609756  31.1595516  66.3730240
  49.1491508  31.2858906  66.8641663  50.4892578  31.9301338  66.5812378
   2.1123581  66.0571976  31.8696938   2.9517469  66.1831589  31.4272099
   1.5391647  66.7231979  31.4900589  19.0119934  67.2592392  19.0712757
  18.2616253  67.3347168  19.6607513  19.7426090  67.6320953  19.5646458
  49.9280701  23.4435196   9.6412268  50.8323822  23.6365719   9.8885860
  49.6892662  22.6874657  10.1774988   6.4897866  66.5942612  45.8454285
   7.2503366  66.4165878  45.2920456   6.5858092  67.5128708  46.0967598
  48.4358521  14.2286863   3.2778370  48.6046600  13.7119265   4.0656796
  47.5007706  14.1113567   3.1102371   9.4597521  18.2588844  77.0649643
   9.3219824  18.8988323  76.3666000  10.0294609  18.7061806  77.6907349
  28.0897903  58.0356979  10.0130424  27.7091904  57.4868813  10.6987362
  27.4790192  58.7674789   9.9253864  54.6617317  57.8796043  20.3513489
  55.1951180  57.9948502  19.5649338  54.4109726  58.7684250  20.6030502
  85.0750732  18.8948650  18.0124855  85.7287140  19.3984756  17.5273438
  84.7992935  19.4784622  18.7193031  45.0888863  37.9273758  86.1868896
  44.3240891  37.5626717  86.6322021  45.7228317  38.0817566  86.8872528
  10.5877609  63.8024254  56.2230759  10.9091835  63.7081413  57.1197510
  11.2763414  64.2908478  55.7719269  56.5048294  33.2075157  49.3855019
  56.3168144  34.0329781  49.8321495  57.2373047  32.8321800  49.8742104
  69.8157806  13.6141424  81.2259445  69.6705933  13.7230082  80.2861023
  70.7365799  13.3629589  81.2985382  52.8475876  65.6959763   7.7121625
  52.7726250  64.9040756   8.2446203  52.3832130  66.3663940   8.2132902
  40.0606499  47.0954971  74.0740891  40.9128151  46.6612434  74.1124878
  39.6129417  46.6797180  73.3372574  51.9933815  14.9278107  73.3475342
  51.6192284  14.8964081  72.4670486  51.2390747  15.0495014  73.9241104
   4.8991761  52.4319763  82.4079437   4.0997243  52.8477516  82.0850830
   4.8497205  51.5330315  82.0828552  71.6209106  46.8974457   4.3367896
  71.2253418  46.0272827   4.3875198  71.5253067  47.2558212   5.2192054
   1.8694676  57.1287270  20.8681145   2.6068468  57.3975105  21.4160748
   1.2274956  56.7781982  21.4855556  19.5522385  45.6137505  78.9863815
  19.9519615  44.7687340  78.7804642  20.2879848  46.1715775  79.2388458
  85.2627029  10.6358080  55.6509628  84.4096222  10.3785524  55.3012505
  85.8162308  10.7429838  54.8774300  33.3261070  64.9745407  72.6977158
  34.0208092  64.3414764  72.5164795  32.5151329  64.4776230  72.5899048
  31.6018219  51.4441643  40.5483131  31.9603863  52.0681496  39.9171982
  30.6530743  51.5163307  40.4439049  57.7628441  54.3326416  15.5119886
  58.1539001  55.0860252  15.0695782  57.0494461  54.7035942  16.0313053
  48.0362015  70.4006653  51.3527527  48.9783974  70.4835815  51.4998131
  47.6964912  71.2878342  51.4700546  79.7677536  49.6490021  63.0590858
  80.5145645  49.6385841  62.4604301  79.2256470  48.9116516  62.7786102
  78.0484390   6.1661916  57.3064270  78.9090118   6.3490901  57.6835098
  77.5618668   5.7433214  58.0139999  85.9359970  24.1686153  18.9640045
  86.1573410  25.0997620  18.9497242  86.6034088  23.7723408  19.5241413
   1.0107592  60.3547707  80.5281677   1.2139908  60.6783752  81.4057846
   0.9251570  59.4075279  80.6360397  69.2928467  37.1348724  70.2779541
  68.7780228  37.8977890  70.0150070  68.9714890  36.9192619  71.1534424
  39.6174240  54.1264610  56.1475563  40.3258171  53.4847717  56.1989899
  38.9346695  53.7758636  56.7195358  26.8682098  51.5325813  42.6413536
  26.1179581  50.9604187  42.8025475  27.5225773  51.2559547  43.2828484
  47.9013176   4.1691480   3.5286100  47.6576347   3.6053319   4.2627511
  48.7400742   4.5506811   3.7877460  53.3519020  57.9649734  65.4298706
  52.4246254  57.7455215  65.3391342  53.4062767  58.4361343  66.2612991
  55.8836212  44.1418610  15.4439535  55.2834702  43.6025887  14.9289446
  56.2247467  43.5483894  16.1130257   3.4788170  14.6029205   1.1429390
   3.9666860  15.1163607   0.4990488   3.2454984  13.7980328   0.6803911
  11.4050760  17.8108044  11.6437654  11.8874111  18.5870571  11.3591347
  11.5309687  17.1779804  10.9367170  44.6527596  56.6810684  67.2161560
  45.4913559  56.5898209  66.7637558  44.0359039  56.9324989  66.5287704
   3.9598141  44.6177673  81.3200684   3.4775281  44.8130074  80.5166245
   4.8807096  44.7038231  81.0735321  41.3847504  38.1717911  85.7522278
  40.6293488  37.5952454  85.8670731  42.0340309  37.8425369  86.3737259
  64.8998871  46.4926682  41.5125923  65.6926117  46.0944252  41.1531181
  64.5868225  45.8608627  42.1599312  66.0814362  29.5778179   2.7339265
  65.1417313  29.7172470   2.8511934  66.4072037  30.4124527   2.3970389
  20.3236237  54.5043755  14.9660683  20.4486980  53.7981224  15.5999393
  21.1987228  54.6686058  14.6146975  64.7703171  69.2250824  63.6977844
  63.8762169  69.3256073  64.0244598  65.3198929  69.2963943  64.4782410
  57.8780556  45.8454285  82.2192993  58.1725960  46.5023079  82.8501587
  57.1928253  45.3612213  82.6800003  47.7737274  69.5862427  11.3713846
  47.2975006  68.9816742  10.8022308  48.6934013  69.4615784  11.1371078
  50.3550034  22.2775879  45.3998375  50.6486626  21.6910286  46.0969353
  49.9734955  21.6959572  44.7422714  32.8973083  63.3737488  66.1143875
  32.4820595  63.8897324  65.4233322  32.1662598  63.0124245  66.6156387
  56.4669189  28.9789009  66.4482574  56.9908371  29.7545300  66.2479019
  56.4949074  28.4572315  65.6461945  59.9519043  51.6588860  36.8796730
  59.8090820  51.6470451  37.8260841  60.2888412  50.7860909  36.6773605
  17.0582314  40.3351898  38.0165024  16.5754623  41.1595955  37.9571533
  16.5464287  39.8011208  38.6240044  80.7345734   8.8545942  65.0996323
  81.5540771   8.4844160  64.7715912  80.0693512   8.5467720  64.4840317
  48.6899719   8.8306828  59.7945404  48.9687080   9.6879930  59.4727364
  48.7981567   8.8845158  60.7440834  43.6445236  51.3796692   4.3313951
  42.8462105  51.8155441   4.0331688  43.7290039  51.6366425   5.2495785
  38.2635269   5.3702903  77.6029892  38.6456985   6.1910815  77.9136047
  38.9681969   4.9491572  77.1107330  58.9080315  13.8081875  16.3869610
  59.4790001  13.3109541  16.9726124  59.4667816  14.0355072  15.6437559
  59.9638176  21.3329563  51.5172081  59.7324638  22.2336521  51.2903748
  60.4238968  21.0023003  50.7456970  61.6498756  59.8070831   6.6434236
  61.9332733  60.1041832   7.5080914  62.2182541  60.2745857   6.0313601
  73.7544250  30.0730095   1.0601705  73.7844849  29.6147194   0.2203501
  74.4417419  29.6601753   1.5830430  69.5055008  56.3026352  41.1449661
  69.7050171  55.7759132  41.9189148  68.9067307  55.7588959  40.6330566
  71.5577087  26.6160851   6.8631277  71.8058624  26.1324635   6.0752425
  72.3492203  26.6193523   7.4013963  80.1802673  12.1835823  51.4454422
  79.5273132  12.1642094  50.7457962  80.8675842  12.7624331  51.1156502
  78.3884506   0.7975365  83.0075912  78.6513290  -0.0786851  83.2892990
  77.6526108   1.0215859  83.5773010  43.9738007  70.8500977  60.5190849
  43.8642273  70.5797958  59.6074066  44.5134888  70.1626816  60.9095001
   9.0242043  27.2291851  59.5144424   9.1361990  26.3906307  59.0666504
   9.1925316  27.0329208  60.4360580  20.2990131  39.7464905  47.9464035
  20.4943676  40.6776695  47.8416634  21.1180592  39.3638420  48.2610092
  70.4746780  20.1539135  73.9494171  70.9911957  19.7303581  73.2638245
  70.9742355  20.9385033  74.1754608   0.4483584   7.0763450  18.0025177
   0.8415549   7.8901401  18.3177395  -0.4870689   7.2700758  17.9418888
  68.4189224  20.6907673  46.0630455  68.5014267  20.4806042  45.1328545
  69.3170547  20.8502674  46.3531380  15.5041389  29.9242554   9.2209511
  15.2656975  29.1200504   8.7598324  15.3515949  29.7249241  10.1446552
  79.3074951  55.2877998  63.5392151  79.7528534  54.6670799  64.1159286
  78.6739120  54.7555313  63.0580750  84.7763824  25.5706177  61.0729179
  85.3853226  25.9378567  61.7136650  84.1187363  25.1169758  61.6001167
  69.6349106  24.9003544  69.2143173  68.6798782  24.8801746  69.2754440
  69.9355011  24.7511253  70.1107559  12.3445368  44.1788864  52.7968941
  12.6982622  44.7579269  53.4720421  11.8008842  44.7490158  52.2531815
  28.4524403  70.6796570  63.1230392  28.3598919  71.1320190  62.2845688
  27.9791088  71.2309570  63.7461433  64.0541229  12.8633213  11.7073565
  63.6206474  13.7097015  11.5979557  64.9882050  13.0721731  11.7176275
  27.7516098  26.0516415  13.2572021  27.1466103  26.1610508  12.5235548
  28.3726368  25.3873119  12.9584980  20.7321568  49.7074776   9.9685507
  21.2534161  49.1208000  10.5165749  20.5160046  50.4423637  10.5425262
  70.4270782  12.7374916  65.4902878  70.8242722  12.0261335  64.9878464
  70.4550247  13.4914446  64.9012146  72.9909592  50.8929977  24.0216465
  73.5643921  50.2701416  23.5750465  72.8218842  50.4935913  24.8749447
  39.7084846  50.6175308  19.0396748  38.9209328  50.0761871  18.9853802
  40.1506920  50.4817543  18.2016716   2.4727914  59.3808022  24.4498081
   3.3133621  58.9744911  24.2386608   2.1014628  59.6183929  23.6001625
  48.1439934  42.8909111  58.6539536  48.3901596  42.4049988  59.4410515
  47.1871338  42.9082108  58.6726189  54.6353226  60.7556305  41.6106796
  54.2490311  61.5728073  41.2956734  54.1575584  60.0695496  41.1445618
  40.2863998  12.3221140   0.1741650  39.4647102  12.7690268   0.3774676
  40.0179062  11.5160561  -0.2667594   5.8028760  33.3759270  31.4076042
   5.0157223  33.8995476  31.5574074   6.4992661  33.8571053  31.8545284
  46.3626900  26.9683208  70.2962952  46.5178490  27.8989983  70.4575272
  46.1727142  26.9159260  69.3596039  60.7223015  49.4053917  32.3849678
  60.5754013  50.1353493  32.9864769  61.6121597  49.5392647  32.0586853
  31.3232288  42.3056755  23.9621658  31.5897713  43.1726379  24.2680492
  31.7922897  41.6960297  24.5318527  33.2544289  63.3917084  14.1684828
  32.9046593  62.9115829  13.4179010  34.1850128  63.1680450  14.1833506
  45.4738541  24.1961727  87.6489258  46.0487175  24.8246517  88.0857010
  46.0408897  23.7497196  87.0201340   4.5274601  28.5102386  62.5364304
   5.3913646  28.3690376  62.1491776   4.5786481  29.3839359  62.9240723
  33.8147469   1.4502466   4.6807346  34.3366432   0.9609172   5.3166676
  34.0916748   1.1090097   3.8303821  80.6561890  33.0949974   5.2110200
  80.3547211  32.2188263   4.9708610  81.3494492  33.2908897   4.5807414
  59.5335388  66.6482239  67.6768265  59.2373085  66.2668762  68.5033035
  59.2580948  66.0188522  67.0103073  36.8208656  54.5396080  28.6152687
  37.0163841  53.6027412  28.5983868  37.0406456  54.8141441  29.5055275
  55.8005333  20.8264999  29.8047829  56.5068245  21.0357533  30.4160118
  56.1012955  21.1714439  28.9640751  18.2959442  38.8720360  68.5725250
  18.9472523  38.9146500  67.8723755  17.6486435  38.2402382  68.2593765
  73.4749374  62.8222466  48.7301483  72.7305832  63.4217110  48.6770821
  73.0786514  61.9528160  48.7874222  67.8938141  60.2972679  81.1290970
  67.9342651  60.0357971  80.2091904  67.0482864  59.9686203  81.4345551
  24.3559666  70.4175339  23.7227173  23.9911976  70.4804840  24.6054478
  25.1893196  69.9614334  23.8398933  79.5611954  33.5368996   7.6711326
  80.0565796  33.1871986   6.9305029  79.4735794  32.7966385   8.2716064
  63.7808914  11.8067293  73.6219025  64.3310394  11.1384096  74.0304642
  63.0959282  11.9806061  74.2675247  69.1424026  16.0892982  27.2130985
  69.0900574  15.8009787  28.1243401  68.5675354  15.4888668  26.7385063
  67.1863708  34.8412514  69.4662247  66.8359680  35.7240982  69.3477631
  66.6622009  34.2949371  68.8805466  47.4144783  65.1838226   2.7207875
  46.6054344  65.1182709   2.2134585  47.8143349  64.3172760   2.6470032
  16.4191666  32.5980339  77.5196152  17.1278419  33.2085228  77.7228699
  16.3710880  32.5965843  76.5636215  59.7788620   6.0992823  41.8042717
  58.8739738   6.2800283  42.0587120  59.7203331   5.8270493  40.8884697
  64.3634949  62.5536804  13.6970482  64.6404953  62.1408424  12.8790827
  64.8208771  63.3944626  13.7078657  79.9360580  31.1997070  38.1826630
  80.4601974  31.8735046  38.6156845  79.4264755  31.6767673  37.5277061
  67.9877777  56.2583733  25.1471176  68.3395386  56.1377678  24.2651005
  67.6432114  55.3982315  25.3872414  29.0428963  47.7102470  44.7537804
  28.6437740  47.6539307  43.8855858  29.8321247  47.1724091  44.6899147
  19.3526707  18.1647377   6.7608829  18.4437695  17.8873940   6.8758106
  19.3407192  18.7024117   5.9690523   8.5279770   2.5835118  46.8598747
   8.5371971   2.8015394  47.7918701   7.8255072   1.9393353  46.7715340
   1.2409517   1.3864406  70.7674408   0.5164177   0.9968213  71.2568054
   1.2876514   0.8741438  69.9602203  62.5851326  62.4450378  86.1658630
  63.3427773  62.8341827  85.7290878  62.8727341  61.5638084  86.4045105
  38.3792992  28.9865875  79.4570770  38.8844795  28.6063156  78.7384567
  38.8081970  28.6625557  80.2490845  37.1389236  53.4455681   8.8030787
  36.5482445  53.4448929   9.5562906  37.0533485  52.5678902   8.4308014
  25.6037521  41.5761261   4.4517336  25.9938602  40.8114738   4.0282302
  25.3971691  42.1701927   3.7301776  29.3679237   9.8060160  12.9324942
  28.8635330  10.1124325  13.6861057  29.0626049   8.9103823  12.7880907
  73.9725876  27.9183464  58.0357857  74.7892532  28.4133797  58.1008263
  73.4053345  28.3032627  58.7038383   3.8200092  12.8527651  78.4193192
   4.4291806  12.1174278  78.3528290   3.3384144  12.8403664  77.5921936
  57.0486259  46.7939339   3.3279247  57.1155128  45.8803978   3.6057892
  56.1305809  47.0221252   3.4740455  28.1984653  70.2306442  39.9058876
  27.4785919  69.6535568  39.6509705  28.7471771  70.2889328  39.1237411
  67.6181870   3.4593236  82.7605972  68.4336014   3.1896739  82.3379669
  67.7820816   4.3582549  83.0457230   1.3818676  33.3211136  46.1152191
   1.0989521  34.2341423  46.0644760   1.6633345  33.2076836  47.0230408
  24.2991104  56.5903625   2.8641877  24.3257771  57.0390244   3.7093062
  24.3284874  57.2955589   2.2176070  81.9273224  52.7537956  53.5636368
  81.7367096  52.1538239  52.8425713  82.8731842  52.6816139  53.6916046
  48.0222359   5.2025390  86.5761948  47.6320000   4.3598089  86.3443451
  48.7230339   5.3261929  85.9360199  80.1425705  47.0003433   5.6791692
  79.3920593  46.4099274   5.7453132  80.8877182  46.4228630   5.5133238
  11.3883400  37.3084183   6.3441467  11.1182928  36.4174271   6.5665054
  10.6452274  37.6705170   5.8615489  47.5352440  69.4241104  30.2067890
  48.2080307  69.2605820  29.5458431  47.8249435  68.9267502  30.9716015
  11.6089430  71.1251450  15.0050421  10.6889944  71.0226517  14.7612772
  11.8498640  71.9898834  14.6727390  78.6077881  64.9001007  57.8305779
  79.0007782  64.0903397  58.1562881  78.6629333  65.5069122  58.5687943
  56.8580093  54.6536293  21.5752869  57.2273140  55.1950188  20.8776131
  57.5922279  54.4932861  22.1681137   0.5104370  62.4594078  72.2926025
   0.5027672  63.4159584  72.3270264   1.1911567  62.2028084  72.9147034
  31.7800236  49.0915947  53.2934418  32.0586700  49.1237907  54.2086182
  31.8670197  49.9934578  52.9847183  65.3223953  10.8915796  34.9539680
  65.0768585  10.9145966  34.0290833  66.0757370  10.3019991  34.9871788
  19.3552608  65.5248413  36.8410645  18.6851158  66.0777817  36.4393272
  18.9674873  64.6498032  36.8542137   2.0901175  60.6098938  43.9936600
   2.6489329  60.2705498  43.2945137   2.2514644  60.0253372  44.7342644
  19.0601749   5.7074304   4.0758014  19.7990761   5.7372541   4.6835585
  18.2864456   5.7059522   4.6393366  81.5781784  24.5358791  86.7264938
  81.0323868  25.3025455  86.5516586  81.2108612  23.8485947  86.1706619
  85.6479950  60.0459824  66.9558945  85.4200745  59.4827728  67.6955414
  84.8191147  60.4488792  66.6973114  11.4479446  47.0769577  14.0672541
  10.6592894  47.4222717  13.6489096  11.2318525  47.0486908  14.9993153
  61.2977333  50.9053802  80.1588898  61.4519501  50.2108536  80.7992630
  61.3713188  50.4691658  79.3100510  38.2504997  15.6450253   6.3381572
  38.2291145  16.4145432   5.7692842  39.0929337  15.7036619   6.7888174
  53.6308784  58.6055069  30.9984360  53.1192627  57.7965050  30.9975700
  53.5394592  58.9476585  30.1091633   5.5730629  16.2296486  22.7241611
   5.3394141  17.1419678  22.5529442   5.9607248  16.2418709  23.5992622
  54.4996147   0.5270532  65.4974747  54.3435822  -0.4101036  65.6141891
  55.0143967   0.5857413  64.6926193  20.6953487  59.6083145  84.8485718
  20.1701374  60.4044266  84.7674255  20.3951778  59.0492592  84.1319199
  49.0316467  58.2995720  27.8133240  48.8883133  57.5139122  28.3409843
  48.3104401  58.3002663  27.1839657  79.3893204  47.5447426  23.5927773
  78.7227097  46.8836517  23.7793827  79.6792526  47.8425674  24.4550247
  78.0874405  56.1370583  88.8291168  77.5239487  56.1544571  89.6026840
  77.5070801  55.8708572  88.1159897  10.7909842  66.1559830   8.9165144
  10.3379908  66.7535095   9.5114794  10.8619738  66.6433563   8.0957489
  57.5905647  44.3149490   4.1830902  58.3292999  43.7166557   4.2951217
  57.3224640  44.5341988   5.0754371  73.9754028   7.8054376  74.5523376
  74.8172760   7.3828101  74.7222290  73.3241348   7.1410065  74.7773056
  86.6630548  71.5056346  89.0204358  90.0000000  90.0000000  90.0000000
