QMMM reactant CHA#2 frame 23268
 55680
  36.7880745  53.7164726  44.2929573  35.8066254  53.9488640  44.2395248
  36.8220215  53.2355690  45.1804695  37.3778381  54.5328140  44.3695831
  37.3650589  52.9256821  43.1322937  37.2215042  53.4973450  42.2154007
  38.9047661  52.7915421  43.1536255  39.3359604  53.7920532  43.1874771
  39.1434326  52.2472191  44.0673256  39.6305847  52.0860443  41.9217758
  39.3471184  51.0438194  41.7750931  39.2010727  52.4740448  40.9981499
  41.4147110  52.2631493  41.6456718  41.8420677  50.9641724  42.8817558
  41.0834427  50.1942673  42.7409286  42.8179626  50.4952698  42.7558403
  41.7539940  51.4592590  43.8488312  36.7048950  51.4990349  43.1410751
  36.6617851  50.8261375  44.1846085  36.1736412  51.0882835  41.9862022
  36.2137146  51.7559776  41.2294464  35.4423370  49.8004723  41.7022667
  34.4375076  50.0004959  42.0742989  35.1847191  49.5777359  40.2425003
  34.7109070  50.4692497  39.8316345  36.0620079  49.3862381  39.6246071
  34.1961136  48.4535637  39.9200096  34.5761108  47.4923973  40.2662163
  34.0615425  48.2690811  38.8541946  32.5469208  48.6067619  40.7629814
  31.6359501  47.2774734  40.2096710  32.1350441  46.3273239  40.3999901
  31.4845524  47.2091408  39.1324005  30.6291885  47.3461876  40.6217461
  36.1805725  48.5348625  42.2131729  37.4542656  48.4785919  42.2555275
  35.4295998  47.4991875  42.5193138  34.4366112  47.6767502  42.5697899
  35.9135170  46.1577721  42.8350830  36.9811096  46.1717110  43.0545158
  35.3064423  45.5825310  44.1795883  34.2463837  45.3393326  44.1072044
  36.0748596  44.3064766  44.7250099  35.8410645  43.3908386  44.1818314
  37.1622314  44.3814354  44.7149010  35.8087158  44.1310081  45.7673531
  35.3396759  46.6436348  45.3470497  34.8712845  47.5827637  45.0525246
  34.7980576  46.1135750  46.1304970  36.6969910  47.1157608  45.9678154
  37.2026405  46.2403297  46.3753014  37.4018631  47.4850922  45.2229309
  36.5308609  47.8571396  46.7493973  35.5426826  45.1620636  41.7895737
  34.4314613  44.9126091  41.4167175  36.6055069  44.5888023  41.2221985
  37.5022011  44.6221809  41.6857986  36.4461746  43.6228142  40.1538353
  35.4132767  43.3858109  39.8987846  36.9615860  44.2663956  38.8397217
  37.9486504  44.6880493  39.0295143  36.9586258  43.6151543  37.9656601
  36.0329056  45.4427643  38.5805397  35.0129471  45.0583458  38.5780067
  36.2407761  46.2579498  39.2736206  36.3396950  45.9474068  37.1399155
  37.3103561  46.4402771  37.1946526  36.4173241  45.1575623  36.3927727
  35.3845978  46.9178123  36.6398735  34.5442352  46.4551735  36.3238716
  35.3507385  48.3034210  36.6334953  36.4565125  48.9350357  36.9246750
  36.4464188  49.9299469  36.7510376  37.2275772  48.4085617  37.3098793
  34.2580185  48.9844055  36.2974243  33.3881531  48.4735413  36.2479401
  34.2153702  49.9614487  36.5497589  37.1612473  42.3185768  40.4156151
  37.4372482  42.0125656  41.5533600  37.5782051  41.5142593  39.3846321
  37.3205185  41.8567047  38.4700699  38.1830864  40.1891136  39.5892563
  39.0945244  40.3563766  40.1631889  37.5225143  39.5376472  40.1613922
  38.6996346  39.3466568  38.4081573  38.1965752  39.4597015  37.2841721
  39.5802498  38.4573059  38.7249260  39.8766289  38.4082985  39.6892166
  40.4395523  37.8032074  37.7804565  40.0578499  38.0055351  36.7797203
  41.9253616  38.2976112  37.8931999  42.1245346  38.0447273  38.9345856
  42.9111786  37.3214684  37.0837631  42.7295151  36.2861862  37.3723412
  42.7477646  37.5767822  36.0367622  43.9522667  37.5590820  37.3023453
  42.2707062  39.7995262  37.6130562  42.2743149  40.0796700  36.5596771
  41.4741669  40.4932938  37.8819885  43.5406418  40.4336205  38.2495117
  43.6683655  41.4728241  37.9464645  43.4128685  40.1612129  39.2971573
  44.4818764  39.9305649  38.0278816  40.2877007  36.2632370  37.8850327
  40.5772629  35.6649590  38.9350510  40.0573196  35.5695343  36.8025246
  39.9983788  36.0994797  35.9447441  40.0304184  34.0959015  36.5782585
  40.0185471  33.6517715  37.5736046  38.7282410  33.7134438  35.8093643
  38.6218147  34.2213440  34.8508148  38.7729874  32.6906281  35.4352684
  37.2759132  33.8230591  36.4484329  37.1731949  34.8685150  36.7392502
  36.5013580  33.5137291  35.7466660  37.2936401  33.0060654  37.7742577
  37.6745987  33.7726860  38.4489975  36.2604027  32.8160973  38.0648384
  38.0842628  31.7381248  37.8178940  39.0325050  31.7710743  38.1641006
  37.7544212  30.6110020  37.2379494  36.5018196  30.3546524  37.0832558
  35.8372536  31.0658569  37.3527870  36.2156296  29.4880428  36.6506081
  38.6215363  29.7824097  36.8366203  38.3810272  29.2833710  35.9920998
  39.5875282  30.0726166  36.7843361  41.2539635  33.6768303  35.8301239
  41.8775711  34.4875412  35.1351051  41.6713104  32.4732552  36.0902901
  41.2274323  32.0156250  36.8736496  42.5912514  31.6899357  35.2911987
  42.4907417  31.8273125  34.2145729  43.6146431  31.9632568  35.5482559
  42.3837090  30.2149982  35.4638901  41.5629997  29.7624989  36.2888870
  43.1805878  29.4554749  34.7459908  43.7281189  29.8698158  34.0052948
  43.3809013  27.9621620  34.8402519  43.4852829  27.7882328  35.9112129
  42.1812553  27.1669426  34.3356094  41.3696136  27.5039425  34.9804192
  42.0993729  27.4341888  33.2820549  42.3781738  26.1074448  34.4992790
  44.6936646  27.4316444  34.1784363  45.2541885  28.1025715  33.2438431
  45.1455956  26.2301846  34.5219841  44.7176285  25.7382240  35.2932930
  46.3912125  25.6054268  34.0430183  46.4869843  25.8546333  32.9862175
  47.5482140  26.1984348  34.8699188  47.7412529  27.2547169  34.6825600
  47.5655479  25.9200306  36.3782272  48.4074554  26.4196110  36.8575096
  46.6432571  26.2898560  36.8262444  47.6786003  24.8439388  36.5099220
  48.6942635  25.6703930  34.4088745  49.3550529  26.3644428  34.3518372
  46.3344269  24.1090889  34.2319717  45.3245773  23.5616150  34.7572632
  47.2656860  23.3458118  33.7840881  48.0721855  23.8314648  33.4182968
  47.3978424  21.8480282  33.7514114  46.6501999  21.5059834  34.4670486
  47.0099297  21.1782665  32.3927612  47.1239243  20.0946808  32.4236107
  45.6581688  21.6226463  31.9281750  45.4251213  20.9694347  31.0872879
  44.9663277  21.4557171  32.7537575  45.7776527  22.6683292  31.6446724
  47.8683128  21.6582985  31.4125099  48.5635529  21.0033264  31.3163166
  48.7916870  21.4079628  34.1336555  49.7197189  22.0540199  33.6120758
  48.8817902  20.3401527  34.8687668  48.0154572  19.8874550  35.1229820
  50.1197128  19.5407906  35.1196671  50.9299927  19.9413586  34.5104942
  50.6169586  19.5688210  36.5728683  51.3596649  18.8101292  36.8195915
  51.0626564  20.9656887  37.0433121  50.1549759  21.5689602  37.0598373
  51.5402222  20.9478741  38.0229645  51.7816010  21.3357658  36.3123817
  49.4494591  19.1492405  37.5239677  48.6260834  19.8510761  37.3913994
  49.0712128  18.1620159  37.2586021  49.7840843  19.1880245  38.5606117
  50.1046524  18.0987530  34.5212326  49.0568962  17.4805489  34.3871841
  51.2646751  17.4812546  34.1555138  52.1142387  18.0246563  34.1002159
  51.3667717  16.0760937  33.7915916  50.4702988  15.6714640  33.3217926
  52.6074524  15.8408546  32.7992287  53.5081253  16.2976761  33.2093544
  52.8170662  14.7895603  32.6018791  52.4343109  16.5422649  31.4636803
  52.4589806  17.6074619  31.6935654  53.2508698  16.3728504  30.7618046
  51.1251297  16.2939262  30.7482815  50.9439583  15.2427664  30.1803570
  50.1877594  17.1114082  30.8505955  51.6100616  15.1205654  34.9764328
  51.5900688  13.8972502  34.8623085  51.8911591  15.6383314  36.1912460
  51.9675560  16.6419201  36.2753601  52.2953339  14.8594532  37.3670540
  52.1260567  13.7826853  37.3630409  53.8044395  14.8970833  37.6274109
  54.0604477  15.8911543  37.9939919  53.9296112  14.2315760  38.4815369
  54.7887459  14.3438940  36.5640831  54.6301117  13.3305540  36.1951981
  54.6462708  15.0422916  35.7394333  56.2780838  14.5241604  36.9468956
  56.4443741  13.9734144  37.8727074  56.9308510  14.1456709  36.1602936
  56.6760292  15.9313669  37.1945152  56.2971153  16.5203972  36.4668007
  57.6817474  16.3816547  37.9235802  58.3377113  15.6663799  38.7945633
  58.9673958  16.2058792  39.3712273  58.0090218  14.7545710  39.0785866
  58.1076584  17.5859489  37.7344971  59.0635490  17.8154049  37.9662819
  57.6369553  18.2993793  37.1963921  51.6377296  15.4121132  38.6147079
  51.6488609  16.6084957  38.8975029  51.0929718  14.4980049  39.4656525
  51.0719337  13.5488377  39.1210632  50.6848602  14.8358068  40.8212395
  50.2873726  15.8340006  40.6376305  49.5399399  13.9377832  41.2356834
  48.6847878  14.2619467  40.6426163  49.7813568  12.9284229  40.9024887
  49.0978012  14.0232553  42.7193527  48.9213829  15.2163868  43.1450005
  49.0389366  12.9819851  43.3985023  51.8557968  14.8151197  41.8156586
  52.3220444  13.7720470  42.3065376  52.4378929  15.9893208  42.0640793
  52.0028191  16.7863579  41.6218758  53.6135063  16.2315826  42.9093781
  53.4044914  15.8299322  43.9008865  54.8686600  15.6542444  42.2830963
  54.7437668  14.5730286  42.2241364  55.1933861  16.2347584  40.8940468
  55.2883492  17.3197498  40.9373398  56.0905151  15.9073629  40.3686180
  54.3240623  16.1224842  40.2461472  55.9163895  15.8899469  43.1732750
  56.4645844  15.1031599  43.1279945  53.9024506  17.7480831  43.1679726
  53.5074463  18.6037273  42.3451920  54.2880745  18.1273422  44.3767586
  54.5102043  17.3433075  44.9734573  54.4306831  19.4988689  44.8597031
  53.4567566  19.9846249  44.7996101  54.6478615  19.4831505  46.4217606
  53.7313347  19.1597157  46.9151840  55.4171181  18.8276310  46.8299751
  54.8322868  20.9954205  46.7833595  55.8288269  21.2429314  46.4176445
  54.0109749  21.5986347  46.3964806  54.8199310  21.2291565  48.3134270
  54.0825615  20.5212517  49.0452347  55.3895378  22.2165203  48.8072815
  55.4327965  20.2521000  43.9819908  55.1441956  21.4389515  43.7458687
  56.4613953  19.5935688  43.3941803  56.5589523  18.6062450  43.5833244
  57.4777298  20.2310753  42.5218620  57.7101822  21.2170963  42.9241409
  58.7514114  19.3259430  42.4000320  59.5142097  19.8355675  41.8113708
  59.2888527  19.1561680  43.3330078  58.7061539  17.9783440  41.7566185
  58.2515984  17.3705654  42.5389748  58.1377106  18.0318756  40.8281212
  60.1200790  17.3508892  41.4593697  60.9886475  17.2043953  42.3858566
  60.2894821  16.8924236  40.3032227  56.8933640  20.6451225  41.1239929
  57.5307121  21.2895699  40.4092255  55.6682434  20.2824841  40.7872772
  55.1833420  19.7492466  41.4948311  54.9583817  20.6273422  39.5640907
  55.6759720  21.2132988  38.9897881  54.6992760  19.2631817  38.7812614
  55.5549126  18.5879173  38.7837334  53.8102646  18.7824516  39.1895027
  54.3707047  19.3992310  37.3341713  54.1693420  18.4016647  36.9437637
  53.4509125  19.9779358  37.2494049  55.5104408  19.9694347  36.5019684
  55.3148384  20.7833366  35.5854340  56.6782074  19.6124954  36.7421188
  53.7020111  21.5237999  39.6690674  53.5350647  22.4202251  38.8560753
  52.9398613  21.3091908  40.6999054  53.2429924  20.5465145  41.2885818
  51.5588417  21.8578949  40.9492226  50.9745750  21.8457623  40.0291176
  50.8410873  20.9201355  41.9889336  51.4452744  20.7324600  42.8765373
  49.5041542  21.4719639  42.4300766  48.9271202  21.7535515  41.5492554
  48.8511734  20.8220692  43.0126152  49.7948799  22.3252583  43.0428238
  50.5918121  19.6037083  41.3347855  49.7922211  19.8567352  40.6385574
  51.4291153  19.3790226  40.6740723  50.1446800  18.4694595  42.2186165
  49.1690254  18.7038174  42.6443710  49.9398499  17.5684090  41.6404724
  50.7996788  18.4003525  43.0871277  51.6165924  23.2574348  41.4343033
  50.8303909  24.1010246  40.9407539  52.4727592  23.4469318  42.4072037
  53.1025009  22.7490482  42.7766418  52.8944740  24.8060379  42.8288651
  52.0167084  25.3773670  43.1308746  53.7353401  24.5992565  44.1236572
  53.2495079  23.8351822  44.7304993  54.7173882  24.2283535  43.8301926
  53.9312248  25.8642731  44.9434662  53.0186844  26.3666821  45.2643318
  54.8465843  25.6008492  46.1966248  55.0669785  26.5463505  46.6921501
  54.2460632  25.0458241  46.9173393  55.7413101  25.1141148  45.8084793
  54.6583710  27.0142460  44.2706566  54.8925591  27.7902145  44.9994469
  55.5881996  26.5350208  43.9642944  54.0475883  27.4280815  43.4682961
  53.5242691  25.6516762  41.7351418  53.0390701  26.7086239  41.4313889
  54.5706329  25.1659107  41.0985336  54.9468498  24.2395248  41.2412682
  55.1864548  25.8697453  39.9476738  55.6814461  26.7592888  40.3372803
  56.3317757  25.0486794  39.4019966  55.9254646  24.1769371  38.8890839
  56.8954010  25.5118866  38.5921402  57.3914375  24.4734154  40.3970566
  56.9378853  23.9283924  41.2249107  58.0644875  23.7617760  39.9188576
  58.2529678  25.6375942  40.9506340  58.1615067  26.7669754  40.4997635
  59.0549736  25.3540993  41.9679527  59.2169838  24.4168129  42.3075829
  59.7075691  26.0214329  42.3538094  54.3054924  26.2679958  38.7600403
  54.3912125  27.3895206  38.3150215  53.4747314  25.3814659  38.2113838
  53.5231857  24.4133987  38.4952812  52.4471054  25.8561382  37.1866608
  52.9138832  26.2900715  36.3023987  51.5782585  24.6374340  36.7790642
  51.6666756  23.8371696  37.5138168  50.5594177  25.0048866  36.9017143
  51.8804779  23.9888954  35.4092331  51.2655373  23.0913525  35.3431511
  51.6231041  24.6960812  34.6207237  53.3863640  23.5687141  35.3160095
  53.9711647  24.4785252  35.4514847  53.5868797  22.8756199  36.1330261
  53.6167870  23.1203384  33.9465027  52.9597626  22.2960911  33.6689339
  53.4296684  23.9471207  33.2612877  55.0438385  22.6552906  33.8312836
  55.0827675  22.0291882  33.0397148  55.6731300  23.4342690  33.6998138
  55.3178291  22.1443062  34.6582794  51.5519753  26.9742146  37.7450867
  51.3410873  27.9622650  37.0522232  51.0483856  26.7910557  38.9448280
  51.0382004  25.8774548  39.3753281  50.1681633  27.8610401  39.4851913
  49.3647690  28.1185608  38.7950134  49.4813423  27.2295532  40.6902618
  50.2113914  27.1034546  41.4897804  48.3443909  28.1095009  41.1972771
  47.6252632  28.1969414  40.3828316  47.8331299  27.5587139  41.9867973
  48.6603012  29.1183147  41.4629745  48.8825340  25.9322243  40.4425888
  49.4954948  25.1937904  40.4181519  50.8951302  29.2046566  39.8124352
  50.3549080  30.2805939  39.7500153  52.2166138  29.1159382  40.1069107
  52.5567589  28.1651592  40.0864105  53.1454582  30.2354183  40.3361664
  52.7285919  31.0160255  40.9725418  54.4125519  29.7150116  41.0296249
  54.0916939  28.9956951  41.7831039  55.0967293  29.2305584  40.3329849
  55.1352654  30.8168602  41.7357445  55.5299568  31.5505085  41.0328369
  54.5141411  31.3500347  42.4554863  56.3687134  30.2941628  42.5565071
  56.6544952  31.1088696  43.2218513  56.0059776  29.4501553  43.1431694
  57.4950905  29.8457680  41.6131859  57.2474251  28.9157047  41.1015701
  57.5803757  30.5895863  40.8209991  58.8122215  29.6813984  42.3387871
  58.6657562  28.9926815  43.0628853  59.4552612  29.3557339  41.6312943
  59.0343704  30.5527306  42.7987137  53.4234047  30.9879379  39.0392570
  53.3907127  32.1997604  39.0373726  53.6635361  30.2143440  37.9577560
  53.5606728  29.2105274  38.0010109  53.8839188  30.8275871  36.5990105
  54.5782127  31.6610508  36.7057686  54.4417953  29.7938461  35.6245003
  53.8447037  28.8825207  35.6571732  54.4571457  30.2733936  34.6457748
  55.9077606  29.4314289  35.8086777  56.4790154  30.2407417  35.3539467
  56.1426773  29.3470440  36.8697128  56.1766472  28.0540657  35.1888390
  56.5387955  27.9191399  34.0788651  56.1329651  27.0542221  36.0121651
  56.4375420  26.1071529  35.8378220  55.8532677  27.2085800  36.9703102
  52.6846886  31.5757523  35.9143372  52.9008179  32.6468353  35.3286438
  51.4835777  31.0160122  36.1199913  51.5416107  30.1388245  36.6172523
  50.1969719  31.5830879  35.8250999  50.1157761  31.8380718  34.7684555
  49.1860123  30.4922886  36.0535011  49.4933167  29.7728214  35.2945290
  49.2679596  30.1736145  37.0926476  47.7662010  30.9536686  35.8430481
  47.8612099  31.7819672  35.1409149  46.8529129  29.8945656  35.2759323
  47.3350143  29.5781097  34.3509827  46.8800659  29.0526085  35.9676514
  45.8686676  30.2508221  34.9719048  47.0303841  31.4670734  37.0814743
  47.4870796  32.3253975  37.5742455  46.0958443  31.8558178  36.6769867
  46.8751068  30.6722908  37.8110733  49.9575310  32.8773575  36.6368446
  49.3812256  33.8289185  36.1453819  50.2922058  32.8411942  37.9605179
  50.8448982  32.0269165  38.1876602  50.1149063  33.9755058  38.9098740
  49.1238174  34.3852501  38.7150536  50.1892509  33.5074463  40.3755913
  49.3484154  32.8183708  40.4547462  51.2028770  33.1250000  40.4956055
  50.1177444  34.6673813  41.3886299  50.9458237  35.3477097  41.1897774
  48.8663406  35.6020432  41.3840828  48.9633293  36.3697433  42.1517601
  48.7966728  36.3078690  40.5564003  47.9736176  35.0076714  41.5786743
  50.2815247  34.0514641  42.7541771  49.5608025  33.2434578  42.8798485
  51.3134003  33.7047157  42.8099022  50.2871437  34.6988792  43.6310577
  51.0544167  35.1450882  38.5184784  50.6317863  36.2371559  38.4020386
  52.4108810  34.8514099  38.3018074  52.7729912  33.9164276  38.4234276
  53.3373985  35.9373016  38.0739098  53.2740440  36.7686768  38.7759781
  54.7523613  35.5107079  38.3129539  54.8785782  34.5564194  37.8015747
  55.4057693  36.2352829  37.8270035  55.1201897  35.3239403  39.7891922
  54.6425705  36.1568756  40.3051300  54.5428772  34.4774323  40.1609955
  56.5551796  35.2440376  40.1164474  57.2793694  34.2332993  39.9192924
  56.9595642  36.2914162  40.7281265  53.0183983  36.4553185  36.6139374
  53.2061920  37.6552849  36.3247757  52.4176216  35.6639748  35.6288185
  52.3594666  34.6865616  35.8765602  51.7489243  36.0849953  34.3622437
  52.5041580  36.7587128  33.9574890  51.6627998  34.8237228  33.4821434
  52.6248283  34.3116951  33.4614716  50.9898071  34.1384010  33.9974327
  51.0485153  35.0831299  32.1171112  51.0926666  34.0769310  31.7003212
  50.0713043  35.5652504  32.1439476  51.9857712  35.9702797  31.2699852
  51.9800911  36.9793739  31.6820469  53.0052452  35.5885429  31.3251648
  51.5033455  36.1930237  29.8374672  51.4895287  35.2193871  29.3476257
  50.5304604  36.6844406  29.8476105  52.4708633  36.9341125  29.0741673
  53.2505035  36.4116936  28.7008839  52.1329765  37.4959831  28.3058929
  52.9227142  37.6312408  29.6485767  50.4006538  36.8788719  34.6088486
  50.0891037  37.8079109  33.8647881  49.4990463  36.6082344  35.5999184
  49.5774155  35.6974030  36.0292740  48.4155235  37.4926987  36.1073265
  47.7594795  37.5868416  35.2419701  47.5958824  36.8201790  37.2516479
  48.2921829  36.3217468  37.9260674  46.7153206  37.8088989  38.0294762
  46.0435486  38.3291550  37.3467293  46.2402000  37.1199760  38.7278671
  47.2992706  38.4800758  38.6592522  46.7343216  35.6582413  36.6212845
  45.9517212  35.9950180  35.9414215  47.3596039  34.9921761  36.0267410
  45.9469757  34.7444153  37.5942535  45.1598167  35.2301292  38.1709366
  45.5091858  33.9270020  37.0212936  46.6713028  34.3902702  38.3277588
  48.8970718  38.9214096  36.6056824  48.2315636  39.9306488  36.3773117
  50.0335808  38.9237404  37.2288742  50.5125580  38.0443764  37.3607903
  50.6636925  40.1568108  37.7788811  49.9735184  40.8501396  38.2595596
  51.8151627  39.8532448  38.7707176  52.4190216  39.1489220  38.1985435
  52.7315292  41.1196404  38.9710045  53.2673912  41.1975861  38.0250244
  51.9702415  41.8918724  39.0814743  53.4006042  41.1105270  39.8314438
  51.2774010  39.4141998  40.1673622  50.9580116  40.3352089  40.6550446
  50.4811134  38.6802063  40.0437431  52.2451324  38.7407112  41.1114616
  52.6971169  37.8600693  40.6550941  52.9582901  39.4732170  41.4895401
  51.7153053  38.3494339  41.9799576  51.1323051  41.0039101  36.5115929
  50.8998871  42.2221565  36.4395294  51.7103195  40.3291588  35.5484695
  51.8611183  39.3473892  35.7314606  52.0890617  41.0383453  34.3253822
  52.6997147  41.8731422  34.6693611  52.8887062  40.1096687  33.3143730
  53.8635521  39.9068413  33.7578125  52.4175987  39.1285820  33.3745995
  53.0470428  40.5689125  31.8980350  52.0772514  40.5023880  31.4049015
  53.3477478  41.6064034  32.0439758  54.1196899  39.8124847  31.0967617
  55.2928886  39.6339340  31.4802246  53.7276306  39.1669884  30.0433750
  50.8481865  41.5316467  33.5371666  50.7592087  42.6922913  33.0826149
  49.7641411  40.7230797  33.4170570  49.9421883  39.7790260  33.7287636
  48.6262512  41.0604630  32.5427704  48.9319344  41.5381126  31.6119061
  48.0146370  39.7535591  32.0510445  47.8613281  39.1229630  32.9267998
  47.1111412  39.9844475  31.4866982  48.8746376  38.9221268  31.0436268
  49.8769150  38.8220634  31.4601879  48.3313751  37.9772530  31.0299492
  49.0952072  39.3916588  29.6941757  49.4405212  40.6193810  29.5189877
  49.1129684  38.5984726  28.7166634  47.5868416  41.9784813  33.1529961
  46.8401985  42.6039391  32.4032478  47.4650078  42.0797081  34.4725685
  48.1649246  41.7242928  35.1080971  46.5243835  42.9271278  35.1858292
  46.0233269  43.4620857  34.3790665  45.5243835  42.0935287  35.9487190
  45.9164314  41.3777390  36.6712456  44.7989922  42.7285614  36.4572868
  44.6917152  41.2232971  35.0098267  43.7315140  41.6898193  34.4655647
  45.0315361  39.9278908  34.8553467  44.4249878  39.4163818  34.2304001
  45.8962097  39.5588913  35.2245216  47.2109604  43.9770813  36.1190071
  46.5271263  44.8986626  36.6010895  48.5801811  43.9276505  36.2861404
  49.0730095  43.1448174  35.8806877  49.3711472  44.9594765  36.9866943
  50.4104042  44.6325684  37.0210190  49.2234230  46.3160095  36.1802597
  48.2247162  46.6720352  36.4331169  49.9154091  47.0263062  36.6327362
  49.5044861  46.3213425  34.6779480  50.8147316  46.1701698  34.1630478
  51.5662270  45.9234581  34.7911339  50.7430153  45.8973732  32.8222084
  51.5370598  45.5391426  32.1837997  49.4592209  45.9694824  32.4701385
  49.2329292  45.7699242  31.5062580  48.6653938  46.1709366  33.5922089
  47.5977669  46.0086098  33.6068954  48.9979591  45.0786514  38.4549141
  48.8470993  46.1810570  38.9637260  48.9297943  43.9027443  39.1583824
  49.1525497  43.0579262  38.6516685  48.3133125  43.7659607  40.5397224
  47.7264557  44.6192513  40.8797150  47.4740944  42.4463844  40.6883698
  48.1337662  41.5946579  40.5225220  46.7387466  42.4890366  41.9953918
  47.4256439  42.4154625  42.8385162  46.2230606  43.4193382  42.2335129
  45.9744148  41.7125893  41.9634323  46.4771271  42.3311386  39.6631813
  45.8130722  43.0125008  39.7911491  49.4929771  43.7659798  41.5316200
  50.4279518  42.9469719  41.4229012  49.5198479  44.7059059  42.4767532
  48.6697006  45.2507133  42.4535484  50.1205215  44.4930649  43.8649101
  50.9133568  43.7664375  43.6873741  50.6506310  45.8757515  44.3477211
  51.4702873  45.6450768  45.0282021  51.0123444  46.3930206  43.4590721
  49.5242119  46.7997742  45.0202789  48.6992569  46.9713173  44.3288116
  49.2126274  46.2187805  45.8883018  50.0772209  48.1233101  45.4992447
  50.7231979  47.8811493  46.3431511  50.6582832  48.6719170  44.7579613
  49.0203819  49.0609207  46.0289841  48.3960266  48.5766411  46.7798157
  49.5619507  49.8686676  46.5212746  48.1169853  49.7738838  45.0170174
  47.6073837  49.1406212  44.4175262  47.4610748  50.3638229  45.5088005
  48.6495285  50.3598480  44.3900032  49.1279755  43.8217697  44.9222450
  47.9245338  43.9841805  44.8167267  49.7179718  43.0456390  45.8659248
  51.1084671  42.7165298  46.0452766  51.7553444  43.5938263  46.0458145
  51.2961807  41.9130592  45.3330269  51.2399483  42.1684570  47.4912758
  51.2501106  42.9575233  48.2431870  52.0641594  41.4581871  47.5567741
  49.9272881  41.4276695  47.7027397  49.5948944  41.6499748  48.7167397
  49.9694748  40.3696480  47.4440651  48.9217186  42.2121429  46.8491173
  48.4397812  41.3990860  46.3061867  47.8585625  42.9234619  47.7481384
  46.8049011  42.3573074  48.0252609  48.2010155  44.1401482  48.2626953
  49.1723518  44.3966141  48.1586151  47.4148521  44.9766083  49.1382637
  47.1790466  44.2927589  49.9536438  48.1829834  46.2141800  49.5858955
  48.7463417  46.5683174  48.7225800  47.5248680  47.0392990  49.8582268
  49.1612740  45.9623528  50.7138443  48.8067703  45.1170120  51.3036194
  50.0968513  45.5902443  50.2963028  49.5327187  47.1525803  51.6488914
  50.2814217  46.9851837  52.6618080  49.1056404  48.3151588  51.4990082
  46.0924034  45.4790077  48.5624771  45.1730843  45.8232498  49.3200684
  45.8475571  45.4014778  47.2194824  46.6492004  45.1086769  46.6793556
  44.5948067  45.7346420  46.5544205  43.9656258  46.4582214  47.0727463
  44.9230537  46.2001038  45.1258507  45.5244484  45.5063820  44.5383339
  44.0338593  46.3220978  44.5073433  45.6291542  47.5763702  45.0409813
  45.3215675  48.5484390  45.7851677  46.4219971  47.7299500  44.0921211
  43.6339760  44.5104942  46.4338036  42.5236206  44.6466408  45.9620438
  44.0836449  43.2687874  46.7463722  45.0199738  43.2030411  47.1192932
  43.2994232  41.9878616  46.7258987  42.8414268  41.9715958  45.7369232
  44.2293739  40.7057457  46.6903763  44.7749062  40.6738205  47.6334991
  43.4021645  39.4673042  46.6118851  42.5856323  39.7130585  45.9329414
  43.9140625  38.6032829  46.1881828  42.8938332  39.2395287  47.5488091
  45.2110901  40.7248535  45.5174484  45.8531342  39.8470955  45.4437599
  44.6360359  40.7229652  44.5914841  45.8193245  41.6263771  45.5909653
  42.2960091  42.1580238  47.8043442  42.5527534  42.7735481  48.8540268
  41.0261307  41.7211800  47.5565948  40.8990364  41.3793983  46.6147156
  40.0173378  41.3957596  48.6011200  40.0707817  42.0326004  49.4841118
  38.6075897  41.4189835  48.0182648  38.4976845  40.6694031  47.2345810
  37.5581627  40.9857330  49.0322952  37.9129639  40.1005440  49.5601845
  37.4397087  41.7201920  49.8289375  36.5740547  40.7917137  48.6056976
  38.2139015  42.7732582  47.4472847  38.3886375  43.4476433  48.2856026
  39.0108910  42.9862976  46.7348785  37.2272568  42.7782593  46.9840317
  40.3116302  40.0012665  49.1316643  40.3144569  39.7662544  50.3491058
  40.4802933  39.0001984  48.2631683  40.2081528  39.0996017  47.2956161
  40.6475258  37.5765114  48.5989609  41.5243759  37.5149155  49.2435112
  39.3287964  37.1070175  49.2912483  39.5200996  36.1837425  49.8381233
  39.1475754  37.8166962  50.0984764  38.1202698  36.7726440  48.3414078
  38.0668907  37.2799263  47.3781242  38.2320824  35.7337303  48.0311584
  36.8247223  36.9976730  49.0632248  36.7189140  37.2819633  50.2592697
  35.7641640  36.9275856  48.3364487  34.9512558  36.8780212  48.9337959
  35.7069588  36.7391586  47.3458290  40.8703499  36.7481194  47.2881622
  40.7166939  37.2395630  46.1730766  41.4329720  35.5589027  47.4164581
  41.6098099  35.2800255  48.3709488  41.6068153  34.5160370  46.4104385
  41.1193733  34.9186630  45.5225220  43.1002464  34.1922417  46.0953102
  43.5451126  33.9379807  47.0573616  43.2546310  33.2887650  45.5053978
  43.8408089  35.3630524  45.5235710  43.4997787  35.5738106  44.5099754
  43.7127571  36.2915459  46.0799942  45.6673088  35.1553001  45.4188843
  45.6351395  34.3189926  43.8374710  45.3121338  33.2784843  43.8709183
  45.1456985  34.8878975  43.0469666  46.6962852  34.2262306  43.6062508
  40.8778763  33.2074966  46.7115860  40.4723129  32.8971519  47.8205910
  40.6667938  32.4245834  45.6095085  40.9188042  32.8244209  44.7169151
  40.0920067  31.0619602  45.6885796  40.3060646  30.6446018  46.6724968
  38.5366783  31.1389523  45.3492088  38.4157944  31.6937027  44.4187546
  38.1365356  30.1366005  45.1966400  37.6579475  31.7360268  46.5111923
  38.1048050  32.5680618  47.0553741  36.3474426  32.1970520  45.8797951
  36.5832596  32.8926735  45.0744362  35.7963791  31.3321915  45.5104027
  35.6770172  32.5900269  46.6441231  37.3516655  30.6558933  47.5433464
  38.1825333  30.4668446  48.2230682  36.6047897  30.9735470  48.2709312
  36.7934341  29.8416405  47.0813255  40.7204323  30.1490326  44.6059761
  40.9733582  30.6667442  43.5784988  41.0944557  28.9239902  44.9077148
  40.7475815  28.5705261  45.7879715  41.8627129  27.9942112  44.0850983
  41.8827820  28.3954239  43.0718231  43.2932129  27.7885685  44.5609970
  43.3024712  27.3727436  45.5685234  43.7884941  27.0603275  43.9187660
  43.9698601  29.1567974  44.6116447  43.5489388  29.8538628  43.8870583
  44.1094093  29.7474880  45.9605675  43.3250771  29.3784962  46.6214523
  45.0475006  29.4049835  46.3973465  43.9020691  30.8167667  46.0023689
  45.3997574  29.0220528  44.1369629  45.8491974  28.1980686  44.6911850
  45.4698868  28.8070869  43.0706711  46.0237274  29.8884735  44.3562279
  41.1592140  26.5938931  44.0355225  40.3163414  26.2845116  44.8783646
  41.3736649  25.7760735  42.9886818  41.8940010  26.1469078  42.2064819
  40.7613945  24.5006485  42.7572327  40.6502380  24.0824585  43.7576637
  39.3898468  24.5901604  42.2121506  38.8961983  25.4025803  42.7454300
  39.5401306  24.8631020  41.1676331  38.7504807  23.3412647  42.3667679
  38.3116837  23.2964382  43.2194405  41.6487617  23.6215878  41.8629990
  42.4996376  24.1520443  41.1951561  41.5650558  22.2813740  41.9940567
  40.8573494  21.8335533  42.5585976  42.2304459  21.3210506  41.0465355
  42.0508766  21.7032318  40.0416527  43.7571373  21.1463089  41.4676857
  44.1694756  22.1295605  41.6941528  43.9734421  20.5514317  42.3550606
  44.2705688  20.6683693  40.6333809  41.5549164  19.8912220  41.1767387
  40.7409630  19.7288265  42.1222420  41.6567879  19.0986729  40.1267204
  42.1594810  19.5313206  39.3649979  40.7880859  17.9768162  39.7763443
  39.7615891  18.3404427  39.8230476  41.0074387  17.5936298  38.2785034
  40.6490746  16.5642834  38.2671204  40.3883781  18.5067158  37.2509041
  40.7542839  18.3359814  36.2384453  39.3160439  18.3172760  37.2990456
  40.5908203  19.5452213  37.5128670  42.4427338  17.3379269  37.9564896
  42.4334755  16.7006454  37.2385864  41.1022797  16.7357845  40.7440414
  42.1624146  16.6419849  41.3850136  40.1679459  15.7698689  40.8632393
  38.7985420  15.9399996  40.4212952  38.7398300  15.6484489  39.3726540
  38.4061012  16.9535007  40.5044289  37.9835625  14.9457426  41.2629509
  37.1297760  14.5817003  40.6914406  37.6121407  15.3562717  42.2018890
  38.9955292  13.7796011  41.5727348  38.9643631  12.9800329  40.8325882
  38.7365837  13.2856026  42.5092239  40.3319244  14.5506277  41.6717987
  40.5036316  14.8806629  42.6963463  41.5397339  13.5805111  41.3696823
  41.7783394  12.6397829  42.1247139  42.3391266  13.8881006  40.3617706
  42.1825562  14.7438745  39.8487053  43.7148323  13.3124313  40.1363907
  43.7340126  12.3121414  40.5690155  43.9831047  13.1669054  38.6558228
  43.7918930  14.0862532  38.1023445  45.0415916  12.9469385  38.5167999
  43.1565895  12.0958881  37.9786797  43.1435394  10.8925047  38.3843002
  42.5111160  12.4165802  36.9686432  44.9428787  14.0297165  40.7189484
  46.0109749  13.3831987  40.8414574  44.7287865  15.1745453  41.2613487
  43.7700653  15.4773254  41.3576584  45.7157478  15.9684353  41.9974709
  46.7255173  15.6013288  41.8139038  45.8646812  17.4313202  41.4036751
  44.9197998  17.8847694  41.7031403  46.7224274  17.8848305  41.9003677
  46.0817299  17.2672367  39.9362526  45.1340599  16.9690228  39.4878197
  46.4429817  18.6849785  39.5171432  45.6059303  19.3823395  39.5508385
  47.3159828  19.1080093  40.0141487  46.5945625  18.6569138  38.4381027
  47.1541176  16.3353176  39.2593575  48.1067886  16.5228729  39.7546768
  46.7440338  15.3257818  39.2870827  47.3048096  16.5475216  38.2008896
  45.4138145  15.9267941  43.5266609  44.2801476  16.0834637  44.0255699
  46.4233818  15.5585279  44.2909241  47.3283386  15.4651670  43.8522491
  46.3799210  15.4463367  45.7723160  45.6889038  16.2023659  46.1451607
  45.9652596  13.9935045  46.1705513  46.7307205  13.3761139  45.7004433
  46.0243340  14.0041685  47.2588959  44.6648254  13.3894129  45.7417336
  44.4084892  12.6230345  44.6383400  45.1550636  12.2300253  44.0831184
  43.1722794  12.0967283  44.7683029  42.7201004  11.3695011  44.1102180
  42.5541992  12.6919127  45.7421646  41.6169701  12.5027199  46.0675888
  43.4373245  13.4587374  46.4509087  43.2185402  14.1619253  47.2408829
  47.6870804  15.7621508  46.4725647  47.7468834  15.7170286  47.6895370
  48.8366203  15.9692307  45.8078117  48.8151703  15.9410315  44.7984314
  50.0610313  16.2485733  46.5146065  50.3493309  15.4280825  47.1717033
  51.1592903  16.4537430  45.5334473  51.0725670  17.2975292  44.8488960
  52.1181717  16.6125641  46.0268250  51.2275925  15.6367207  44.8151741
  49.9672356  17.5292206  47.4200821  50.5782852  17.4796352  48.4784470
  49.2649956  18.5960960  47.0944023  48.6488495  18.6300201  46.2948303
  49.3630638  19.9304485  47.8388939  49.3605385  19.5955238  48.8761597
  50.6454315  20.7042236  47.4156151  51.4690361  19.9947624  47.4958725
  50.6382713  21.2176533  45.9430580  49.8266144  21.9422340  45.8774757
  51.6495705  21.5777950  45.7541695  50.3929863  20.3691444  45.3043365
  50.9318771  21.8615170  48.3069229  51.9759750  22.1170197  48.1261330
  50.2911224  22.7299728  48.1542168  50.7591133  21.3857403  49.2722702
  48.1202736  20.8300381  47.7274857  47.4916496  20.7177773  46.6657944
  47.7206421  21.6793041  48.7289619  48.3084221  21.6437893  49.5495453
  46.7610321  22.7665215  48.6078529  45.8325844  22.3453674  48.2222214
  46.5173264  23.2871170  50.0278397  47.4703407  23.4755192  50.5221710
  45.9591179  24.2231274  50.0081444  45.7541122  22.4259396  50.8733177
  44.3524475  22.3314495  50.8016434  43.7767525  22.8107815  50.0236855
  43.6558723  21.5981274  51.8263893  42.5779724  21.6013508  51.7591667
  44.3404121  20.7657509  52.7264023  43.7949333  20.3309631  53.5509109
  45.7179527  20.8887310  52.7910690  46.2795868  20.2988663  53.5003128
  46.3727798  21.7302532  51.8901405  47.4390182  21.8441849  52.0188484
  47.3108940  23.8555241  47.7101898  48.3898964  24.3807812  48.0793037
  46.6384926  24.2077122  46.5473480  45.4301720  23.5605717  45.9152260
  44.4822350  24.0824833  46.0460854  45.1772041  22.5307865  46.1675186
  45.6949387  23.6242695  44.4587784  44.7056732  23.7298241  44.0134583
  46.2324219  22.7031555  44.2334709  46.5120811  24.8637543  44.3227310
  45.9078903  25.7123489  44.0018883  47.2023010  24.7790890  43.4833717
  47.3495102  25.0661621  45.5745277  48.3259621  24.6112957  45.4079895
  47.5927963  26.4902000  46.0085144  48.4583130  27.1926098  45.4945412
  47.0216293  26.9234982  47.1332436  46.3601189  26.3649368  47.6533585
  47.1716118  28.2640076  47.6891594  46.9271927  29.0020237  46.9251633
  46.2792854  28.3251724  48.9208374  46.5143280  29.2371635  49.4695969
  45.2287331  28.3859482  48.6366844  46.5887871  27.4343624  49.4674339
  48.6413765  28.5681992  48.1802368  48.9104881  29.7822189  48.3164253
  49.4401627  27.5419350  48.3203354  49.0530815  26.6126480  48.2385254
  50.8484612  27.6491299  48.5824585  51.0095100  28.2155399  49.4997063
  51.2647591  26.1779213  48.7170753  50.4536667  25.6662540  49.2351799
  51.4595070  25.7674046  47.7262917  52.5145836  26.2028351  49.6694489
  53.2370796  26.9380760  49.3151512  52.1119423  26.4676456  50.6471252
  53.1449280  24.7515697  49.7944794  52.3461075  24.0585976  50.0586243
  53.5254898  24.3941669  48.8376389  54.1822052  24.8339863  50.8817825
  55.0208130  25.3886681  50.4608727  53.7139778  25.2738686  51.7623329
  54.7420998  23.5316181  51.3158379  53.9333305  22.9541683  51.4962349
  55.3559532  23.1654701  50.6022377  55.3453941  23.6164322  52.1214066
  51.7294044  28.4745617  47.4955788  52.6183357  29.2878895  47.9098473
  51.3024673  28.4517708  46.2406998  50.4741707  27.8956013  46.0835419
  51.8417282  29.1865330  45.0681190  52.8861046  28.9039650  44.9357033
  51.0332870  28.8228836  43.8520355  50.8909531  27.7564049  43.6774864
  50.0778618  29.3378963  43.9521446  51.5148201  29.2817841  42.9885368
  51.8518066  30.6796074  45.4254608  52.7027550  31.4090424  44.9787331
  50.7656326  31.1084480  46.1753693  50.2446404  30.4225960  46.7028847
  50.4318275  32.5066071  46.2536049  50.4051323  32.9738083  45.2691689
  49.0076714  32.6995468  46.8197517  48.8382339  32.0869408  47.7052498
  48.7470093  34.1945724  47.0937462  49.3390884  34.5801697  47.9237137
  48.8196030  34.7689781  46.1702271  47.7283211  34.3724556  47.4383202
  47.9491692  32.2382851  45.7599449  47.9312325  31.1570816  45.6228828
  46.9610252  32.4182205  46.1833725  48.0908966  32.8100014  44.8428001
  51.5435219  33.2412910  47.1575966  51.8758392  34.3532028  46.8698616
  52.0850945  32.5644073  48.1218491  51.7229080  31.6327229  48.2663727
  52.9090881  33.1210632  49.2140999  52.8670311  34.2028122  49.0870285
  52.3502808  32.9702492  50.5832520  52.9976616  33.6899529  51.0842705
  51.3302650  33.3323212  50.7120056  52.2904434  31.5226364  51.1030846
  51.7677422  30.8364277  50.4367561  53.1945992  30.9170685  51.1654472
  51.6950989  31.5066299  52.5180931  52.4819412  31.9937382  53.0940361
  50.7946739  32.0988808  52.6811028  51.5503349  30.1009827  52.9741402
  52.1863785  29.7398033  53.6706314  50.7122040  29.1965714  52.5494041
  49.9766579  29.4906807  51.5465660  49.1656227  28.8892136  51.5702095
  49.9048004  30.4477711  51.2320557  50.5766945  27.9932976  53.0056114
  49.8008614  27.4634571  52.6348686  51.2042961  27.5252266  53.6436806
  54.3810005  32.7591248  49.1315994  55.1769829  32.7577095  50.1174202
  54.7682571  32.3755608  47.9303780  53.9960022  32.2416229  47.2933617
  56.1965675  32.4931145  47.4970169  56.8764496  32.0860481  48.2454567
  56.3445244  31.6027851  46.2829781  55.6530304  31.8484077  45.4769974
  57.3104134  31.7359447  45.7957039  56.1353035  30.0542183  46.5270042
  55.1578217  29.8696747  46.9726219  56.0580254  29.5960255  45.5410080
  57.2107773  29.3705368  47.2947006  57.0016556  29.1023769  48.4748573
  58.3305817  29.3027382  46.7695122  56.6495590  33.9076042  47.1396751
  57.8572731  34.2651711  47.0192566  55.6569710  34.7633743  46.9827003
  54.7835617  34.3116341  46.7520714  55.8950882  36.2208900  46.7168045
  56.9569130  36.3651543  46.5172653  54.8875999  36.6614494  45.5884933
  53.9231186  36.6008453  46.0926819  55.1759071  37.6826782  45.3393555
  54.7591286  36.0358543  44.1665955  55.6093292  36.3466454  43.5594139
  54.4934425  34.5231628  44.0617142  54.1635971  34.2102890  43.0710487
  55.3930931  33.9435349  44.2684975  53.7362137  34.2473831  44.7956467
  53.5798111  36.6107750  43.4931984  52.6690598  36.3590508  44.0365868
  53.7402039  37.6863670  43.4192009  53.4697304  36.3185844  42.4488754
  55.6480904  37.0712547  47.9990425  54.8114738  36.5730820  48.7246513
  56.3250275  38.1722298  48.1448441  56.7374496  38.4997978  47.2830391
  56.1560059  38.9797821  49.3668556  56.3305779  38.3109016  50.2096062
  57.2897911  39.9669189  49.4367485  58.2206001  39.4355545  49.2383804
  57.1161346  40.6540260  48.6086006  57.3765717  40.7270737  50.6520920
  58.0599403  40.2041969  51.0777817  54.8238792  39.7194366  49.4569435
  54.2409554  40.1036301  48.4102402  54.2743149  39.8649254  50.6578178
  54.7233582  39.3712311  51.4159241  53.0084610  40.5640450  50.9756737
  52.8242874  40.7464905  52.0343971  53.0539246  41.5396500  50.4917030
  51.7974548  39.8240280  50.5494652  50.7152863  40.0127220  51.0901222
  51.9692497  38.8853722  49.5880585  52.8428383  38.6522179  49.1379700
  50.9128723  37.9789352  49.1613960  49.9682503  38.4809036  48.9520645
  51.3551483  37.3163528  47.8366432  52.4082909  37.0378151  47.8741608
  50.7603073  36.4053268  47.7709961  51.1894608  38.0215874  46.5172577
  52.1523743  38.7954597  45.9555016  53.1243515  39.0500526  46.3515320
  51.6228218  39.4357643  44.8572922  52.2760849  40.1142807  44.4926529
  50.3079720  39.1416130  44.5464859  49.4401474  39.6620483  43.6609955
  49.6527176  40.4299545  42.9319344  48.1695557  39.1064911  43.6176605
  47.4296150  39.4951782  42.9336967  47.7769127  38.1634254  44.5706978
  46.7492828  37.8313637  44.5598755  48.6726418  37.7268143  45.5570679
  48.3404045  36.9819145  46.2649803  49.9831238  38.2391701  45.5880089
  50.5078812  37.0204620  50.3100433  49.3226051  36.6384354  50.3232651
  51.4002419  36.6223030  51.2485657  52.3804436  36.8652916  51.2648163
  50.9871445  35.7262535  52.3492165  50.6895752  34.7243309  52.0398560
  52.1710968  35.4506874  53.3581848  51.8730659  34.7760620  54.1607780
  53.0426636  34.9872665  52.8958931  52.6687164  36.6536865  54.1913109
  51.8897781  37.3187447  54.5642090  53.0971260  36.1909180  55.0803642
  53.7319260  37.5013962  53.4907112  53.9643860  37.3600616  52.3244972
  54.3127174  38.5200005  54.1655121  55.0468330  39.0489655  53.7167702
  54.0289650  38.7032776  55.1173477  49.8230362  36.3009987  53.1142387
  48.9395485  35.5359459  53.5818138  49.6090584  37.5875320  53.1692886
  50.2850151  38.2462654  52.8097763  48.4879684  38.2234154  53.8518410
  48.4407768  37.7457237  54.8304558  48.8180923  39.6976852  54.1763344
  48.8097229  40.2160683  53.2175293  48.0953674  40.0655861  54.9046288
  50.1309738  39.8844986  54.8282852  50.3317604  39.3263054  56.1175537
  49.5280380  38.7510262  56.5528564  51.4916992  39.6105537  56.7651176
  51.7406540  39.0114136  57.6285133  52.5577736  40.4127655  56.2533417
  53.5157013  40.7566452  57.0711365  54.1566086  41.3054504  56.6132622
  52.3372955  41.0717239  55.0543098  53.0408020  41.7911377  54.6619873
  51.1530304  40.7015953  54.3410110  50.9836922  41.1830063  53.3891869
  47.1624985  38.2258377  53.1096764  46.1312294  38.6463661  53.6573753
  47.1471939  37.8957176  51.8464584  48.0075226  37.5279884  51.4660416
  45.9526558  37.7962990  51.0723381  45.3470497  38.7000198  51.1403885
  46.3258438  37.6569443  49.6169624  46.8820992  36.7452736  49.3989372
  45.0368805  37.5172043  48.8251686  44.6733551  36.4956284  48.9362106
  44.3038445  38.2511482  49.1599579  45.2558060  37.7990913  47.7952614
  47.1507187  38.8128662  49.0294228  47.6047592  38.6152382  48.0583992
  46.4227333  39.6190376  48.9387589  47.9624710  39.1822014  49.6561203
  45.1622963  36.5459099  51.5523148  45.7402649  35.4797859  51.5197830
  43.8227119  36.6521530  51.9155579  43.1098137  37.8813362  51.9947090
  42.7294617  38.0467110  50.9866982  43.7045708  38.7326012  52.3259392
  41.9859924  37.5227242  52.9614525  41.0930138  38.1291428  52.8099823
  42.4230347  37.6157837  53.9556541  41.6652641  36.0299492  52.8446846
  40.7778511  35.9916687  52.2129135  41.4045792  35.5858917  53.8053894
  42.9621773  35.4750938  52.2693062  43.4553719  34.9422836  53.0823097
  42.6910400  34.5047836  51.1418266  42.5517693  35.0458069  49.9547310
  42.6220398  33.1948090  51.3894272  42.7153358  32.9442635  52.3633995
  42.6849823  32.0814095  50.4395218  42.3414268  32.4282722  49.4649658
  44.1780777  31.6540298  50.1935272  44.2211571  30.6571178  49.7548790
  44.9281158  32.5400314  49.2915726  44.6122208  32.2679405  48.2844620
  44.6302910  33.5876198  49.2474060  46.0027542  32.4277382  49.4352531
  44.9854126  31.4818306  51.4322739  45.9935493  31.1055412  51.2586098
  45.0189438  32.4289551  51.9707260  44.4352798  30.7981377  52.0788155
  41.9253960  30.8176842  50.9897308  42.0091515  30.6154270  52.2130547
  41.3322487  29.9989319  50.1035576  41.2553177  30.3337612  49.1537819
  41.0194740  28.6351147  50.4042206  41.8173141  28.1032600  50.9225693
  39.8129730  28.5453739  51.4297218  39.8758621  29.5174885  51.9187393
  38.4264565  28.3195553  50.8667145  38.2172546  27.2908306  50.5733643
  37.7185669  28.6654663  51.6199341  38.3467140  29.0480366  50.0598259
  39.9357605  27.5321102  52.4112587  39.9282341  26.6577797  52.0149117
  40.8382835  27.8685513  49.1182251  40.9048195  28.4753742  48.0411263
  40.7720642  26.5498962  49.1359444  40.5838394  26.1901016  50.0607262
  40.7994232  25.5839558  48.0748672  41.0560036  26.0957584  47.1473312
  41.9338913  24.6177692  48.3782654  41.7242775  24.0333996  49.2741852
  42.1152229  23.8937531  47.5839005  43.5232353  25.4511299  48.7501221
  43.1758919  25.5287628  50.0378418  39.4194298  24.8933868  47.8468170
  39.0533295  24.0251331  48.7003365  38.6123924  25.3923912  46.8559570
  39.0757484  26.0949402  46.2975426  37.3267059  24.8691769  46.4854050
  36.6939278  24.6956062  47.3557892  36.6837616  25.8230038  45.4817772
  36.9461632  25.6851501  44.4328499  35.6354866  25.5414944  45.5816345
  36.9225388  27.3394947  45.7657433  36.5044289  27.6041241  46.7369576
  38.0066109  27.4460773  45.7267418  36.1517487  28.5211201  44.5404015
  37.4773903  28.4567490  43.3076439  38.4614716  28.2513504  43.7289429
  37.3624344  27.5732498  42.6796989  37.5492210  29.2610645  42.5755157
  37.4479256  23.4425392  45.9405937  38.3239288  23.2500801  45.1155128
  36.6114388  22.4480095  46.3438225  35.9914513  22.7068043  47.0979691
  36.5386238  21.1305370  45.6593590  37.5480003  20.7420082  45.5240631
  35.7944489  20.0636196  46.4560280  36.2981148  19.8989391  47.4085541
  34.7925529  20.4028473  46.7191315  35.6220970  18.7181988  45.8025513
  35.1515999  18.0695248  46.5414391  34.8767738  18.8093052  45.0124283
  36.8969078  18.0626469  45.2515221  37.7791862  17.6623135  46.0087738
  37.0388565  18.0176105  43.9728737  36.2346268  18.2261562  43.3985748
  37.8646851  17.5385380  43.6433296  35.9217300  21.3859730  44.2761497
  34.8348770  21.8723526  43.9662514  36.6792107  20.9713402  43.2408905
  37.6464195  20.7145653  43.3775368  36.2081757  20.9037914  41.8774071
  36.0703049  21.9676323  41.6841621  37.4013214  20.6724968  40.8761902
  38.1790314  21.4279175  40.9884567  37.8526611  19.7336349  41.1970291
  37.0731888  20.5475826  39.4132080  37.9726753  20.2547607  38.8716545
  36.3559685  19.7464428  39.2346725  36.5844421  21.8940010  38.7684059
  35.8166542  22.6359005  39.3641129  37.0633659  22.2240067  37.6996918
  35.0723000  19.9556065  41.5322952  35.1825066  18.8382607  42.0017509
  34.1159859  20.2941284  40.7089577  34.2580833  21.1852112  40.2552185
  33.0691452  19.3753242  40.3306427  32.9367676  18.6014938  41.0867920
  31.6069775  20.0533028  40.1433945  31.0611744  19.2332211  39.6768456
  31.1180382  20.2740173  41.0922470  31.5915985  21.1182690  39.0731926
  32.3103409  21.8983212  39.3242531  31.8359852  20.6862011  38.1027832
  29.9353828  21.6990929  38.6581650  29.5140057  20.5018806  37.3421211
  29.3967285  19.5596848  37.8774834  28.6036587  20.7411995  36.7924919
  30.2641754  20.5306053  36.5518608  33.4496040  18.7024441  39.0159416
  33.9936943  19.2713051  38.0770187  33.2252159  17.3682117  38.8582382
  32.8504829  16.9542522  39.6998520  33.6103973  16.5536919  37.6663857
  34.4892693  17.0014820  37.2025261  33.9331589  15.1500034  38.1472435
  34.5475731  15.3119888  39.0328827  33.0447311  14.6460781  38.5278511
  34.5715103  14.2690754  37.0530357  34.2960739  13.0503263  37.0010262
  35.4606743  14.7713470  36.3266449  32.4782715  16.5142422  36.6173553
  31.2804260  16.6154194  37.0132904  32.8365402  16.5029430  35.3436546
  33.8152313  16.3336735  35.1603127  31.9211025  16.5266705  34.1622162
  30.9223480  16.2475052  34.4978561  31.7428627  17.9672871  33.6700783
  32.7360573  18.4144859  33.7112045  31.1835918  18.0455799  32.2522964
  31.0319576  19.0618534  31.8885841  31.8932686  17.6516075  31.5247993
  30.2462463  17.4896336  32.2724190  30.8262367  18.8199749  34.5475006
  31.3970833  18.9064751  35.4720268  30.8012447  19.8619022  34.2283363
  29.9047909  18.2505112  34.6689377  32.4040413  15.4766083  33.1483841
  33.5683937  15.1773376  32.9633141  31.4023800  14.8772230  32.5416756
  30.4452648  15.1939964  32.6023674  31.5746098  13.7825460  31.5646935
  32.1499901  12.9726753  32.0131950  30.2284412  13.1429939  31.1216373
  30.5399227  12.3190098  30.4796543  29.5037556  12.5578890  32.3319130
  30.3380737  12.0263367  32.7895889  29.1241112  13.2890263  33.0456429
  28.7689857  11.8904696  31.8816166  29.4101982  14.0912218  30.4918575
  29.9427509  14.6161947  29.8898678  32.3188286  14.2612066  30.2736244
  31.7841282  14.9444427  29.3843422  33.5769272  13.8021488  30.1758308
  34.0437050  13.4703293  31.0077667  34.4930115  14.1492872  29.1046371
  35.1765251  13.3229208  28.9096165  34.0017853  14.4215336  28.1704636
  35.4488029  15.2808990  29.3976688  36.1923981  15.7565041  28.5655651
  35.6467438  15.6302576  30.6742687  34.9249077  15.2683296  31.2809525
  36.3770027  16.8292446  31.0967655  36.0645409  17.5780144  30.3688831
  36.0736618  17.1911507  32.0791664  37.9714928  16.6476593  31.0924931
  38.4403038  15.5893126  31.4083710  38.6794624  17.7559528  30.8785191
  38.2771301  18.6447201  30.6171341  40.1544266  17.7756920  30.7305679
  40.4588890  17.0305195  29.9956379  40.6151009  19.2163811  30.2625427
  40.2875290  19.3662472  29.2337875  40.1298218  19.9456387  30.9112263
  42.1477547  19.5082035  30.2815304  42.7061386  19.4210968  31.2135811
  42.8962402  18.5412292  29.3443394  43.9094048  18.8660431  29.1074944
  42.8506889  17.5283756  29.7445297  42.3726807  18.5541763  28.3884010
  42.2909851  20.9606800  29.7121105  41.7203789  21.0822868  28.7913914
  41.8671188  21.6877060  30.4048386  43.3582191  21.1530209  29.6020126
  40.8042679  17.3500748  32.0560112  40.3240013  17.8099899  33.0994911
  41.8341331  16.4953098  32.0484619  42.2859383  16.2378731  31.1826115
  42.3857841  16.0021172  33.2797241  41.5284157  15.9469624  33.9505272
  42.9571877  14.5823917  32.9752693  43.7364998  14.7077227  32.2235603
  43.4871330  14.1260147  33.8113174  41.9351196  13.5100250  32.5097046
  41.3427124  13.9219608  31.6927223  42.4565048  12.6147280  32.1710281
  40.9806175  13.0280180  33.6465836  41.5346832  12.3015871  34.2410698
  40.8178902  13.9489822  34.2064552  39.7911606  12.3232422  33.0749588
  39.5552750  12.8199368  32.1338120  40.1467056  11.3212309  32.8348274
  38.7047882  12.2765684  34.0364113  38.9215088  12.0134439  34.9871483
  38.1850586  13.1425838  34.0361671  38.0659218  11.5786190  33.6831207
  43.4916115  16.8561687  33.8516808  43.9846687  17.7006683  33.1306610
  43.8282776  16.5554333  35.1318779  43.4403877  15.7790833  35.6485214
  45.0170288  17.2161522  35.8275986  44.9626617  17.1010227  36.9101410
  46.3389320  16.4993591  35.4738617  46.6179314  16.5031071  34.4201813
  47.1553040  17.0359211  35.9573212  46.2865295  15.0262203  35.9295158
  45.8816643  14.9752388  36.9402504  45.5533295  14.4288397  35.3876152
  47.6746521  14.3537817  35.9892807  48.1569519  14.5231714  35.0265770
  48.2513924  14.9838333  36.6664124  47.6160011  12.9322796  36.4361420
  48.6136436  12.6450634  36.7682877  47.0090523  12.8322411  37.3359795
  47.0620766  12.1171789  35.3848190  47.1385040  11.1622858  35.7048759
  46.1151390  12.4271269  35.2194519  47.4321938  12.1880970  34.4477577
  45.0764542  18.7331371  35.7691879  46.1208382  19.3453579  35.6667976
  43.8825722  19.2965641  35.7531929  43.1312408  18.6282768  35.8480377
  43.5905609  20.7343426  35.5830383  44.3976173  21.1715965  34.9951897
  42.2813644  20.8225193  34.7113380  42.2598419  20.1513348  33.8527641
  41.5328331  20.4860973  35.4287071  42.1132507  22.5464725  34.1793709
  40.7773514  22.5388756  34.1646004  43.4650993  21.3894787  36.9808311
  43.1030769  20.7684631  37.9843597  43.8968315  22.6507511  37.0396271
  44.2168007  23.0164852  36.1542130  44.0771370  23.5396118  38.1695633
  43.5079117  23.0841827  38.9799156  45.5630074  23.6342525  38.6100349
  46.0906296  23.9406013  37.7067719  45.7678337  24.7874451  39.6801186
  45.1769562  25.6444759  39.3569107  45.3587151  24.4603176  40.6359978
  46.8324432  25.0213242  39.6833038  46.2588234  22.3285007  39.0422401
  45.9080200  22.0204678  40.0272026  45.9180794  21.5830135  38.3237381
  47.8010178  22.3794003  38.8510437  48.0838890  22.4539604  37.8010330
  48.2686882  23.2116222  39.3771477  48.2209930  21.4496708  39.2348747
  43.3996735  24.8468533  37.8923378  43.7592278  25.4523277  36.9171066
  42.5041618  25.3832130  38.6929283  42.2382088  24.7846775  39.4617729
  41.7630806  26.5864754  38.5018311  42.0151711  27.0073109  37.5284615
  40.2009811  26.2975159  38.3482437  39.9409103  25.6734028  39.2031975
  39.6918411  27.2558498  38.2458725  39.9230309  25.4250412  37.0789070
  40.4226227  25.7796764  36.1773834  40.2705154  24.3984375  37.1948433
  38.4358673  25.4251347  36.7312622  38.1739388  26.4278660  36.3935890
  38.3827286  24.7579460  35.8709488  37.4866600  25.0268154  37.7925034
  37.3435020  24.0381737  37.9414711  36.8143768  25.8228302  38.5972290
  36.6866646  27.1018257  38.5870132  36.1805534  27.5771065  39.3205414
  36.8878670  27.6070309  37.7359047  36.1683006  25.3515892  39.6000977
  35.5762329  25.8937607  40.2129593  36.1722946  24.3507977  39.7361145
  42.0234795  27.6543350  39.5402832  42.0890999  27.2924385  40.7234497
  41.9746475  28.9150600  39.1414375  41.9483337  29.1129322  38.1513596
  42.1954689  30.0921288  39.9998169  42.2261734  29.7851944  41.0452576
  43.5929298  30.6440830  39.7428169  43.7590904  31.0639114  38.7507248
  43.8694763  31.8604603  40.7011833  43.4590416  32.7763710  40.2760315
  43.4728279  31.7130890  41.7056999  44.9141617  32.0597000  40.9400101
  44.6364021  29.6479607  40.1622772  45.5858345  30.0803528  39.8464966
  44.5617027  29.4696331  41.2349930  44.6461945  28.7437801  39.5536118
  41.1259270  31.1139030  39.9237938  40.5273438  31.2175179  38.8961868
  40.9038811  31.9095058  40.9302597  41.3418465  31.6867008  41.8126678
  40.0934486  33.1480751  40.9189415  40.1512985  33.6122246  39.9343987
  38.6384048  32.8404236  41.2982330  38.1055489  32.3058281  40.5118675
  38.6461067  32.2977905  42.2435379  37.7588806  34.0615616  41.5337906
  36.7506523  33.6609077  41.6389465  38.0995789  34.6237602  42.4032516
  37.5756302  35.3373108  40.2396965  36.9764786  36.6024208  41.3837624
  36.0363922  36.2675095  41.8221397  37.6677818  36.7988815  42.2032738
  36.6970978  37.4956818  40.8250771  40.7259407  34.1492729  41.9796600
  41.3799782  33.7405090  42.9242554  40.4866486  35.4863892  41.8378334
  40.0492516  35.6578560  40.9437523  41.0049057  36.5576439  42.6970863
  41.0117455  36.2230873  43.7344513  42.4409332  36.8848343  42.3222275
  42.9405060  35.9239464  42.4456024  42.3712769  37.0755920  41.2513123
  43.0527153  38.0364113  43.0870094  42.3902054  38.4749260  43.8332596
  43.9066620  37.5435600  43.5517387  43.7557068  39.3411903  42.0039444
  44.9156227  38.3619881  41.0914001  44.4290123  37.4236717  40.8251915
  45.1336441  38.9059753  40.1723557  45.8468895  38.1678200  41.6235046
  40.0881767  37.8074188  42.6276550  39.8021736  38.1948166  41.4260101
  39.7188988  38.4255981  43.7755814  40.0463715  38.0128670  44.6372719
  38.8174858  39.5956726  43.8820801  38.2133026  39.8063622  42.9996490
  37.7900963  39.2356606  44.9646072  38.3136063  39.1480293  45.9166336
  36.7100906  40.3361626  45.0964699  37.2264557  41.2634773  45.3445778
  36.1208153  40.3367119  44.1794891  36.0286407  40.0851173  45.9093056
  37.0582733  38.0199776  44.6757088  36.3180046  38.2334213  44.1029587
  39.6350327  40.9057312  44.2534180  40.4850845  40.8362770  45.1303139
  39.5657310  42.0159416  43.6037903  38.8879356  42.0384827  42.8553314
  40.5803986  43.0598068  43.6319771  40.9512749  43.1738930  44.6505737
  41.6729393  42.7099304  42.6184998  42.3545914  41.9820404  43.0585365
  41.2953339  42.0904045  41.2425308  40.9769859  41.0616112  41.4108849
  40.5086784  42.6918602  40.7869759  42.0916481  42.0183296  40.5017319
  42.6695938  43.8027191  42.4654160  43.0059357  44.1637115  43.4373474
  43.4788361  43.4107094  41.8493385  42.1708603  44.5739326  41.8783875
  39.8361816  44.3909302  43.2947426  39.0883408  44.4162216  42.3778877
  40.1901474  45.4545479  43.9949913  41.0092659  45.3699417  44.5797844
  39.9968185  46.8093567  43.4720726  39.0037613  46.7776909  43.0238152
  40.0819550  47.8243446  44.6263580  39.6869888  48.7546921  44.2182426
  39.4745979  47.4008102  45.4262619  41.4072609  48.0695992  45.3362999
  41.7287140  47.1389084  45.8038330  42.1390343  48.3302116  44.5716438
  41.5558929  49.1932602  46.4294205  40.6847076  50.0246773  46.7649994
  42.7546616  49.3052330  46.9800606  42.8319435  49.9837151  47.7242355
  43.5987511  48.8433342  46.6730423  40.8446236  47.2562180  42.3205872
  42.0480194  47.0496445  42.2459793  40.1368103  47.9230690  41.3684731
  39.1381721  47.9698753  41.5121269  40.7436829  48.4640121  40.1839027
  41.5764542  49.1082458  40.4659615  41.3394394  47.3489799  39.2534332
  42.1023407  46.8296852  39.8334465  40.3298340  46.3714981  38.6648979
  39.4672394  46.9080582  38.2697639  40.8374748  45.7627411  37.9166908
  39.8708534  45.7858887  39.4614525  42.0129814  47.9449692  38.2303581
  42.8503380  48.1883736  38.6318436  39.7596436  49.4652786  39.5014572
  38.5235252  49.3074379  39.3954239  40.4056206  50.3430443  38.7636070
  41.3996964  50.2084923  38.6460915  39.9514465  51.2083549  37.6893311
  38.8692703  51.3295898  37.7372551  40.5604095  52.6834679  37.7123985
  39.9506340  53.3774757  37.1339302  40.3594551  52.9977684  38.7365685
  42.0600243  52.8014030  37.4830666  42.6992645  51.8469009  36.9986267
  42.5783653  53.9000397  37.7576408  40.0359306  50.6657524  36.2812309
  39.5751190  51.2470970  35.3600006  40.6711044  49.4390984  36.1012878
  41.0436478  48.9619179  36.9097481  40.5787964  48.7146034  34.7625885
  40.7335854  49.4861183  34.0083313  41.6460304  47.6247177  34.5171051
  41.4944992  46.7635345  35.1678734  41.5087242  47.1742554  33.0793991
  40.4955330  46.7982483  32.9374084  41.7431717  48.0885124  32.5341797
  42.2198486  46.3745155  32.8724480  43.0212669  48.2078590  34.8061829
  43.7081108  47.4495354  34.4302788  43.1773949  49.0218658  34.0982857
  43.3107338  48.4772186  35.8219376  39.1463356  48.1588745  34.5963402
  38.6554642  47.4472122  35.5094986  38.4326515  48.4682808  33.5095634
  38.8390808  49.2203865  32.3659172  39.3575478  48.5572891  31.6733894
  39.5138092  50.0528641  32.5654831  37.5027733  49.7144623  31.7977257
  37.6761208  49.9638367  30.7508907  37.0341377  50.5504570  32.3169518
  36.5855598  48.5607948  31.9863472  36.7010345  47.8280563  31.1876850
  35.5558014  48.9177971  31.9703884  36.9948158  47.9095955  33.3204422
  36.2757912  48.3095322  34.0353928  36.8446732  46.4175797  33.3249397
  37.6951218  45.7216377  32.8063736  35.7202187  45.9389153  33.7669525
  35.1010628  46.6148796  34.1910057  35.3349762  44.5141869  33.9078979
  36.0863647  44.1405182  34.6035194  33.9609222  44.3623810  34.4799881
  33.9167328  43.3689346  34.9263115  33.8055077  45.0276718  35.3293076
  32.7648430  44.3792534  33.5174561  32.7820320  45.3995667  33.1343498
  32.9242287  43.6504059  32.7228012  31.4350204  44.1301804  34.1612206
  30.4472542  44.3982887  33.5482864  31.2919102  43.7114906  35.4326973
  32.0358849  43.4998436  36.0821686  30.3523273  43.7457924  35.8016243
  35.6106033  43.6800308  32.6808319  36.2047997  42.5985146  32.7993279
  35.2393570  44.2363663  31.5211430  34.7177849  45.1000328  31.5674210
  35.4737358  43.6308403  30.1733932  35.0867920  42.6143417  30.2448559
  34.6899605  44.4407730  29.1517811  35.0144424  44.2222099  28.1344109
  33.6447830  44.1913795  29.3348236  34.8137474  45.9689560  29.2814159
  34.3412018  46.5111046  30.3149643  35.0888443  46.6664925  28.2727070
  36.9924316  43.6101875  29.7191105  37.3754845  42.6807365  28.9689941
  37.7966652  44.5490341  30.1605988  37.4895058  45.2229652  30.8473091
  39.2220688  44.6058159  29.7844238  39.2967567  44.0501976  28.8496475
  39.7670860  46.0910988  29.6586189  39.9466400  46.6455765  30.5797138
  40.7538567  46.0530510  29.1971645  38.9080963  47.0399323  28.8555527
  37.9612885  47.2387466  29.3576794  39.3400955  48.0337372  28.7379189
  38.6252518  46.7390327  27.3577652  39.5513115  46.9776649  26.5826817
  37.4379997  46.3373795  27.0071774  36.7239151  46.2386551  27.7145996
  37.2636642  46.1913071  26.0231190  40.1366196  43.9042702  30.8080502
  41.2977295  43.5511208  30.4896736  39.5967407  43.3522415  31.8932762
  38.6486359  43.6075745  32.1299133  40.3275223  42.3175316  32.7817116
  41.1432381  42.8785019  33.2378006  39.5243912  41.8932114  34.0578308
  38.7508926  41.1958427  33.7361526  40.2866631  41.1236725  35.0893707
  41.2755470  41.5268059  35.3077850  39.7849579  40.9184341  36.0350266
  40.4165039  40.1324196  34.6550217  38.9158478  43.1350136  34.7563667
  38.2220116  43.5844421  34.0459404  38.2946510  42.7087135  35.5440750
  39.7613869  44.2853012  35.1899490  40.5006599  43.9330368  35.9093170
  40.1606102  44.7611923  34.2942657  38.9552574  44.8858452  35.6113739
  40.7358246  41.1367149  32.0411720  40.0201378  40.5486870  31.2422638
  42.0517235  40.8925552  32.1270828  42.5416603  41.3305855  32.8940201
  42.7216797  39.8378639  31.3294868  42.2392654  39.6730423  30.3660526
  44.2051430  40.0593567  30.9815731  44.6708908  40.6041374  31.8027878
  44.7359200  39.1358299  30.7503242  44.3237381  40.9960442  29.7444878
  43.8488579  40.5411797  28.8751831  43.8629837  41.9398499  30.0361061
  45.7837372  41.1581879  29.1652107  46.4739265  41.5821419  29.8945961
  46.1779213  40.1615639  28.9665356  45.8058357  41.9528847  27.9387436
  45.1038551  42.6734238  27.8484268  46.7622147  41.8661232  27.0188789
  47.8389015  41.0879936  27.1085854  48.5122032  41.2639961  26.3766060
  48.1397400  40.6373863  27.9609642  46.6549072  42.6235466  25.9842777
  45.8828545  43.2717323  26.0466003  47.2117233  42.4859352  25.1529408
  42.5920143  38.5673485  32.2606735  43.0674706  38.5218964  33.3795280
  41.9545975  37.5550957  31.6838989  41.5627747  37.6915016  30.7630463
  41.8446159  36.1627007  32.3033714  42.0354881  36.2948303  33.3683624
  40.4346504  35.5945587  32.0444374  40.3811150  35.3819847  30.9767094
  40.3519783  34.6838341  32.6376038  39.2517815  36.4758987  32.4964066
  39.0278625  36.7469940  33.8578568  38.1573372  37.7168961  33.9105492
  37.8458443  38.2199097  34.8140717  37.9140663  38.1918564  32.6781349
  37.1985512  38.8722801  32.4656181  38.5760155  37.4096947  31.7703018
  38.6740608  37.6401482  30.7197399  42.9959488  35.3627129  31.7977562
  43.2348709  35.3661385  30.5716515  43.6654968  34.6224251  32.6605568
  43.2820282  34.5119286  33.5883713  44.9264107  33.9343452  32.2774506
  45.2530937  34.2719917  31.2939014  46.0988464  34.3786774  33.1829071
  45.9674683  34.0752563  34.2215500  47.5193863  33.7759666  32.9253387
  47.5627632  32.6972427  33.0755692  47.8140640  34.0482559  31.9118690
  48.0813446  34.1650047  33.7744255  46.2619972  35.9491310  33.0108604
  46.5757446  36.0322990  31.9703083  45.3760300  36.5690346  33.1482697
  47.0608406  36.4313202  33.5742836  44.6855659  32.4393120  32.1974754
  44.7303162  31.6649017  33.1053085  44.5315704  31.9007912  30.9508877
  44.5737610  32.4550972  30.1076393  44.3968620  30.4408836  30.6621037
  44.3141136  29.9154320  31.6135025  43.0750313  30.2756405  29.9219303
  42.8116608  31.0098495  29.1605663  43.0168114  29.3234005  29.3947239
  41.8646088  30.3514977  30.9204807  41.1536102  29.1884060  31.4258995
  41.3609543  28.2508831  30.9314575  40.0414467  29.2443409  32.2356224
  39.5788193  28.3095264  32.5158119  39.6432838  30.5843410  32.6648979
  38.6417084  30.6731777  33.5388565  38.1670227  29.8716316  33.7708092
  40.3755836  31.7122345  32.2295189  40.0508881  32.6982346  32.5274696
  41.4867935  31.6305180  31.4500847  42.0068054  32.4957390  31.0661869
  45.6254768  29.8682957  29.9510365  45.9244232  30.1912212  28.8284607
  46.3110924  28.9439049  30.6064548  45.9600868  28.5833931  31.4821968
  47.6199722  28.4060173  30.2147732  47.8414803  28.7964783  29.2215042
  48.6267166  28.8581009  31.2510109  48.5282974  28.4074326  32.2385902
  49.5777550  28.4086437  30.9653263  48.8740158  30.3773956  31.2868786
  47.9806442  30.8115101  31.7358055  50.0610313  30.8689251  32.1193390
  50.9985809  30.6939850  31.5916119  49.9389534  31.9299412  32.3371506
  50.0811768  30.2579288  33.0217743  49.0042534  31.0258541  29.8584538
  49.2576141  30.3429966  29.0475197  48.0823097  31.5328064  29.5736370
  49.6510506  31.9031200  29.8458939  47.6002541  26.8867245  30.0446682
  46.6248322  26.1853161  30.2776203  48.8243179  26.3975945  29.6981277
  49.5464516  27.0537014  29.4370861  49.1980362  24.9968109  29.4731064
  50.1940002  24.8942852  29.0422440  49.4477959  24.2901726  30.8010998
  48.4598999  24.2241936  31.2569618  49.8047028  23.2620144  30.7410030
  50.4310532  24.9560223  31.8016777  49.9583511  25.8494873  32.2095680
  50.6016121  24.2217503  32.5889854  51.6968651  25.3395729  31.1314163
  52.2007217  24.4778214  30.3975677  52.1361237  26.4967041  31.1702061
  48.2081490  24.3407440  28.5203228  48.1258430  24.7875805  27.3789825
  47.5382423  23.2153549  28.9131718  47.8049088  22.6582623  29.7123184
  46.4197121  22.5402756  28.1742096  46.6571426  22.7168694  27.1251373
  46.4016647  20.9766750  28.4165382  46.4078598  20.8489189  29.4990082
  45.5410995  20.5569763  27.8955917  47.6117821  20.2644920  27.8756161
  47.7166519  20.6461601  26.8600216  48.4259109  20.5558853  28.5392284
  47.6010933  18.7696190  27.8987408  47.4384651  18.4755859  28.9356575
  46.7351265  18.3690376  27.3717308  48.8348312  18.0309353  27.2817764
  48.5140343  17.1039925  26.8064175  49.1124115  18.6251945  26.4111977
  49.9484138  17.8806629  28.1739044  50.6596527  17.2751637  27.7897072
  50.2436066  18.8286457  28.3590946  49.7626381  17.4237461  29.0552750
  45.1057472  23.2523689  28.3742752  44.2260513  23.0408211  27.5334225
  44.8787460  24.1085854  29.3414955  45.6347504  24.1012859  30.0112000
  43.6626244  24.7617798  29.7554073  42.8174896  24.0808449  29.6545258
  43.7987251  25.0196743  31.2507229  44.5534363  25.8022785  31.3284607
  42.8784447  25.3155308  31.7543621  44.0534172  24.1047287  31.7856121
  43.3654976  26.0838337  29.0133991  42.2700157  26.6860485  29.2163963
  44.2488480  26.5450172  28.1395512  45.1805649  26.1551380  28.1378498
  44.0385971  27.4477425  26.9940815  43.9756851  28.4885750  27.3115940
  45.1930122  27.3298969  25.9282818  45.2123337  26.3221779  25.5132732
  45.0054550  28.2429790  24.7137032  45.8487015  28.3108101  24.0263672
  44.0850182  28.0493488  24.1628799  44.7801704  29.2393627  25.0939236
  46.6130295  27.5959473  26.4798565  46.7057190  28.6510315  26.7373657
  46.6872330  26.9056091  27.3201103  47.3791466  27.4099350  25.7271500
  42.7346191  27.1205292  26.2891769  42.0330353  28.0328007  25.9707909
  42.2767067  25.8871326  26.1761036  42.8547287  25.0906601  26.4033070
  40.9325600  25.5344200  25.7056217  40.9726906  26.0378437  24.7396717
  40.9143028  23.9826622  25.3813515  41.8199425  23.8346806  24.7931061
  40.9236259  23.0788364  26.6029625  41.7140083  23.4089165  27.2770882
  39.9375229  23.0510921  27.0665684  41.0653687  22.0773678  26.1966705
  39.6641350  23.6854515  24.5102081  39.8564758  22.8250103  23.8693218
  38.7252846  23.6857796  25.0639782  39.5325279  24.5060215  23.8049107
  39.8034286  25.9354954  26.6124153  38.7764816  26.3971558  26.0860310
  39.9442253  25.8885841  27.9381695  40.8856010  25.6730690  28.2339306
  38.8707390  26.3019505  28.9870567  37.8964310  26.0155869  28.5910511
  39.0514679  25.6143131  30.3251076  39.9081764  26.1022568  30.7899303
  38.1407623  25.8711071  30.8661957  39.2115936  24.0452690  30.3064747
  39.9979134  23.6670513  29.6532040  39.4883194  23.5527687  31.7147083
  40.4685059  23.9415359  31.9907570  38.7097359  23.8263836  32.4267769
  39.4789238  22.4736366  31.5614529  37.9623795  23.4521160  29.6867332
  37.1197777  23.8262787  30.2682152  37.9465218  23.6112404  28.6085281
  37.9192467  22.3632660  29.7121658  38.7314606  27.8402748  29.1082211
  37.8090477  28.2865410  29.7818775  39.6354065  28.6142159  28.4488258
  40.2974663  28.1983376  27.8094292  39.4707069  30.0289536  28.2579422
  39.7097092  30.4517899  29.2337437  40.4608078  30.5915661  27.1597538
  40.4412384  31.6636982  27.3553276  41.4626312  30.2129555  27.3625298
  39.9920654  30.3206272  25.7228432  39.8266563  29.2514992  25.5897923
  39.0299644  30.8128853  25.5808983  41.0597839  30.8058758  24.7085457
  41.1033249  31.8905621  24.8068428  42.0264893  30.3034840  24.7429943
  40.5317383  30.5660019  23.3637619  40.3737755  31.4119053  22.8349953
  40.8090820  29.4901943  22.6187229  41.3114700  28.4204140  23.0927887
  41.4134369  28.2921600  24.0894108  41.5855484  27.6994915  22.4406738
  40.6600647  29.6134071  21.3310490  40.2031021  30.4381771  20.9690533
  40.8251991  28.8586922  20.6804829  38.0280228  30.4399090  27.9336643
  37.3980789  29.8277702  27.0869160  37.5829163  31.5967312  28.4991302
  37.9919739  32.2509422  29.7002201  38.8088684  32.9141235  29.4156494
  38.3784447  31.4945507  30.3833160  36.8661613  33.0887527  30.3412380
  37.1619568  34.0166969  30.8306522  36.3099289  32.4298553  31.0079899
  36.0695152  33.4165878  29.1041679  36.5611839  34.3091965  28.7173710
  35.0258675  33.5271072  29.3985882  36.2027473  32.1369133  28.2567310
  35.4800835  31.3887768  28.5825481  35.9548225  32.5145302  26.7828465
  34.7626610  32.5388336  26.5231323  36.9294128  32.8922615  25.9527206
  37.8778610  32.8248482  26.2933025  36.8045998  33.4693108  24.5490322
  37.7725716  33.9307594  24.3535900  36.4149513  32.3472214  23.5011406
  37.0870552  31.5388851  23.7891865  35.3978233  32.0140457  23.7074013
  36.5209999  32.7294998  22.0915775  36.1083565  31.9240093  21.2245312
  36.8312988  33.8773308  21.7167168  35.8042030  34.6570473  24.4905281
  34.8387451  34.6246300  23.7207909  36.0089874  35.5964928  25.4480534
  36.7976761  35.6812096  26.0732708  35.2541161  36.7844772  25.3926868
  34.1845741  36.6321869  25.5375423  35.7543068  37.7496071  26.5005417
  36.7776833  38.0350456  26.2569847  35.0938148  38.6158829  26.4628868
  35.5656853  37.1183891  27.9367599  36.0809288  36.1609535  27.8596935
  36.2771568  38.0262642  28.9223690  37.3614349  37.9356270  28.9872646
  35.9979248  39.0713081  28.7881680  35.9309731  37.7624817  29.9217072
  34.0689964  36.8802071  28.3557720  33.5604515  37.8317757  28.5106773
  34.0524139  36.3139343  29.2869854  33.6164894  36.2820435  27.5648632
  35.3714752  37.5082283  23.9676037  36.5051575  37.7935982  23.5218601
  34.2639618  38.0266380  23.3995533  33.3514824  37.7782631  23.7542191
  34.2876244  38.7414627  22.0711594  35.2321930  39.2735519  21.9581356
  34.3057480  37.7007866  20.9944973  34.5446739  38.2998581  20.1157913
  35.1390762  37.0429230  21.2412338  33.2830811  36.7636604  20.8285542
  32.9963799  36.4652557  21.6947861  33.0790138  39.7423248  21.9338493
  32.0069275  39.5511551  22.4538136  33.3298264  40.9118881  21.2915611
  34.2532349  41.1695099  20.9736748  32.4370613  42.0723419  21.0702705
  32.1009750  42.6167831  21.9527283  33.0917664  43.0601501  20.1039085
  33.9612274  43.2864838  20.7210884  33.4381027  42.5497742  19.2052040
  32.4416771  44.3915787  19.6441669  31.7797279  44.1664543  18.8079586
  31.5404587  45.0693893  20.7095108  30.6890526  44.4277115  20.9363842
  31.1535816  45.9711494  20.2349014  32.0687218  45.2662048  21.6424084
  33.5249138  45.3403816  19.2156620  33.1473389  46.3057747  18.8786755
  34.1929817  45.4816322  20.0652695  34.1441917  45.0036774  18.3842640
  31.1687508  41.5937805  20.3719234  30.0805149  42.0389023  20.6682453
  31.3204842  40.7000237  19.3869381  32.2916336  40.5118294  19.1830845
  30.2040939  40.0339050  18.6641769  29.5705070  40.7672195  18.1652584
  30.7891159  38.9945717  17.6601295  29.9856892  38.6710739  16.9983463
  31.7475033  39.7964973  16.6520157  32.7298889  39.9586830  17.0955410
  31.9155617  39.0967751  15.8333282  31.3424854  40.7315941  16.2651596
  31.5342903  38.0056038  18.3143425  30.9767380  37.4361420  18.8495541
  29.1998310  39.1746712  19.5120964  28.1377201  38.9474335  19.0784588
  29.5271130  38.7584305  20.7635479  30.4282093  38.8957558  21.1985989
  28.5214996  38.0599937  21.5936050  28.0653458  37.3179550  20.9383106
  29.2422733  37.5154152  22.8305607  30.2725639  37.2679443  22.5748978
  29.3491039  38.3245163  23.5530853  28.4412041  36.3944283  23.6081829
  28.8732624  36.2029381  24.5904026  27.4557724  36.8184204  23.8012009
  28.3219490  35.0008087  22.9492607  27.9552689  34.3570824  23.7488003
  27.6646786  35.0000458  22.0797234  29.7423935  34.5264816  22.6337776
  30.1207848  35.2260780  21.8884659  30.3717003  34.5252838  23.5237617
  29.7862034  33.1278572  22.0977058  29.3646641  33.0591164  21.1824589
  30.7636738  32.8772202  22.0548096  29.3505421  32.4316864  22.6856232
  27.3644962  38.9434700  22.0048943  26.2570896  38.4174080  22.2602978
  27.5788326  40.2180901  22.1831284  28.5123539  40.4689789  21.8903885
  26.6259842  41.1260452  22.7306499  26.1038647  40.6570015  23.5646152
  27.2948971  42.3671455  23.3514538  27.5207996  42.9456100  22.4556580
  26.6211395  42.9616737  23.9684601  28.5501461  42.0308723  24.1992989
  28.4848957  41.3996964  25.2693272  29.6676731  42.5997353  23.7563839
  29.6643047  42.9231987  22.7995872  30.4349785  42.7131233  24.4032879
  25.5292740  41.5449333  21.7006226  25.6119881  41.0435715  20.5746040
  24.4791050  42.2539940  22.0739079  24.4271927  42.6035919  23.0200520
  23.1280212  42.4048424  21.3671112  23.0135746  41.7168427  20.5294609
  21.8835125  42.1409721  22.3299160  20.9558411  42.5579491  21.9379272
  21.7724953  40.6544380  22.4886761  21.0140724  40.4652367  23.2483501
  21.2563381  40.1970215  21.6446037  22.7822647  40.3135262  22.7172508
  22.2085648  42.6921005  23.6216087  22.0063763  43.6300201  23.5894527
  22.8940601  43.7890205  20.7483921  22.0128307  43.8483734  19.8964691
  23.6253853  44.8492699  21.1443768  24.2054691  44.7393227  21.9638367
  23.3461399  46.2246628  20.5096874  22.3109417  46.3468781  20.1910572
  23.3120537  47.3322067  21.5737133  24.1709957  47.2386627  22.2382183
  23.3602600  48.2845497  21.0456829  22.0901222  47.2466850  22.5031052
  22.0716934  48.2574196  22.9107533  21.1165142  47.1773033  22.0179520
  22.2415390  46.2176590  23.6248474  21.4294243  45.2389336  23.6958618
  23.0398235  46.5308228  24.5514927  24.2341385  46.5466080  19.3058586
  23.8226185  47.4839478  18.6256714  25.3945656  45.8838615  19.1185932
  25.5390606  45.1694489  19.8177624  26.1173363  45.6931229  17.8806572
  26.3908100  46.7278900  17.6743469  27.2166634  44.7774506  18.3205872
  27.7673855  45.0034523  19.2336750  26.7668457  43.8179703  18.5758514
  28.2901325  44.5198402  17.2849007  27.7505169  44.2526703  16.3763103
  29.2304840  45.6953163  17.1000099  28.5536728  46.5153542  16.8600731
  29.8765335  45.7706909  17.9746742  29.8977108  45.4694328  16.2682114
  29.0179977  43.2100334  17.5942593  29.7097607  42.9476395  16.7938099
  29.5308037  43.2196007  18.5560493  28.2233906  42.4799728  17.7482357
  25.3634663  45.1686478  16.6135349  24.5739613  44.2144394  16.7511311
  25.3474369  45.8701439  15.5967398  34.6109009  52.2467575  49.9947319
  35.3570900  52.6516762  49.4476051  34.0975456  51.5341301  49.4960060
  34.0023918  53.0061111  50.2652779  35.2568321  51.6621895  51.1774292
  36.2351570  52.1375542  51.2482109  34.2558632  51.7852516  52.3298836
  34.1055222  52.8456917  52.5322762  33.3078423  51.3452644  52.0204163
  34.7733192  51.2178040  53.6914558  34.8208733  50.1335220  53.5905762
  35.7847710  51.5876122  53.8597145  33.7014771  51.6324272  55.1240463
  34.8857956  50.7928772  56.3068581  34.3727646  50.6681900  57.2604599
  35.0107765  49.8017387  55.8708305  35.8801193  51.2375374  56.3479347
  35.5634422  50.1621323  50.8921852  34.6412621  49.4748192  50.4715614
  36.8484764  49.7958069  50.9487648  37.5110283  50.5192642  51.1890488
  37.2569962  48.4897728  50.5916748  37.0740318  48.4380264  49.5183868
  38.7298012  48.3413353  50.8995323  39.1780930  49.3171806  50.7128258
  38.8502884  48.2832832  51.9812965  39.5425491  47.1443520  50.3777199
  40.5814514  47.4461136  50.5108337  39.3009987  46.2769051  50.9919624
  39.4469986  46.5952034  48.5893097  40.8188705  45.5117073  48.7502861
  40.8444252  44.7297554  47.9913368  41.7066841  46.1438599  48.7339439
  40.7313728  44.8860283  49.6385231  36.5121346  47.4108696  51.3602028
  35.8304558  47.5759621  52.4125977  36.6170387  46.1863060  50.8237076
  37.2425232  46.1712799  50.0308380  36.1180191  44.9241447  51.2847977
  35.7102890  45.1845398  52.2615509  34.9560013  44.4223404  50.3486938
  34.7383118  43.4031563  50.6680336  33.6536598  45.2629356  50.4361267
  33.5585403  46.0650711  51.1679955  33.4377480  45.7129097  49.4671021
  32.8558960  44.5413208  50.6120338  35.4098282  44.1145096  48.9067078
  35.5157738  45.1242523  48.5101013  36.3734589  43.6071281  48.9523544
  34.3900337  43.1160011  48.2632599  33.3793602  43.4483414  48.5003166
  34.5021820  43.1066437  47.1790848  34.5424995  42.0757637  48.5509415
  37.3068771  43.9547234  51.4465714  38.2843208  43.8935738  50.6646805
  37.3234940  43.2326622  52.5416412  36.5539818  43.2010231  53.1950569
  38.3788757  42.3059998  52.9462852  39.0552368  42.0803833  52.1218224
  39.2977219  42.8651428  54.0817070  38.5900307  43.0843086  54.8812294
  39.9271736  42.0278893  54.3831940  40.1130562  44.1254692  53.8684692
  39.5065117  44.9365273  53.4654846  40.6660423  44.5190697  54.7213402
  41.2416801  44.0198441  52.8084793  41.8942986  43.1979179  53.1028099
  40.7153358  43.8994789  51.8616028  42.0242729  45.2784958  52.5688553
  41.7468643  46.0778236  53.1204185  43.0070152  45.3802223  51.7707024
  43.4142647  44.3697586  50.9937897  42.7986488  43.6040154  50.7597961
  44.1436234  44.6130943  50.3388672  43.7333450  46.4716644  51.6977158
  44.5106926  46.4607048  51.0529556  43.7067528  47.1934166  52.4037399
  37.7767868  40.9630089  53.0686111  36.6298141  40.8187065  53.4443054
  38.4842606  39.9194565  52.7153931  39.4450569  40.1123428  52.4709091
  38.1716270  38.5366058  53.2553864  37.1012154  38.3506050  53.3432465
  38.4963074  37.7649651  52.5573463  38.7709770  38.3437500  54.6466484
  39.8554802  38.7735786  54.9145660  38.0035553  37.6917648  55.5450859
  37.1655464  37.2877541  55.1518707  38.4287796  37.2562790  56.9095116
  39.5076981  37.3594818  57.0252380  37.8388214  38.1525879  58.0149841
  36.7575378  38.0424690  57.9325485  38.3721848  37.7750282  59.3886833
  38.2613754  36.6986542  59.5200195  39.4236755  38.0533905  59.4592705
  37.7835045  38.3087578  60.1347961  38.1658211  39.6693077  57.5796013
  39.2175865  39.7046432  57.2956161  37.5776138  40.0770340  56.7574883
  38.1139259  40.6746140  58.7082901  38.1696663  41.7080460  58.3662376
  37.2488251  40.5789642  59.3644600  38.9661674  40.5016861  59.3654671
  38.3604469  35.7769661  57.1975479  37.3327637  35.2194138  56.9181099
  39.4463348  35.1172256  57.6293602  40.2387161  35.5595016  58.0727844
  39.4852676  33.6403694  57.5444031  38.4968452  33.2727280  57.2688026
  40.4410858  33.2053795  56.4489555  41.1823082  33.9866486  56.2807121
  40.9598656  32.2699966  56.6587791  39.6675987  33.0932961  55.0991211
  38.5823212  33.0709991  55.1979866  39.9712677  33.8794899  54.4079018
  39.9626732  31.8210678  54.3523560  39.4062462  31.8959064  53.4180717
  40.9707832  31.8405514  53.9383049  39.6144104  30.5744152  55.0805626
  38.7641754  30.5655613  55.6256485  40.5093765  29.6197662  55.2584877
  41.6456528  29.4028378  54.5989532  42.3446617  28.7304039  54.8806000
  41.9210281  30.0539875  53.8776512  40.3092117  28.6212387  56.1251488
  41.1463776  28.0602531  56.1925888  39.6707306  28.6895313  56.9047585
  39.8307838  32.9614296  58.8855896  40.2246208  33.5830116  59.8910179
  39.4762421  31.6845837  58.8639832  39.0767975  31.3708210  57.9910011
  39.6022606  30.8412132  60.0373421  40.6234093  30.9510002  60.4024582
  38.9337044  31.3229122  60.7508507  39.3309708  29.3172321  59.7910271
  38.7433128  29.0262489  58.7420807  39.5613174  28.4750824  60.7937889
  39.8786621  28.8142281  61.6906586  39.2823067  27.0950317  60.8117523
  38.2770805  26.9096584  60.4332581  40.3218613  26.3352661  59.8286781
  41.3062057  26.2454853  60.2881393  39.9061356  25.3735752  59.5279732
  40.4166183  26.8591156  58.8775177  39.3153534  26.4902115  62.2276840
  39.9417534  27.0664158  63.1171684  38.6332130  25.3231430  62.3646927
  38.3578186  24.8895569  61.4950600  38.5128021  24.5488091  63.6277390
  39.4358521  24.4999523  64.2053986  37.4860725  25.2225418  64.6126709
  37.7914391  26.2579517  64.7635956  36.0292587  25.1362343  64.0656815
  35.7565536  24.1053219  63.8399582  35.3764381  25.5804119  64.8171005
  36.0588608  25.6937466  63.1295128  37.3654518  24.5140190  65.7823639
  36.9077873  25.0802212  66.4081116  38.2373199  23.0243187  63.3333168
  38.0341682  22.6761150  62.1642761  38.2083817  22.1341305  64.2870865
  38.3883057  22.4024277  65.2440262  38.1126022  20.6708565  64.1403275
  37.7060852  20.4840755  63.1463661  39.4865799  19.9587059  64.2884216
  39.1263885  18.9343491  64.1932449  40.4996109  20.3943424  63.1339188
  41.4757233  19.9379940  63.2984047  40.0310860  20.1247673  62.1873894
  40.5842094  21.4808674  63.1541939  40.1490021  20.0600853  65.5002365
  39.7773857  19.4303188  66.1222382  37.1951637  20.0555477  65.1395950
  37.1739731  20.2893047  66.2869492  36.3600197  19.1123657  64.7306137
  36.4187813  18.8581200  63.7549057  35.5999947  18.1208076  65.5643921
  35.5029068  18.6008072  66.5381851  34.1776390  17.8714046  65.0529861
  33.7455254  17.2188282  65.8116150  33.3957672  19.1026573  65.1838150
  33.2095337  19.3570366  66.2272263  33.8413696  19.9099979  64.6026611
  32.4176598  18.8631458  64.7666321  34.0852623  17.3841381  63.5804482
  34.6260872  16.4411354  63.5007057  33.0548592  17.3117847  63.2324028
  34.6279564  18.0189190  62.8799820  36.3150101  16.8336563  65.7146149
  37.1120110  16.4468765  64.8243179  36.0472794  16.0656147  66.7285843
  35.3712959  16.5015144  67.3394318  36.4006996  14.6598082  66.8922424
  37.2569542  14.4712353  66.2446594  36.6258316  14.4248142  68.3906174
  35.6637306  14.6899538  68.8289871  36.9705200  13.4003553  68.5312347
  37.6815033  15.4143181  68.9606400  37.4734001  16.4630356  68.7485428
  37.6168823  15.3176851  70.0444260  39.0752220  15.0202265  68.2901611
  39.8577766  16.0129051  67.9518890  39.4799042  13.8497496  68.1278763
  35.3185539  13.6498823  66.4420319  35.5491524  12.5684853  66.0274506
  34.0422707  14.0326662  66.5044098  33.7908859  14.8450947  67.0492630
  32.8644524  13.3304653  65.9284897  33.2746620  12.4381561  65.4556046
  31.7993412  12.9094973  66.9658356  31.6149807  13.8159170  67.5424805
  30.8560238  12.5980787  66.5172043  32.3732681  11.7511425  67.7746353
  32.6332016  10.9537802  67.0783997  33.2843018  12.0088625  68.3147278
  31.3620834  11.1182117  68.7240067  30.5373402  10.7193556  68.1334000
  31.9011402  10.2236814  69.0359879  31.0531235  11.9506140  69.7946091
  31.7937775  12.5090780  70.1941681  29.8889656  12.3567648  70.3011322
  28.7077160  11.9764633  69.8601913  28.6307564  11.1789465  69.2452545
  27.9180202  12.1409187  70.4680099  29.8350220  13.2156315  71.3516769
  30.6879482  13.6405525  71.6864319  28.9658566  13.4573612  71.8057861
  32.1866608  14.2548428  64.9106979  31.9133320  15.4382172  65.0979156
  31.8383465  13.6381578  63.7991028  32.1551666  12.6873474  63.6738663
  30.8319912  14.0760536  62.8772964  30.9453773  15.1288490  62.6186981
  30.9895210  13.2899551  61.5612335  32.0005302  13.4180508  61.1745186
  30.9563122  12.2270660  61.8005409  30.0213928  13.6698008  60.4682922
  29.5972061  14.8412485  60.4162102  29.8305702  12.8432226  59.6018753
  29.4261932  13.9442587  63.4998856  28.7719860  12.9460821  63.2533302
  29.0120373  14.8225088  64.3969879  29.7754288  15.3835039  64.7471619
  27.5918121  15.0186615  64.9314346  26.9816723  14.5603523  64.1531143
  27.4227638  14.3878212  66.2594681  27.7326279  13.3433485  66.2252731
  28.1403923  15.2134304  67.3759918  29.1886864  15.3932953  67.1376038
  27.6779156  16.1974850  67.4525375  28.1477261  14.5852280  68.2667236
  26.0624828  14.3753405  66.6070328  25.7542629  13.7226038  65.9741516
  27.2110062  16.4706497  64.9857941  28.1187553  17.3548565  64.9893417
  25.9178581  16.8064766  64.8858871  25.3378353  16.0088711  64.6679230
  25.4294777  18.1787987  64.6825485  25.8410282  18.5095196  63.7289505
  23.9009151  18.1908855  64.6400986  23.6348896  17.6008129  63.7630882
  23.5160694  17.6752052  65.5199051  23.1750107  19.5142918  64.5653839
  23.1614361  20.0365047  65.5220490  23.7324886  20.1026459  63.8365746
  21.7647781  19.3628445  63.9942932  21.4875965  19.9061737  62.8844337
  20.8187885  18.7942886  64.5467148  25.8982315  19.1868439  65.7268295
  26.5303364  20.1858273  65.3736725  25.6706715  18.8849812  67.0207748
  25.1997662  18.0173740  67.2343369  26.0289116  19.6943417  68.2115173
  25.6726894  20.7244740  68.2176208  25.6037483  19.0326271  69.5311890
  26.0687943  18.0514889  69.6271286  25.6698132  19.6827984  70.4035492
  24.0790234  18.8410816  69.5862427  23.8028183  18.2284184  68.7280731
  23.8320999  18.2637062  70.4771805  23.1982002  20.1704235  69.3842163
  21.9983330  20.0409832  69.0944366  23.7510147  21.2677078  69.5330124
  27.5310364  19.8604584  68.3232956  27.9221706  20.7998695  68.9833145
  28.3980675  18.9778328  67.7355881  28.0182629  18.2562523  67.1396332
  29.8566399  19.2951870  67.7924805  30.1280594  19.6099472  68.8001328
  30.6085052  18.0730495  67.4858170  30.0769653  17.4789581  66.7424316
  31.5672112  18.3834553  67.0703354  30.7735176  17.2229691  68.7776642
  29.7645893  17.1305561  69.1796875  30.9398899  16.1943092  68.4578400
  31.7253170  17.7981796  69.8620529  32.6165771  18.5692482  69.4550705
  31.6888542  17.2952843  71.0303040  30.1094303  20.3392353  66.6724396
  30.6850014  21.3730526  66.9625854  29.5576992  20.1688118  65.4505463
  28.9353104  19.3973827  65.2565613  29.8960056  21.0377350  64.3302155
  30.9841442  21.0454330  64.2670212  29.2738457  20.3828335  63.0157814
  28.1967678  20.2883892  63.1539383  29.4250507  21.2355556  61.7264290
  30.4863930  21.4516430  61.6041222  28.9569874  20.8665504  60.8138237
  28.8649063  22.1705666  61.7364082  29.9415073  19.0517540  62.7021408
  30.9847679  19.2562599  62.4615555  29.8351555  18.4319439  63.5924377
  29.3358021  18.2462654  61.5808983  29.3470287  18.7195110  60.5990562
  29.8062630  17.2724209  61.4452667  28.2899075  18.1435604  61.8701210
  29.3490219  22.4601326  64.5522079  30.0533581  23.4614658  64.2597885
  28.1262989  22.6072102  65.0712738  27.6084042  21.7402458  65.0553207
  27.5511951  23.9022141  65.2901688  27.5483856  24.6276932  64.4766693
  26.0723705  23.7582207  65.8233795  26.0504646  23.0249577  66.6295700
  25.7266731  24.7575989  66.0876465  25.1863766  23.2512608  64.6575928
  25.5220146  22.2560482  64.3660278  23.8659611  23.0810032  65.3897171
  23.1422138  23.0661755  64.5748138  23.7171364  22.2238464  66.0464020
  23.5819569  23.9436569  65.9924316  25.2149181  24.2035885  63.4418602
  25.2318954  25.2448635  63.7636528  26.0508919  23.9549103  62.7880974
  24.3293304  23.9459763  62.8609390  28.4594269  24.6062355  66.3932190
  28.9014587  25.7533932  66.1500168  28.6591511  23.9091606  67.5679932
  28.3417683  22.9520550  67.6255722  29.4095650  24.5532455  68.7482376
  28.8588047  25.4536133  69.0204544  29.3034801  23.6534119  69.9685135
  28.2567635  23.4494076  70.1940536  29.7442760  22.6899757  69.7124023
  29.9889565  24.0655766  71.2106628  30.1058083  25.1422520  71.0873108
  29.4542084  23.8145218  72.1267014  31.3478775  23.3649864  71.3977356
  32.0522232  22.8612938  70.4949493  31.7965355  23.3378410  72.5923157
  31.3404408  23.9135456  73.2855988  32.7531776  23.0496922  72.7403259
  30.8161507  24.9593258  68.4098053  31.3242264  26.0168495  68.7658005
  31.6025543  24.1658916  67.6509399  31.3082104  23.2103634  67.5080338
  32.9197655  24.5246887  67.2219849  33.5063095  24.7733555  68.1064224
  33.6489067  23.4259338  66.4037704  33.0526123  23.1542130  65.5327377
  34.5617714  23.7162571  65.8836746  33.9266510  22.2036228  67.2966690
  33.0396919  21.9274044  67.8668518  34.2194519  21.4583073  66.5571594
  35.0158157  22.4537048  68.3550720  35.9920120  22.5711040  67.8845825
  34.7903824  23.2999783  69.0039902  35.2131081  21.2134552  69.2708206
  35.5609818  20.3985252  68.6360168  36.0555878  21.4123669  69.9332123
  33.9728317  20.8633823  70.1037216  34.2030869  20.4419250  70.9922409
  33.4451637  21.6572762  70.4375000  33.3769150  20.2729206  69.5412827
  32.7705460  25.6778717  66.1852798  33.4425507  26.7158661  66.4615784
  31.9412670  25.6301632  65.1566391  31.3421898  24.8170795  65.1466217
  31.7318497  26.7140884  64.2287292  32.6509056  26.9510498  63.6927414
  30.7006512  26.3940639  63.1227226  29.7152786  26.1592884  63.5252457
  30.5349312  27.4680843  62.0769272  31.5572968  27.7562637  61.8323364
  29.9795704  27.0662556  61.2294540  30.0945988  28.3730679  62.4955101
  31.1592884  25.2666340  62.3518219  30.9835930  24.4370136  62.8017807
  31.3594398  27.9742966  64.9943085  31.9986782  29.0288181  64.7096786
  30.4611263  27.9031181  65.9847488  30.2872639  27.0109024  66.4250031
  29.9614716  29.0878334  66.6879196  29.7126141  29.9082775  66.0148315
  28.6727676  28.7552586  67.4101486  28.1846638  27.9603405  66.8462677
  28.8995991  28.4029751  68.4164047  27.8567390  30.0632534  67.5288467
  28.4642391  30.8215923  68.0227737  27.6877022  30.4769573  66.5346680
  26.5584049  29.8437958  68.3521805  26.0892162  30.8271809  68.3219376
  25.8601723  29.1424522  67.8953552  26.7357807  29.4877224  69.7881470
  26.8843307  28.4080887  69.7674866  27.6424656  30.0279160  70.0605698
  25.5769997  29.8189106  70.6560898  25.8378086  29.4454269  71.5575256
  25.3800125  30.8034554  70.7655182  24.7620487  29.3631458  70.2710724
  31.0792332  29.6814079  67.5685577  31.1222763  30.8892307  67.6806412
  31.9840260  28.9027843  68.1527100  31.9521313  27.9430637  67.8396225
  33.0870132  29.3567524  68.9926834  32.6489334  29.9330215  69.8076019
  33.6998100  28.0865059  69.6076355  33.5750618  27.2657871  68.9012604
  34.7512131  28.2439709  69.8481750  33.0966530  27.7925873  70.9151001
  33.0986786  28.6814404  71.5460052  32.0692444  27.4722099  70.7422104
  33.7765083  26.6980419  71.8355179  34.6919899  25.9215279  71.4253616
  33.2763786  26.4199982  73.0341034  33.4984512  25.5017529  73.3913345
  32.5537796  26.9757004  73.4690170  34.1607666  30.1141014  68.1036987
  34.5743942  31.1996689  68.4387512  34.3839607  29.6016331  66.8758774
  34.0040588  28.6830387  66.6970978  35.2212715  30.2330742  65.9157867
  36.2100334  30.5232639  66.2710953  35.4461670  29.3149719  64.7358856
  35.8106232  28.3728905  65.1454620  34.5046692  29.0410519  64.2598038
  36.4878273  29.7882843  63.7628593  36.2528992  30.8318310  63.5532951
  37.9260178  29.9072037  64.3693695  38.1882133  28.9990482  64.9121475
  38.7135658  30.0851116  63.6371002  37.9272842  30.6557217  65.1617126
  36.5004730  28.9875126  62.4890327  37.2442627  29.3535194  61.7812805
  36.6607513  27.9514999  62.7875137  35.5218620  29.0957870  62.0213890
  34.5821304  31.5635452  65.4102020  35.2103310  32.6250687  65.4335480
  33.2796402  31.5997410  65.0688095  32.6422806  30.8180485  65.1220245
  32.6342010  32.8758278  64.7682266  33.3383179  33.3011742  64.0531082
  31.2475872  32.5475388  64.1818771  30.6208248  31.9773788  64.8675766
  30.7633038  33.5048714  63.9892883  31.3560295  31.8880577  62.8047638
  32.1223183  31.1141186  62.8485947  30.0753536  31.2260551  62.4696274
  30.1497135  30.8253880  61.4586678  29.9382839  30.4111691  63.1804543
  29.1405048  31.7766609  62.5744171  31.4769535  32.8458900  61.6421165
  32.3957939  33.4300537  61.6930008  31.4552917  32.2911034  60.7041168
  30.5781441  33.4619713  61.6159439  32.4964409  33.8712463  65.9163589
  32.6828575  35.0723534  65.6379547  32.1510773  33.4592400  67.1465073
  32.0999222  32.4615822  67.2953949  32.0691452  34.3577118  68.3621445
  31.3503380  35.0797272  67.9747009  31.5287266  33.5413933  69.4571152
  30.6166096  33.0443726  69.1267929  32.2278023  32.7335472  69.6733932
  31.0933590  34.3384819  70.7249603  31.9958401  34.9156837  70.9261322
  30.2621498  35.0393944  70.6480484  30.8395939  33.3889656  71.9124298
  31.6133709  33.4532738  72.9343796  29.8328552  32.6956558  72.0079498
  33.3697205  35.0168533  68.6986542  33.4100342  36.1332474  69.2180939
  34.5377350  34.4412460  68.3712463  34.4916306  33.4567223  68.1505890
  35.9468842  34.9380989  68.5560684  35.8649063  35.6366463  69.3887787
  36.9426537  33.8063622  68.8696442  36.5150681  33.1450539  69.6232605
  36.9075775  33.2748604  67.9186554  38.3154678  34.3324738  69.2982788
  38.8796349  33.4743462  69.6635666  38.7637291  34.7854004  68.4139557
  38.3079872  35.3813400  70.4672089  38.1095772  36.4255486  70.2256088
  37.5863113  35.0943108  71.2320023  39.7525787  35.2683907  71.0588913
  39.7560730  34.3685913  71.6740723  40.5015373  35.2148705  70.2687607
  39.8499641  36.4367867  71.8800430  40.0930023  37.2987709  71.4131165
  38.9822731  36.5484352  72.3847656  40.5538216  36.3082657  72.5928955
  36.3112488  35.8304443  67.3463821  36.9778862  36.8004265  67.5737457
  35.8886070  35.5213318  66.1234970  35.4040604  34.6990089  65.7931976
  36.1593285  36.4548836  65.0284271  37.2320824  36.6343498  64.9571075
  35.7578201  35.7946663  63.6847229  34.7526283  35.4218864  63.8814964
  35.7010078  36.8144264  62.5019608  36.6675606  37.2845192  62.3205757
  35.5230942  36.2082024  61.6137390  35.0266571  37.6619377  62.6247559
  36.7239494  34.7280350  63.3933449  37.6294060  35.2551193  63.0926285
  36.8941803  34.1083984  64.2737808  36.4380569  33.7833786  62.2082253
  36.5676994  34.3022842  61.2584763  37.1456184  32.9614792  62.3174934
  35.4270630  33.3763161  62.2253532  35.5090981  37.8097687  65.3025513
  36.1097107  38.8753052  65.1125107  34.2066460  37.7742195  65.8221893
  33.7787590  36.8626747  65.9002914  33.4423103  38.9845428  66.2190170
  33.4579124  39.7523155  65.4454651  32.0003700  38.5077324  66.4722366
  32.0749245  37.5939026  67.0616989  31.2347240  39.5269623  67.3043747
  31.2575245  40.5456200  66.9171829  30.1759319  39.2946854  67.4188614
  31.7533150  39.5694160  68.2621689  31.2503891  38.2167625  65.1721268
  30.9189205  39.1818504  64.7889404  31.9379368  37.7671356  64.4557343
  30.0478096  37.3281212  65.3682861  29.2228756  37.7582741  65.9362259
  29.7332077  37.0781937  64.3550491  30.4714260  36.4160118  65.7886581
  34.1853104  39.7016602  67.3626938  34.3275375  40.8873329  67.3324661
  34.6281319  38.9826775  68.3988419  34.5038261  37.9840813  68.3125381
  35.2913322  39.5126762  69.5615234  34.5725060  40.1995430  70.0082932
  35.8015480  38.4419289  70.5098572  35.0061874  37.7120171  70.6606445
  36.7617607  38.0402107  70.1862564  36.0961914  39.0044937  71.9726105
  36.8869896  39.7536545  71.9339066  35.1277695  39.3767471  72.3068085
  36.5791550  37.8396606  72.9461746  37.8209152  37.6711769  73.2134094
  35.7380486  37.0463219  73.4931183  36.4980278  40.4551544  69.1026917
  36.6789284  41.5125351  69.7477875  37.2183685  39.9544983  68.0956345
  37.0577736  39.0405502  67.6968765  38.5255241  40.4660759  67.6345215
  39.0049553  40.9403343  68.4908676  39.4624023  39.3443832  67.2014313
  38.9123497  38.7832527  66.4460068  40.4109764  39.5937729  66.7259140
  39.8570747  38.2378845  68.2290726  38.9959488  37.8489075  68.7724457
  40.2953110  37.3891945  67.7039261  40.8339386  38.7964706  69.2965927
  41.8004036  39.5112724  69.0105286  40.5526237  38.5951462  70.5009613
  38.4885178  41.5592804  66.5172043  39.2245979  42.5436935  66.4766769
  37.4626808  41.4505463  65.6700287  36.8653297  40.6474228  65.8051605
  37.1655922  42.4195137  64.5485001  38.0884743  42.9450340  64.3031082
  36.9429817  41.6120491  63.1920166  36.0196152  41.0456657  63.3132935
  36.8222656  42.2807541  62.3397522  38.2110291  40.8046799  62.9726105
  39.0984230  41.2961884  62.2446022  38.2455864  39.6072845  63.4913177
  39.0799522  39.0579643  63.3423691  37.4313812  39.2952232  64.0010147
  36.0254669  43.3948708  64.7869873  35.7192307  44.2979622  64.0294571
  35.2077866  43.1783867  65.8400269  35.4868317  42.4019699  66.4226151
  34.0862083  43.9948654  66.1945724  33.5759010  43.6150055  67.0796661
  34.6021767  45.4045029  66.6580429  34.9302483  46.0694885  65.8591232
  33.7471123  45.8931541  67.1251450  35.8427315  45.3669128  67.6083145
  35.9344673  44.6708603  68.8407440  35.2706032  44.0166168  69.2297745
  37.1511116  44.9474106  69.3685226  37.5296593  44.7117653  70.3521805
  37.7990265  45.7389145  68.4593887  38.7585831  46.0481071  68.5206451
  37.0418968  45.9582481  67.3883286  37.2436829  46.5585594  66.5135040
  32.9715195  44.1035385  65.1481247  32.0549469  44.8637390  65.4443207
  33.0177155  43.3719635  64.0952072  33.8730507  42.9015999  63.8358612
  32.1225281  43.4015846  62.9940910  32.3193893  44.3292885  62.4567680
  32.5314674  42.2656059  62.1393814  32.2692146  41.3707657  62.7038193
  31.8242340  42.2710037  60.7703056  30.7505989  42.2566757  60.9579048
  31.9900513  43.1875648  60.2041626  32.0997238  41.3905792  60.1897354
  33.8789711  42.1818237  61.8555107  34.1593781  42.8752365  61.2537193
  30.6156139  43.4206581  63.4149246  30.1458302  42.4379005  63.9334831
  29.8582478  44.4752197  62.9379311  30.3517628  45.2246513  62.4743652
  28.3811626  44.4596596  62.9227562  28.1591167  43.8589363  63.8047600
  27.7617855  45.8914070  63.1379433  26.6904278  45.7126770  63.2293091
  28.1694851  46.1755104  64.1080780  27.9722919  46.8115349  61.9694061
  29.0269489  46.8387184  61.6954346  27.3518867  46.5170822  61.1229439
  27.6472549  48.2980385  62.3579445  26.8479652  48.4253044  63.0880394
  28.4224510  48.7224083  62.9959717  27.2330856  49.2309685  61.2516174
  26.6276970  48.5846176  60.6161270  26.6887016  50.0936508  61.6357040
  28.4242630  49.7500992  60.5394554  29.1674957  50.0834503  61.1366005
  28.8097801  49.0889778  59.8803673  28.1336117  50.4981918  59.9262848
  27.8999977  43.7259903  61.6755066  28.3376579  44.0226707  60.5436745
  26.9098091  42.8231583  61.8163910  26.3809376  42.3507652  63.0334244
  26.1479149  43.1122704  63.7776833  26.9951744  41.6352272  63.5800667
  25.0930958  41.5979004  62.6211700  24.2764053  42.3065262  62.4834671
  24.7490711  40.8268394  63.3105278  25.4202976  41.0209541  61.2527428
  24.5357742  41.0756645  60.6181335  25.8248348  40.0091324  61.2270508
  26.5545063  41.9070702  60.7169266  27.3655109  41.2083740  60.5115051
  25.9732246  42.6529350  59.5044403  26.2875042  42.0617371  58.4099960
  25.3459129  43.8032608  59.6511917  25.1470776  44.1891708  60.5631332
  25.0606995  44.6059723  58.3998566  24.3863506  43.9485817  57.8510399
  24.1436443  45.7763710  58.7899895  23.5940685  46.2674065  57.9869003
  23.3516998  45.3389931  59.3979568  24.9114723  46.9056282  59.5754967
  25.2683678  46.4401131  60.4942055  25.7784023  47.2649345  59.0210342
  23.8896294  48.0412025  59.9488792  24.1187496  48.7832565  60.9411888
  23.0875187  48.5081444  59.0798988  26.1788712  45.0035095  57.4364052
  25.8843861  45.2516022  56.2542610  27.4132729  45.1411743  57.9266052
  27.6391563  44.7713547  58.8389168  28.4727421  45.4938660  57.0155945
  28.1953659  46.2717972  56.3042641  29.6676502  45.9855957  57.8524132
  29.8507309  45.1882629  58.5727196  30.5598812  46.1582451  57.2505646
  29.4448528  47.3739243  58.4636078  28.4202118  48.0849991  58.1930389
  30.1985607  47.7491379  59.3982353  28.9937725  44.2807846  56.1415558
  29.9429893  44.3203926  55.3228531  28.5335846  43.1037178  56.4883652
  27.8145256  42.9424019  57.1790390  29.0554142  41.8438301  55.9542618
  30.1403084  41.9487228  55.9441986  28.7000599  40.6166382  56.9314156
  27.6313915  40.4029961  56.9113045  29.3780003  39.3265724  56.5066185
  30.4345112  39.5942993  56.4921188  29.3656178  38.5333519  57.2541161
  29.0873394  38.8864326  55.5527344  29.3370838  41.0665779  58.2728081
  29.2931976  40.2240410  58.9629517  30.3471642  41.4604950  58.1602631
  28.7951622  41.8497276  58.8029976  28.5532494  41.5028954  54.5189438
  27.3346882  41.3972359  54.2563477  29.4626484  41.3168526  53.6215324
  30.4064522  41.3042793  53.9809418  29.0623169  41.0442352  52.2267609
  28.2635651  41.7186241  51.9180603  30.2922974  41.0388031  51.2253761
  31.0075417  40.2960587  51.5787201  29.9966431  40.6773148  49.7573738
  30.9617405  40.5510559  49.2667084  29.3427544  39.8071823  49.6990700
  29.4502239  41.4507027  49.2175598  30.9168167  42.4638367  51.1910210
  30.0595951  43.1368256  51.1718216  31.4753742  42.6118240  52.1152573
  31.4906483  42.6339836  50.2800484  28.4004230  39.6679382  52.0850716
  27.2345543  39.4684563  51.5598450  29.1143932  38.6550064  52.4725571
  29.9758205  38.9036980  52.9375305  28.7509651  37.2450562  52.2977791
  27.6783962  37.0764847  52.3940964  29.0316887  36.7001610  50.8622017
  28.6507149  35.7004967  50.6532974  28.5600128  37.4070053  50.1795654
  30.5009327  36.8698921  50.4101181  30.8104420  37.9144821  50.4438171
  31.1067505  36.2324257  51.0541153  30.8157692  36.6792946  48.9292526
  30.0909805  37.1777191  48.0492783  31.8579521  36.0401077  48.4882431
  32.4889488  35.6174164  49.1540298  32.0275040  36.1780014  47.5021706
  29.5863075  36.4276810  53.2513618  30.7009983  36.8445129  53.7020683
  29.2158089  35.0992889  53.4559097  28.4335537  34.7290649  52.9352264
  30.0349388  34.0961075  54.1919937  31.0442009  34.4855003  54.3256493
  29.4874439  33.9194565  55.5863953  29.2059860  34.8956490  55.9812813
  28.6371708  33.2384872  55.5487747  30.6153450  33.2596474  56.4118538
  30.8680153  32.2352448  56.1382484  31.3884811  34.0147476  56.2697639
  30.2804432  33.0316963  58.1527634  30.0633907  34.7307053  58.7620926
  30.9911194  35.3025169  58.7833405  29.3374748  35.2406464  58.1287651
  29.6596851  34.7112656  59.7743835  30.1200962  32.8803062  53.3430252
  29.0917892  32.4534988  52.8334198  31.4046059  32.4956512  53.0380592
  32.0751801  33.1868439  53.3425026  31.7774372  31.2705231  52.3574944
  30.8444252  30.8181152  52.0214500  32.6458740  31.6100044  51.0576668
  32.1587524  32.2618904  50.3325119  33.5287552  32.0498314  51.5215454
  32.9623337  30.3193130  50.2971306  33.5256577  29.6688499  50.9662056
  31.6769066  29.6025810  49.8872223  31.3664341  29.0393600  50.7672729
  30.8803673  30.2901707  49.6028862  31.8048592  28.9084702  49.0565987
  33.8536453  30.6412010  49.0902138  33.4175415  31.4842186  48.5542717
  34.8032265  30.9385357  49.5351791  33.9735794  29.8297672  48.3723755
  32.4678802  30.2857819  53.2784882  33.6956406  30.3062325  53.5052681
  31.6996231  29.4203777  53.9076080  30.7148571  29.5016251  53.6984863
  32.1764450  28.3260498  54.6983566  33.0726471  28.5921917  55.2587967
  31.1133633  27.9251328  55.7294426  30.1484013  27.5786953  55.3594017
  31.3750477  26.9654980  56.1752319  30.9040947  28.9431324  56.8560638
  31.3121929  29.8958530  56.5186005  29.4319935  29.1447468  57.0578957
  29.1147919  28.1493587  57.3688354  29.2488728  29.8871956  57.8346443
  29.0231018  29.4957848  56.1104355  31.5903263  28.4707375  58.1142349
  32.6407166  28.7154675  57.9564590  31.1835804  29.0156975  58.9661026
  31.5253258  27.4004574  58.3101311  32.6246567  27.1903820  53.8487663
  32.2731285  27.0357895  52.6908836  33.3310471  26.2636623  54.5038261
  33.7745018  26.5054207  55.3784714  33.8398476  25.0215683  53.8370895
  33.0576859  24.6872673  53.1554985  35.0878029  25.4691925  53.0245209
  34.8531647  26.3363991  52.4072685  35.8839073  25.6981468  53.7329674
  35.3373680  24.4772110  52.0684471  36.2808113  24.6042290  51.9443893
  34.1269913  23.8828030  54.8312988  34.3360596  24.1067085  55.9771042
  34.2045250  22.6753120  54.3782349  33.9997597  22.5606594  53.3958740
  34.4741402  21.4714546  55.1914749  34.9187431  21.7593842  56.1441154
  33.1020775  20.9977455  55.6741982  32.4998016  21.7668056  56.1578484
  32.5668793  20.5353222  54.8448448  33.1900902  20.1401787  56.3412323
  35.1612587  20.3507805  54.4905968  35.0571175  20.1755505  53.2654686
  35.9388847  19.5660763  55.2761726  36.0761719  19.7602119  56.2577858
  36.6374893  18.3980026  54.7579727  37.0942917  18.6667385  53.8054924
  37.8720207  18.0640945  55.6231995  38.4786797  17.2813816  55.1677589
  38.8599854  19.2008419  55.6533508  39.6396523  19.0145302  56.3919373
  39.3012772  19.2950554  54.6611366  38.3475723  20.1345348  55.8851967
  37.5454559  17.6708241  56.9636002  37.8021393  16.7474155  57.0186424
  35.6092377  17.2479000  54.5095139  34.5785408  17.1667252  55.2371445
  35.9113045  16.2923489  53.5457153  36.9615669  16.4773083  52.5786591
  37.9103050  16.0784283  52.9376678  37.0930977  17.4590378  52.1236801
  36.5868263  15.6004448  51.4291534  37.4709854  15.0744848  51.0689774
  35.9555931  16.1623802  50.7407722  35.7265205  14.4543161  52.0015717
  36.3931580  13.7480831  52.4964752  34.9784775  14.1087637  51.2880440
  35.0300941  15.2007246  53.0809097  34.1188202  15.5898571  52.6267509
  34.5870132  14.2841072  54.2386971  33.5803871  13.6191063  54.1926537
  35.3223305  14.1845703  55.3500328  36.1204567  14.8002853  55.4132271
  34.9039688  13.4290104  56.5715675  35.0894585  12.3612566  56.4549408
  35.9642105  13.7578716  57.6718063  35.7411385  14.6984816  58.1753845
  35.9108391  13.0672712  58.5134239  37.3529739  13.8989677  57.0236969
  37.9166946  12.9678812  56.4861259  37.7974892  15.0771599  56.9612999
  33.5496140  13.5797930  57.1219559  33.1827469  12.7793741  57.9122849
  32.9645271  14.8012714  56.9639969  33.3920212  15.5508738  56.4391670
  31.7814159  15.2933884  57.7795944  31.7304401  14.6730518  58.6744080
  32.0233345  16.7591782  58.2520714  32.0152321  17.3643188  57.3455162
  31.0527649  17.0926914  58.6193047  33.2645645  17.0265293  59.0730133
  34.1697731  16.7133083  58.5528336  33.3681335  18.5703735  59.2721443
  32.3788910  19.0085964  59.4043198  34.1231880  18.8499146  60.0068932
  33.8547897  18.9449825  58.3716240  33.1998978  16.2675095  60.3499641
  33.2940063  15.2116470  60.0961990  34.0689812  16.5463963  60.9458046
  32.2264900  16.4519482  60.8044548  30.3912182  15.1951933  57.0099068
  30.2656574  15.5733776  55.8865166  29.3048058  14.8348379  57.6539650
  29.4035072  14.4526987  58.5836563  27.9904404  14.7132044  57.0206718
  27.9072952  15.3075075  56.1107330  27.8730736  13.1964798  56.5521851
  27.7008934  12.6413155  57.4742737  26.9665966  13.0748310  55.9592285
  29.0516701  12.4966173  55.7965202  29.5481949  12.9090919  54.5416031
  29.0467243  13.5611067  53.9555092  30.6978092  12.2803793  54.3018570
  31.2701569  12.1988268  53.3896255  31.0230675  11.6267319  55.4039459
  31.8511219  11.0583000  55.5102921  30.0097332  11.7381821  56.3753395
  30.0927105  11.4956837  57.4244843  26.8191166  15.1053991  57.9024124
  25.7665768  15.1219044  57.2979889  27.0421505  15.5170927  59.1428108
  27.9231968  15.3978567  59.6220169  25.9016399  15.5628901  60.0471077
  25.2822151  14.7454672  59.6780128  26.1916008  15.3460302  61.5524902
  26.9578781  14.6222496  61.8301048  26.4586887  16.2850914  62.0371857
  25.3037376  15.0732784  62.1229324  25.0281830  16.8312702  59.8868294
  23.7698574  16.7887230  60.0204201  25.6097927  18.0154324  59.5029716
  26.6009254  17.9869499  59.3107567  24.8914375  19.3696251  59.3689461
  23.9760017  19.3838100  58.7774429  24.5162640  20.0199852  60.6928329
  23.9105930  19.2986698  61.2414398  25.7441120  20.5393600  61.5497322
  25.4616413  20.8696194  62.5493546  26.5211792  19.7760849  61.5907059
  26.1065407  21.4710770  61.1153870  23.6293468  21.2357597  60.5246887
  22.7120018  21.0679817  59.9603920  23.3209724  21.6356392  61.4906578
  24.2765541  21.9360332  59.9966431  25.8469639  20.3985653  58.6700706
  27.0532703  20.5245056  58.8792953  25.3248043  21.2335377  57.7598724
  24.3153725  21.2325058  57.7259216  26.0851631  22.3501644  57.1720886
  26.9684315  22.0601330  56.6030312  25.2225685  23.0418148  56.1033249
  24.2852745  23.3547459  56.5633850  25.7633801  23.9182377  55.7462463
  24.8416843  22.1730042  54.9266853  23.5803585  21.6227646  54.9101715
  22.9064884  21.9813175  55.6742020  23.0853748  20.9618244  53.7591362
  22.1214600  20.4764824  53.8005600  23.8216801  20.8534908  52.6505127
  23.3845119  20.2818851  51.8451843  25.1855526  21.1720333  52.6841850
  25.9429321  20.7976818  52.0113983  25.7370548  21.9008808  53.8379860
  26.7704048  22.2141266  53.8594856  26.5757027  23.4252510  58.1333122
  25.7601566  23.8779507  58.9060707  27.8905144  23.8237000  58.1342278
  28.9953403  23.2907047  57.4402847  28.9220352  23.6723766  56.4219284
  28.9600163  22.2026825  57.4955788  30.2838879  23.7729015  58.1249657
  31.0989876  23.9403839  57.4209328  30.5718861  23.1264019  58.9539375
  29.9061623  25.0708637  58.7084770  29.9437580  25.8919086  57.9925346
  30.6053257  25.4114513  59.4721985  28.3507042  24.8763447  59.1247940
  28.1541443  24.4802074  60.1210556  27.5285740  26.1899796  59.0149231
  27.4407063  26.9377270  60.0078201  26.8455467  26.3983517  57.8614769
  26.8175201  25.7316418  57.1033173  26.0835323  27.6041012  57.6423798
  26.6792393  28.4719830  57.9252472  25.7336712  27.8324509  56.2338791
  25.0706596  28.6970501  56.2024422  26.6470928  28.0184994  55.6689453
  25.1180363  26.9977722  55.8986092  24.8265095  27.6155834  58.5721169
  24.3214092  28.7288456  58.6849251  24.3896084  26.4469528  59.1879845
  24.8844357  25.5928688  58.9740105  23.2807751  26.4365921  60.1106186
  22.4780846  27.0161991  59.6547127  22.7249146  24.9533539  60.1859360
  22.6791210  24.4561291  59.2170334  23.4735889  24.3910904  60.7440147
  21.3916836  24.8151684  60.9362755  21.4888821  25.2963924  61.9094505
  20.6342125  25.4042645  60.4192505  20.9344788  23.3151493  60.9908447
  20.8219643  22.9235001  59.9798775  21.7611198  22.8862324  61.5572319
  19.6797924  23.1159763  61.8389778  19.7948303  23.4941998  62.8547592
  18.8568592  23.5790939  61.2945442  19.4501076  21.6247063  62.0253983
  20.2808399  21.1394119  62.3327637  18.6958084  21.5563526  62.6935844
  19.1413994  21.3213959  61.1128197  23.5704956  27.1934185  61.4745293
  22.6758652  27.5156651  62.2916260  24.8640728  27.4117374  61.8564720
  25.5714493  27.0333786  61.2428246  25.3553143  27.9295998  63.1842346
  24.5809765  27.6106415  63.8819275  26.7718773  27.3868465  63.3986244
  26.9582958  26.4100895  62.9521942  27.4612617  28.0968399  62.9417191
  27.0058918  27.3565712  64.4627762  25.3661156  29.4917469  63.2199860
  25.5574169  30.1690311  64.2712097  25.1985531  30.1642838  62.0189323
  24.8676434  29.6303349  61.2280464  25.3997993  31.6689491  61.9510536
  26.2112484  31.8957691  62.6425781  25.8053207  32.1034088  60.5021896
  24.8760719  32.1631355  59.9355927  26.4877186  33.4115257  60.4127121
  25.9270763  34.0385246  61.1060104  27.4955654  33.3024521  60.8132744
  26.4124527  33.7661324  59.3847580  26.6731720  31.0689678  59.8038902
  27.6449223  31.0389862  60.2967415  26.3748436  30.0214787  59.8470688
  26.8437996  31.4336967  58.7909927  24.2516022  32.5120125  62.5687561
  24.4589252  33.5045586  63.3177605  23.0588245  32.0160789  62.3775215
  23.0291557  31.1140556  61.9241180  21.8093262  32.7047806  62.7952728
  21.9661961  33.7549896  62.5492020  20.5601883  32.0632019  62.0803185
  19.6749783  32.6503181  62.3248444  20.6385746  32.2553253  61.0102463
  20.2834759  30.6008415  62.4665146  21.2432976  30.0845375  62.4830208
  19.8877449  30.6142483  63.4820557  19.2761021  29.9370270  61.4827423
  18.4131413  30.6027451  61.4680176  19.6910210  30.0041466  60.4770355
  18.9437389  28.5963612  61.8873901  18.7646236  28.5249538  62.8788109
  18.7970142  27.4955330  61.1958008  18.8403358  27.3767929  59.9001999
  19.1347599  28.1725121  59.3522530  18.8977089  26.4337749  59.5430946
  18.4280128  26.5010738  61.8971481  17.9873466  25.7090416  61.4515038
  18.5619984  26.4551525  62.8971710  21.6409473  32.7563286  64.3029480
  20.8772831  33.5524368  64.8218994  22.3817825  31.8793468  65.0295410
  23.0720005  31.3214931  64.5473557  22.3737144  31.7784328  66.5085678
  21.3115807  31.8211555  66.7496948  22.9767456  30.4806843  67.0376205
  24.0620441  30.4645576  67.1374435  22.5221920  30.4323368  68.0271378
  22.5062180  29.2710857  66.3426437  22.8131199  29.4052658  65.3053818
  23.0941792  28.4487228  66.7502213  21.0800190  28.7654476  66.3632507
  20.9221363  27.5599155  66.0621338  20.1611614  29.5568638  66.6550140
  23.1100521  32.9206314  67.2382202  22.8969269  33.2114410  68.4540253
  24.0747280  33.6208878  66.5801849  24.1541309  33.3132057  65.6214752
  24.6824322  34.8525238  67.0415878  24.9026012  34.6649399  68.0925140
  25.9415569  35.0686684  66.2748795  25.8482189  34.8294868  65.2155457
  26.1902142  36.1267357  66.3572159  27.0353203  34.1782951  66.9294128
  26.6989002  33.1691170  67.1670609  28.1898193  34.0408859  65.8395844
  29.0078468  33.5540314  66.3705292  27.8773003  33.3599854  65.0478668
  28.4427872  35.0246429  65.4441986  27.6599464  35.0265388  68.0244293
  28.5630169  34.5365524  68.3883896  27.9426441  36.0393715  67.7374573
  26.8608112  35.1062508  68.7613983  23.6061172  36.0170517  66.9179993
  22.7182999  36.0285034  66.0459366  23.6516457  37.0191040  67.8087616
  24.5261536  37.0680618  68.3116913  22.7362862  38.1856270  67.6949081
  21.7493153  37.7295380  67.7721939  22.9608822  39.0074959  69.0045319
  24.0127277  39.2884293  69.0574341  22.3595276  39.9164467  68.9877014
  22.5933437  38.2849159  70.1517944  23.4111996  37.8838463  70.4548721
  22.7409210  39.1256523  66.4911423  23.7373848  39.7872925  66.1096268
  21.6445389  39.1789589  65.7818832  20.8167572  38.7449379  66.1646500
  21.3991547  40.0522575  64.6163788  20.3290482  40.1329155  64.4254150
  21.6587219  41.0573387  64.9488449  22.1756268  39.7398109  63.3218689
  22.2689896  40.6628036  62.4509621  22.5292053  38.4537086  63.1389961
  22.3826084  37.8533173  63.9378319  23.3301220  37.8271446  62.0648499
  23.8168163  38.6932564  61.6164322  24.4514408  36.8997345  62.5888557
  24.0803337  36.4160271  63.4924088  24.5537548  35.9755173  62.0201187
  25.8564701  37.5065079  62.9569473  26.0712833  38.0049286  64.1845169
  25.4144058  37.9362869  65.0390320  27.2355347  38.7323494  64.1508636
  27.5419445  39.1949310  64.9947968  27.8496284  38.6068611  62.9265633
  28.9879246  39.1570587  62.4454613  29.5643368  39.8313332  63.0614967
  29.4136772  38.7593689  61.1820374  30.3084736  39.1525230  60.7225037
  28.6933956  37.8390541  60.4067574  29.0347252  37.3992043  59.4813232
  27.4832916  37.3152046  60.9481468  26.8726692  36.6615524  60.3429375
  27.0365410  37.6953735  62.2107277  22.3973370  37.1053581  61.0192719
  22.7822666  36.9083862  59.8797722  21.1860867  36.7422028  61.3186493
  20.8959904  36.9289131  62.2679024  20.2011375  35.9798012  60.4886246
  20.4573021  34.9686165  60.1724014  18.9253693  35.8271332  61.3317986
  18.2264099  35.2180977  60.7585373  19.0614910  35.2985725  62.2753029
  18.2794247  37.1795578  61.5793610  18.9920311  37.9376106  61.9043961
  17.7355785  37.4889717  60.6868362  17.3042736  37.2699547  62.7536507
  16.7826157  36.2649307  63.2958794  17.0499096  38.5112190  63.1180611
  17.3379116  39.3585167  62.6498222  16.2727661  38.6267242  63.7527351
  19.9640179  36.5660591  59.0497818  19.6062088  35.7895660  58.1479378
  20.1246014  37.8751564  58.8070068  20.6362419  38.3598061  59.5304985
  20.0222836  38.5047035  57.5005455  19.1937866  38.0388031  56.9670334
  19.5603466  39.9679031  57.5769920  20.3797703  40.6328125  57.8500214
  19.1319981  40.1621208  56.5936813  18.4241314  40.1816521  58.5865479
  17.0898132  39.6273003  58.3442154  16.9000206  39.0440750  57.4552727
  16.0703335  39.8799896  59.2790489  15.0387259  39.7002068  59.0147362
  16.4140701  40.6122589  60.4284515  15.4022913  41.0206642  61.2863350
  15.6987276  41.8446693  61.6796989  17.6914482  41.1760674  60.6219215
  17.8364658  41.7472610  61.5269699  18.7293930  40.9085274  59.7634773
  19.7104683  41.3571930  59.8143997  21.2778664  38.3287163  56.6355247
  21.2040615  38.3468933  55.4067764  22.3915234  37.9218712  57.1560364
  22.3795471  37.8151474  58.1603088  23.5640869  37.6465340  56.3638802
  23.8040218  38.5636024  55.8258171  24.7894497  37.3350449  57.3002167
  24.4817657  36.6997833  58.1308022  26.0229836  36.6708565  56.5845337
  26.6904907  36.1767159  57.2904816  25.6974087  35.9431496  55.8412056
  26.6094284  37.4132080  56.0431519  25.2955952  38.6506615  57.9954376
  24.7094822  38.8334808  58.8960762  26.3410702  38.5943527  58.2986069
  25.2431145  39.5589752  57.3951683  23.3059235  36.4510307  55.4168854
  22.8474426  35.3966064  55.9028549  23.7885494  36.5083504  54.1079216
  24.4748249  37.6132584  53.4788322  25.4330254  37.9046631  53.9089890
  23.7560253  38.4292068  53.5540619  24.6394405  37.2735100  51.9980469
  25.7009563  37.0556602  51.8804626  24.2591648  38.0886116  51.3823357
  23.9237976  35.9443016  51.8032379  24.4332523  35.2649765  51.1198158
  22.9290657  36.1084976  51.3889313  23.7898273  35.3874931  53.2003746
  22.8287640  34.8757706  53.2513237  24.9758606  34.4512138  53.4944458
  26.1301422  34.8746605  53.5268898  24.6261997  33.1191025  53.6871376
  23.6462517  32.8784142  53.6438904  25.6182461  32.1143074  54.0780411
  26.6523037  32.3863792  53.8663826  25.3317909  31.8896294  55.5822754
  26.0701275  31.1949711  55.9827957  25.5401421  33.1347427  56.4033127
  25.6726303  32.8931503  57.4579086  26.4804173  33.5938034  56.0979462
  24.7185097  33.8506126  56.3796158  23.9277134  31.4182129  55.8944016
  23.6092873  30.6390667  55.2018433  23.8279228  31.1325455  56.9415588
  23.2706814  32.2633972  55.6892700  25.4793606  30.8629436  53.2417603
  24.3674774  30.4759159  52.7363892  26.5957680  30.2067738  53.0160904
  27.4429417  30.7251511  53.1996193  26.6669350  28.9133320  52.3274269
  25.8653107  28.3095894  52.7528648  26.3848286  29.0764141  50.7952957
  25.4390163  29.6118565  50.7125778  27.3840790  29.8958702  49.9771385
  28.2028103  29.3089390  49.5608635  26.8677254  30.4404984  49.1866570
  27.8141880  30.5770931  50.7113342  26.2426929  27.8336201  50.1556702
  25.3921280  27.4448662  50.3724937  27.9591579  28.1723862  52.6495438
  28.9105492  28.8894653  53.0162163  27.9544296  26.8811874  52.4895477
  27.0610046  26.4297371  52.3550720  29.1020489  26.0485916  52.7187653
  29.9237156  26.6328602  53.1330070  28.8598824  25.3065586  54.0325050
  28.6498451  26.0142117  54.8345108  28.0202122  24.6150970  53.9622612
  30.3736477  24.4089336  54.4522972  30.5446835  23.7047157  53.3299255
  29.3843288  25.1301842  51.4754295  28.5351620  24.3519001  51.0195732
  30.6746178  25.2125187  50.9963303  31.2135792  25.9819660  51.3672333
  31.1978188  24.3116398  49.9381561  30.3096218  23.8943329  49.4637527
  32.0590630  25.0751038  48.9374619  32.4453049  24.3617706  48.2094040
  31.3922100  25.7782936  48.4385300  33.1484146  25.9155197  49.5662804
  32.7576218  26.7280540  50.1787910  33.7434235  25.2859535  50.2278824
  34.1315651  26.7078896  48.3040047  35.5161743  27.2162075  49.2854385
  36.1386566  26.3742447  49.5882721  36.0938721  28.0551147  48.8973694
  35.0602455  27.6591988  50.1708717  31.9885349  23.1871777  50.6213989
  32.0299721  23.0884857  51.8329353  32.4585571  22.1966534  49.8770828
  32.1691856  22.2364998  48.9102440  33.5320511  21.1505299  50.2925873
  33.4157181  20.9649734  51.3603554  33.1758995  19.9354019  49.4198456
  32.1072769  19.7367859  49.3380241  33.4667854  20.0435143  48.3749542
  33.7764206  18.6409168  49.9254303  33.8411865  17.9212303  49.1093674
  34.7751541  18.8438396  50.3120155  32.9443970  18.0996685  51.0427132
  31.9378681  17.4085350  50.7883797  33.2175179  18.2296467  52.3408813
  33.9983444  18.8227997  52.5829124  32.7101364  17.6740952  53.0146942
  34.9069557  21.7514114  50.0377426  35.1315880  22.2686234  48.9597702
  35.8492012  21.7186394  51.0091667  35.6837349  21.2739277  51.9007683
  37.3017654  21.9100990  50.7416229  37.3653679  22.8950520  50.2791061
  38.1659546  21.8221951  52.0021515  37.4502373  22.0979786  52.7766190
  38.5334587  20.8014698  52.1077843  39.3647270  22.8287315  51.9943771
  39.8908386  22.7810783  52.9478149  39.9541054  22.5795097  51.1119843
  39.0403976  24.3253517  51.8212357  39.9785080  25.0857639  51.3899918
  37.8946381  24.7781982  52.0751190  37.8823776  20.8399830  49.7169991
  37.4139328  19.7629852  49.6108932  38.9019661  21.2027683  48.9992027
  39.3071632  22.1034451  49.2106209  39.6845970  20.2130394  48.1605682
  39.0223007  19.7593403  47.4232635  40.7623177  20.9670029  47.3734016
  40.2614403  21.6732597  46.7112617  41.3725739  21.5634480  48.0515938
  41.7448044  20.0956879  46.5261078  42.2295532  19.5170498  47.3124237
  41.1104622  19.5471249  45.8298378  42.7999458  21.0702229  45.5021553
  44.0718689  19.8266716  45.1925583  44.5621147  19.8803291  46.1646118
  43.6837273  18.8213997  45.0286140  44.6436043  20.2150879  44.3497314
  40.3930206  19.1567192  49.0637360  40.9692688  19.5761623  50.0257034
  40.1976852  17.8803730  48.7280998  39.5409241  17.7475147  47.9723778
  40.8724861  16.7448578  49.3347931  40.8983765  16.8857555  50.4153366
  40.1230469  15.3883333  49.0986595  39.0616837  15.5075970  49.3163376
  40.1788750  15.0625544  48.0599823  40.5275841  14.2915668  50.0383987
  39.9329262  13.2089405  49.8367996  41.4004631  14.4398994  50.8764915
  42.4311409  16.5951271  48.9032631  42.7965240  16.6152210  47.7021942
  43.3180161  16.6613579  49.8760300  43.0192947  16.7359638  50.8379555
  44.8105812  16.7210331  49.6639099  45.0719910  16.5215702  48.6246872
  45.2125168  18.1545029  49.9653168  44.7346420  18.5220623  50.8734093
  46.6699944  18.2962399  50.1284904  46.8962936  19.3503284  50.2890625
  47.0122604  17.8340435  51.0544128  47.1501045  17.9456367  49.2148857
  44.8486710  19.1868305  48.8680344  43.8421516  18.9102154  48.5541725
  44.9418068  20.2311363  49.1661148  45.6049118  19.1078663  48.0870285
  45.5034752  15.7922926  50.6639671  45.1647148  15.7449007  51.8355560
  46.4720535  15.0494413  50.1053886  46.7519341  15.4404049  49.2171783
  47.3068619  14.0842304  50.7977104  46.7373085  13.2351379  51.1755333
  48.3036690  13.4969101  49.7036362  48.9288292  14.2587309  49.2379074
  49.3080063  12.4975653  50.3691216  50.2528801  13.0320158  50.4675064
  48.8165283  12.2508907  51.3102379  49.5361633  11.6234722  49.7591896
  47.6308174  12.9636364  48.6127930  48.1272354  13.2429161  47.8400269
  48.0687599  14.7868261  51.9311676  48.6469994  15.8223839  51.8082428
  47.9955330  14.1723890  53.0974197  47.6836281  13.2119007  53.1140671
  48.6070633  14.6968327  54.3217812  48.6481781  13.8769741  55.0388908
  49.6119537  15.0196104  54.0495567  47.7816200  15.7886877  55.0676422
  48.2553024  16.1601925  56.1519508  46.6213150  16.1650524  54.4914894
  46.4582443  15.8412027  53.5488129  45.8644066  17.3066502  54.9758644
  46.4957314  18.1829834  55.1227264  45.1099815  17.7026272  54.2960510
  44.9863319  17.0308838  56.1586456  44.5039673  15.9555645  56.3964882
  44.8274269  18.1211414  56.9568977  45.1044884  19.0350552  56.6281166
  44.1459732  18.0803928  58.3220482  44.7482796  17.3861713  58.9080429
  44.1780396  19.4240913  58.9816475  45.1677094  19.8784523  59.0286865
  43.5598488  20.0568409  58.3448029  43.5085526  19.4583092  60.3477974
  42.5132217  19.0355072  60.2112160  44.3563461  18.5902042  61.2887650
  45.3531075  19.0278244  61.2336159  43.8260117  18.7203083  62.2321205
  44.1735268  17.5600300  60.9831123  43.6799469  20.9067001  60.8528671
  43.2319565  21.5584469  60.1027832  43.1426048  21.0455246  61.7910004
  44.7092323  21.2104836  61.0436325  42.7298889  17.4270172  58.1570091
  41.9765167  17.8819294  57.2900772  42.3736115  16.4530506  58.9902992
  43.1235275  16.2503548  59.6357765  41.0569763  15.7686024  59.1381340
  40.6855087  15.7617283  58.1134071  41.1443787  14.3281002  59.5676270
  41.6771622  14.3597288  60.5180168  40.1623650  13.9253292  59.8156624
  41.8724289  13.4659767  58.5318184  42.8725929  13.8961077  58.5843773
  41.9088097  12.4180946  58.8296738  41.3550034  13.5649500  57.0907974
  40.2673264  13.6359444  57.0944901  41.7150612  14.4936705  56.6481438
  41.8588448  12.3720093  56.2158928  42.9181671  12.1953259  56.4022255
  41.3144836  11.4556627  56.4441032  41.5698090  12.6932602  54.7759285
  42.0342140  13.5583973  54.5393639  42.0070343  11.9801006  54.2099380
  40.6052170  12.8235464  54.5063248  39.9268456  16.4681835  59.9244003
  40.2429771  17.1980858  60.8491058  38.6379356  16.1755199  59.5382881
  38.4821281  15.7067327  58.6573448  37.4318047  16.6195984  60.2981415
  36.6108742  16.2714272  59.6712799  37.3794441  15.8413382  61.6410599
  38.2625694  16.1659508  62.1913452  36.4111023  16.1234798  62.0543671
  37.4523125  14.2783566  61.4252052  36.7470741  13.9563713  60.6590042
  38.4345512  13.9098310  61.1294098  36.9449615  13.5895987  62.6855240
  37.2377930  13.9899406  63.6561317  35.8794289  13.7765007  62.8189621
  37.3543129  12.0934591  62.7058334  37.2518539  11.7615366  61.6726685
  38.3818207  11.8753719  62.9969788  36.4402962  11.2888145  63.5950966
  35.5647202  11.0702372  63.1415634  36.8963394  10.4170656  63.8235359
  36.3157196  11.8441410  64.4294815  37.3712234  18.1276588  60.4866638
  36.9141846  18.5677471  61.5464172  37.8492966  19.0272770  59.5507164
  37.9574814  18.6584816  58.6166992  38.1163521  20.4032288  59.7615051
  38.1488686  20.5528355  60.8406982  39.4663544  20.6223316  59.1461830
  40.1826935  19.9430408  59.6082649  39.3719711  20.2996712  58.1093216
  40.0053139  22.3303566  59.2206917  39.7786026  22.5069542  60.5254173
  36.9935150  21.2383804  59.1365776  36.7391357  21.1606255  57.9285736
  36.3723412  22.0759659  59.8958549  36.5979309  22.0319080  60.8793526
  35.6413689  23.2868576  59.4112892  35.1334534  23.0273495  58.4824333
  34.6108780  23.7362690  60.4338951  35.1517677  23.8366280  61.3748894
  33.9919548  25.1530704  60.1048355  34.6768112  25.9672318  60.3419228
  33.6128578  25.1974869  59.0838509  33.1209869  25.4281197  60.6997032
  33.4642296  22.7014294  60.7112961  32.5815582  23.2400360  61.0561142
  33.3148613  22.1755028  59.7683258  33.8113976  21.7340126  61.8374481
  34.6272659  21.0392838  61.6379280  34.1738625  22.1980381  62.7547302
  33.0099754  20.9975967  61.8967590  36.5307884  24.4901638  58.9925117
  37.5056305  24.8218174  59.6911926  36.1430397  25.1932259  57.8997116
  35.3397865  24.9124107  57.3556290  36.8664818  26.4011002  57.4460182
  37.5940742  26.7846603  58.1612778  37.6497726  26.0077171  56.1825294
  36.9540443  25.4171658  55.5864487  37.7318268  26.8714905  55.5227814
  38.9931030  25.3356152  56.4996109  39.5847969  26.1282921  56.9574966
  38.8026237  24.5964146  57.2776871  39.7992439  24.8435345  55.3016319
  39.1737328  24.1410141  54.7509041  39.9789963  25.6131611  54.5509796
  41.0874863  24.2662258  55.6773796  41.7959290  24.9560833  55.8830490
  41.3932266  23.0072575  55.6827087  40.6446724  22.0194016  55.3415871
  39.7701797  22.2306156  54.8824959  41.0988922  21.1175652  55.3633652
  42.5895615  22.6485252  56.1215591  43.2350388  23.3788242  56.3863754
  42.8335609  21.6687088  56.1443710  35.8420486  27.6066570  57.2164078
  34.6659737  27.4443398  56.8023720  36.2654800  28.7946720  57.4897232
  37.1469688  28.9657116  57.9521294  35.4095001  30.0072231  57.2511787
  34.5663567  29.6351070  56.6691628  34.8641968  30.5618896  58.6047363
  34.2089691  29.8885860  59.1574020  35.9796181  31.0391235  59.5047455
  36.5026093  30.1491299  59.8547287  36.6773376  31.7352829  59.0392952
  35.5162697  31.4874020  60.3836403  34.0551338  31.8994656  58.3577385
  33.5858421  32.2678375  59.2699699  34.6253433  32.7185402  57.9194679
  33.3004646  31.8024750  57.5772438  36.1859093  31.0515862  56.3490562
  37.4109077  31.2124233  56.6693878  35.5187454  31.7107143  55.3662834
  34.6105766  31.3077774  55.1847115  35.8407974  32.9449921  54.7659988
  36.4895973  33.4175987  55.5034294  36.4843140  32.7641525  53.4241295
  37.1809807  31.9296093  53.5034676  35.7217178  32.4521370  52.7105446
  37.1056633  34.0046501  52.7508163  36.3647766  34.8026276  52.7016449
  37.8563919  34.2895164  53.4879494  37.9385834  33.7943878  51.1476898
  36.6675301  33.4022865  50.0342064  37.0546837  33.2719383  49.0236511
  36.0810089  32.5333138  50.3324966  35.9605141  34.2316437  50.0143204
  34.6221504  33.8725586  54.7353897  33.7877808  33.6699142  53.8458023
  34.4940338  34.6976509  55.7154007  35.3201752  34.8521957  56.2754936
  33.6040840  35.8791618  55.6316185  32.6522369  35.5459595  55.2180176
  33.4929962  36.4600487  57.0524979  33.0342827  35.6971054  57.6814690
  34.4305458  36.8846550  57.4113960  32.5034294  37.6269989  57.0734291
  32.8434830  38.5294037  56.5653648  31.6008492  37.2285347  56.6100998
  32.0598831  38.0988312  58.7228661  33.5353127  38.9532852  59.4525757
  34.0751152  39.3883438  58.6114883  33.2668915  39.7627678  60.1313896
  34.1544800  38.2649727  60.0278664  34.3329048  36.9151688  54.7342911
  35.5444221  36.9978104  54.6469002  33.4898911  37.6520309  53.9784355
  32.5053902  37.4809341  54.1253433  33.8460464  38.9375687  53.2305031
  34.9211197  39.0311852  53.3839912  33.6928825  38.6897774  51.7255325
  32.6464958  38.8452835  51.4628639  34.5568237  39.6785355  51.0193787
  34.2912331  40.6806068  51.3561440  35.6388512  39.5669556  51.0891457
  34.2781258  39.7125435  49.9661560  34.2390518  37.4243736  51.3624840
  35.1660652  37.6595802  51.2793045  33.0007820  40.0459099  53.7403984
  31.8691921  39.8903999  54.2177200  33.6867638  41.1491470  53.9436531
  34.6538200  41.2553406  53.6723175  33.1536179  42.3079872  54.7359695
  32.0717545  42.4322586  54.6887093  33.5122299  42.0736656  56.2979774
  32.9631310  41.1709480  56.5657310  35.0272675  41.7103729  56.5089684
  35.6620979  42.4878845  56.0840340  35.2839165  41.4605179  57.5384369
  35.3040237  40.7900162  55.9947205  33.1906548  43.1617584  57.2451439
  33.2451019  42.8563728  58.2900658  33.7918777  44.0354233  56.9934578
  32.1379280  43.3818398  57.0678329  33.6819496  43.6467972  54.3258934
  34.9324303  43.7757568  53.9623871  32.8593750  44.7225304  54.3863297
  31.9355106  44.6917267  54.7933006  33.2936707  46.0829811  54.0718842
  33.8998871  46.0623665  53.1662483  32.1212540  46.9989014  53.6456757
  31.4944611  46.5353355  52.8838768  31.4434471  47.3205338  54.4363899
  32.5957603  48.2760773  52.8899956  33.2402878  48.8192444  53.5811234
  33.1536064  48.1315727  51.9647789  31.4217072  49.2196388  52.5804100
  31.1772060  49.4447594  51.3842354  30.7132874  49.8424683  53.4644661
  30.7442188  49.7036705  54.4644051  30.0595245  50.4813766  53.0349388
  34.0402908  46.6256943  55.3673592  33.5414581  46.8187866  56.4297142
  35.3611488  46.9478226  55.1561050  35.7220764  46.7274399  54.2389030
  36.3320847  47.4070625  56.1788025  35.8717575  48.1990585  56.7695160
  36.8130074  46.2585754  57.0908890  35.8697968  45.9150467  57.5156708
  37.5669708  45.0322990  56.4638557  36.9821205  44.4997253  55.7139053
  38.3932457  45.4429703  55.8835831  38.0051193  44.3041763  57.1464691
  37.7195358  46.6899223  58.0482101  37.3353233  46.3093529  58.8413963
  37.6454544  48.0681725  55.6420593  38.1751213  47.5983887  54.6172791
  38.0882530  49.0897446  56.3900909  37.5855827  49.3700867  57.2200508
  39.1898880  50.0249557  55.9951324  39.3461037  50.0040016  54.9165878
  38.9389420  51.4886856  56.3027802  39.9324074  51.9205589  56.1819038
  38.2644691  51.9918365  55.6099434  38.5833130  51.7375336  57.7327690
  39.1002731  52.7239838  58.3100777  37.9247322  50.9362183  58.4256897
  40.5128517  49.4919052  56.6211243  41.5101242  50.2562332  56.4527779
  40.5528870  48.3225060  57.2243805  39.6726723  47.8550072  57.3879662
  41.7470741  47.7675629  57.8622055  42.1454430  48.6040459  58.4364014
  41.3209229  46.6407242  58.8574486  40.8321762  45.7911186  58.3805923
  42.4739647  45.9806633  59.6306229  43.1190796  46.7643356  60.0278320
  42.2708549  45.3348732  60.4849052  42.9803543  45.4201126  58.8448334
  40.4749260  47.1902885  60.0288544  40.2654266  46.3210640  60.6522751
  40.9611053  47.9975090  60.5766907  39.6597023  47.6858864  59.5016975
  42.7062874  47.1837845  56.8413429  42.2493896  46.4683762  55.9289055
  44.0794411  47.4120712  56.9746017  44.8016853  48.3714256  57.8694344
  45.1136703  47.8438606  58.7707901  44.1493378  49.2275467  58.0415001
  46.0635910  48.9256325  57.1676941  46.7508698  49.1939850  57.9700241
  45.8829575  49.7718620  56.5048409  46.4305496  47.7228775  56.2831039
  47.0892448  46.9507866  56.6807213  46.9171295  48.0333939  55.3584824
  45.0896683  46.9225273  55.9708672  44.7893333  47.2662201  54.9810333
  45.2900772  45.4359665  56.0542336  45.1329346  44.8098831  57.0725822
  45.8172112  44.8031654  54.9478569  46.1758842  45.4064522  54.2215652
  45.7387733  43.4041290  54.6587143  44.6596756  43.2516174  54.6785889
  46.3478088  43.3188286  53.2229538  45.7395134  44.0252151  52.6580658
  47.4103851  43.5585632  53.1834869  46.1286545  41.9376221  52.6748657
  46.8820992  41.3344231  53.1813850  45.1351700  41.5996246  52.9695702
  46.3461876  41.9004059  51.2363930  47.4913559  42.0380707  50.8245354
  45.3339119  41.7960930  50.3936501  44.3730011  41.7329712  50.6982269
  45.7509003  41.9314156  49.4837570  46.3879204  42.5110245  55.7090874
  46.0248146  41.3581772  55.8754501  47.3583374  43.1078568  56.4067726
  47.4995995  44.0866089  56.2013626  48.1873207  42.4505196  57.4379768
  48.0946884  41.3644829  57.4446373  49.6124153  42.7354431  57.0330734
  50.2723198  42.1579475  57.6804733  49.8392792  42.4158897  56.0159569
  50.0352287  44.1987915  57.3143387  49.1751366  45.1089096  57.2490616
  51.1737862  44.4476357  57.7521667  47.8210373  42.8111877  58.8740501
  48.3220215  42.2416573  59.8373947  46.8913765  43.7310257  59.0496330
  46.4208107  44.1715736  58.2720795  46.3357430  44.0500259  60.4101257
  47.1341095  43.7685242  61.0967636  46.0867729  45.6237297  60.4999466
  46.9419556  46.2039948  60.1534653  45.3351555  45.8400497  59.7407455
  45.6754494  46.1120453  61.8764610  44.8002586  45.5507278  62.2036629
  46.4094353  46.0270576  62.6778030  45.1783981  47.5779037  61.9071884
  45.8493462  48.5353394  61.4804916  44.0057106  47.8306389  62.4015160
  43.6655807  47.0750885  62.9790611  43.8359985  48.8134384  62.5609016
  45.0360756  43.2676582  60.6823578  44.5701790  43.2932587  61.8229218
  44.5871124  42.3989067  59.8276176  45.2055206  42.2807503  59.0378609
  43.3113098  41.7404594  59.9481926  42.5323181  42.4482689  60.2315254
  42.9909134  41.0464859  58.5408936  43.7816315  40.3693733  58.2178116
  41.7509804  40.2278442  58.7448845  41.0362778  40.8701172  59.2594643
  41.4439354  39.8662186  57.7635345  42.0948601  39.3272743  59.2536278
  42.7946396  42.0898247  57.4583969  43.4454384  42.9375496  57.6726875
  43.1042709  41.5676041  56.5531235  41.3788757  42.7472267  57.3359222
  40.8342247  42.0827408  56.6651611  40.7972412  42.7993279  58.2562981
  41.4498405  43.7843590  57.0081749  43.4367027  40.5930977  61.0320129
  44.3872948  39.7840805  60.9967003  42.5526237  40.5088272  61.9995880
  41.7428207  41.1099434  62.0541992  42.6320610  39.4300308  63.0272484
  43.5923576  38.9702454  63.2607613  42.1521492  39.9247131  64.4695663
  41.2250862  40.4710693  64.2959366  42.0382996  39.1042366  65.1780548
  43.2019806  40.8915977  65.1248856  44.2362251  40.5636673  65.0204926
  43.2045212  41.8214073  64.5560608  42.9146461  41.2168503  66.6026611
  41.8403168  41.4000397  66.6215591  43.0411568  40.3031731  67.1834335
  43.6858406  42.3219223  67.2091599  44.1811562  42.9640312  66.6071167
  43.8856735  42.5113525  68.5185394  43.5411797  41.6231575  69.4633560
  43.7087402  41.7612572  70.4497375  42.9518394  40.8353882  69.2348938
  44.5293198  43.5746613  68.9535522  44.8838959  43.6546555  69.8958817
  44.7932167  44.3252945  68.3314590  41.8010559  38.2854691  62.4773750
  40.5971107  38.0908546  62.7275391  42.5256500  37.4804497  61.7171593
  43.5081024  37.7103195  61.7624092  42.1814003  36.1310005  61.3776207
  41.1558800  36.0905685  61.0105133  43.2296638  35.6522141  60.3355064
  44.2341042  35.8245506  60.7221565  43.0153656  34.5957680  60.1739349
  43.0902443  36.3614731  58.9953194  42.0062637  36.3549271  58.1883087
  42.3234444  37.1893387  57.1962166  41.7185364  37.2752876  56.3056564
  43.5763512  37.6529007  57.3390694  44.0681419  38.1246147  56.5935936
  44.0989647  37.1585426  58.4710884  45.1048698  37.3385468  58.8205986
  42.2569122  35.2458878  62.6027985  42.9930115  35.5881805  63.5031548
  41.4777336  34.2031097  62.7007484  40.9619179  33.8471146  61.9087257
  41.3775253  33.3685341  63.9677887  42.2634201  33.5434113  64.5782928
  40.0491676  33.8238564  64.7389984  39.2264633  33.4505920  64.1291428
  40.0107574  33.1248169  66.1794357  40.0820732  32.0469055  66.0340958
  40.8112259  33.5173759  66.8065262  39.0304794  33.2396164  66.6420212
  40.0174942  35.2931023  64.8626175  39.7418671  35.8233986  63.9510765
  39.3747292  35.5623665  65.7007446  41.0365524  35.6454964  65.0221329
  41.3122292  31.8517361  63.7390251  40.5824051  31.3956146  62.8576698
  42.1638489  31.1199245  64.4402390  42.7389908  31.5457439  65.1529694
  42.0757790  29.6749001  64.3474426  41.1911278  29.3138790  63.8228912
  43.2840805  29.1337471  63.5627060  44.1961288  29.4021015  64.0958633
  43.3333397  28.0610561  63.7498093  43.3878479  29.4049664  62.0478592
  43.3029747  30.7985687  61.6262093  43.3608932  31.6828804  62.2434921
  43.1868172  31.0376282  60.1878319  43.3173485  32.0253067  59.7708740
  42.9618759  29.9481831  59.3112183  42.6987801  30.2110081  58.0147781
  43.1250153  29.5788479  57.4314270  42.9762383  28.6105003  59.7636795
  42.7277794  27.8285866  59.0613403  43.1984177  28.3399277  61.1954308
  43.0839806  27.3096638  61.4985237  41.9257660  29.0015202  65.7594986
  42.5929909  29.4869423  66.7116394  41.1613083  27.9551430  65.9149017
  40.6641960  27.6048260  65.1085205  40.9230385  27.2109604  67.1556396
  41.6524582  27.4663944  67.9242783  39.5486641  27.5446930  67.7084961
  38.8017349  27.3912525  66.9296188  39.3105011  26.9175930  68.5676346
  39.3068619  29.0438690  68.1266251  39.5983543  29.6763840  67.2881393
  37.8770866  29.2847672  68.4702148  37.7054749  30.3300304  68.7272568
  37.1917000  29.0874538  67.6459503  37.5585022  28.7566624  69.3689423
  40.0890579  29.5003738  69.3369751  39.9852028  30.5706215  69.5154953
  39.8108215  28.9197273  70.2164841  41.1351891  29.2796593  69.1248627
  41.1026001  25.6432838  66.9112930  41.3821754  25.1351032  65.8729324
  41.0775261  24.9880753  68.0507126  40.9603043  25.5801430  68.8605347
  41.4302368  23.5757847  68.1601334  41.5901794  23.3026218  69.2031555
  40.1619263  22.8128090  67.6806641  40.0443382  23.0237751  66.6177597
  40.3191223  21.7368908  67.7567444  38.8445244  23.1242085  68.4487991
  38.4671783  24.1226501  68.2278442  38.1276245  22.3398705  68.2059708
  38.9971886  22.9544163  69.9991608  39.2772217  21.8334160  70.3526611
  38.7719803  23.9007397  70.7832870  42.7422676  23.1717682  67.5351105
  43.7281151  23.8863468  67.5432892  42.8415642  21.9031010  66.9736557
  42.0356331  21.2969055  66.9179306  43.9596901  21.4495068  66.0780716
  44.8901176  21.5242672  66.6409454  43.7050629  20.0199547  65.6062775
  42.7247353  20.0472126  65.1305542  44.4134216  19.5742359  64.9079514
  43.6457253  19.0220222  66.8049927  44.7180824  18.8868332  66.9459839
  43.1993561  19.5308628  67.6593552  42.8578835  17.6558075  66.6197662
  41.7967415  17.8979454  66.5609970  43.2016945  17.2143421  65.6843491
  43.3364868  16.6205177  67.6933975  44.3878212  16.3544636  67.5838089
  43.2540779  17.0927677  68.6723175  42.4463463  15.3918467  67.8336945
  42.4734650  14.7930021  67.0208282  42.6806183  14.8997765  68.6840363
  41.4691772  15.6310234  67.9233322  44.2318764  22.2994537  64.7919464
  45.3432770  22.2768669  64.2304840  43.2604294  23.1435795  64.3092804
  42.3368034  23.1561546  64.7177582  43.5050011  23.9085388  63.0948753
  43.9125557  23.2131729  62.3610725  42.1250496  24.3937511  62.5836754
  41.6756096  25.1733398  63.1987648  42.1685181  24.8648224  61.6016846
  41.4304161  23.5538673  62.5969658  44.3734283  25.1469440  63.3105583
  44.7944603  25.8442917  62.4015312  44.9266434  25.3989639  64.5730896
  44.5296936  24.8816509  65.3443985  45.9390907  26.3852196  64.8511505
  45.6649208  27.3798447  64.4995117  46.0716934  26.4986954  66.3797836
  46.1549606  25.5293102  66.8711777  47.2965317  27.1907635  66.9401474
  47.4410477  28.1924171  66.5352936  47.3495369  27.2757225  68.0255356
  48.1500854  26.5309505  66.7845917  44.8976974  27.1768990  67.0678329
  45.1252327  27.2228107  68.1328278  44.6722374  28.2032642  66.7782822
  44.0110207  26.5738297  66.8723679  47.2649231  26.0506954  64.1813126
  47.9713402  26.9590874  63.7772751  47.4977455  24.7332115  63.9399414
  46.6660919  24.2063007  64.1653748  48.6059532  24.1761227  63.1166039
  49.4891167  24.7432747  63.4106445  48.6555824  22.6245003  63.3801155
  48.3845978  22.3350849  64.3954544  47.7979393  21.7141438  62.4144096
  47.6924744  20.7671871  62.9437943  46.8351784  22.1560173  62.1576347
  48.2826729  21.5984287  61.4450035  50.0809021  22.0359020  63.1791458
  50.1093712  20.9750538  63.4279289  50.4896736  22.1527367  62.1754761
  50.7929382  22.4281483  63.9052696  48.4875298  24.4305611  61.6044540
  49.4318352  24.0659618  60.8891563  47.3402405  25.0423679  61.1348228
  46.5775070  25.2476158  61.7642746  47.1697426  25.4698257  59.8052711
  47.7739906  24.8844948  59.1121826  45.7190895  25.4713039  59.3930359
  45.1825256  26.1334553  60.0725594  45.5978012  25.9440498  58.4184074
  44.9539337  24.1372757  59.4449883  44.8191719  23.7648106  60.4604721
  43.6025963  24.4333458  58.9141808  42.8958359  23.6047173  58.9584389
  43.2078018  25.2802525  59.4754143  43.6621208  24.8003750  57.8895607
  45.6066933  23.1394062  58.5832329  45.9831848  23.7069759  57.7322273
  46.5228653  22.7657337  59.0405083  44.9804230  22.3222771  58.2252007
  47.7787094  26.8697586  59.5252228  48.1384544  27.2389641  58.3898392
  47.9721527  27.6917610  60.6290932  47.6842651  27.2212811  61.4751816
  48.5145340  29.0374832  60.7410698  49.1134491  29.2588673  59.8576736
  47.3388824  30.0144615  60.7361336  46.5501099  29.7129002  61.4253349
  47.5792885  31.0140858  61.0981522  46.9099312  30.2477684  59.2709618
  46.5996399  29.3679142  58.7073326  45.9629631  30.7860699  59.3107719
  47.8374481  30.9923000  58.3137589  48.5873070  30.2671661  57.9975319
  47.3361626  31.3585377  57.4178314  48.5154839  32.1267509  58.9813538
  49.3801079  32.0170784  59.4917412  48.0767555  33.4368439  58.8774490
  46.9382782  33.7843628  58.3533287  46.6129379  34.7384682  58.2905731
  46.3439865  33.1395836  57.8521538  48.8175812  34.3844185  59.3447647
  48.4946938  35.3358002  59.2412643  49.6561089  34.1589813  59.8606644
  49.4439926  29.2042332  62.0385437  49.1221085  30.0185013  62.8924866
  50.4627991  28.2969360  62.1939430  51.0016212  27.3759937  61.1987534
  51.0238037  27.8092194  60.1987877  50.4513435  26.4351425  61.2083282
  52.4113121  27.0709953  61.6238060  52.9728127  27.9671917  61.3598938
  52.7717323  26.1055927  61.2685661  52.2112579  27.0329208  63.1448975
  53.1824913  27.1967068  63.6117859  51.9110222  26.0252228  63.4321327
  51.2296562  28.1952534  63.4053917  50.5028305  27.9597569  64.1828079
  51.9931641  29.4462757  63.7786636  52.4153900  29.6342487  64.8995209
  52.1053200  30.4602509  62.8362541  51.7441673  30.3629761  61.8980598
  52.6830559  31.7732754  63.0393372  53.6243057  31.6531525  63.5757256
  52.9065895  32.5457611  61.7174492  53.2401733  33.5370331  62.0243721
  53.6074104  32.0279922  61.0625725  51.6794815  32.6921654  60.7204475
  50.8984947  31.7616425  60.5250931  51.4421463  33.8199844  60.1981506
  51.8717766  32.6485329  64.0019455  52.3622818  33.6358261  64.5406113
  50.5757866  32.4512291  64.1138000  50.1243820  31.6993771  63.6127510
  49.7557335  33.1821518  65.1127777  50.0654297  34.2213860  65.0024033
  48.3456001  33.2025795  64.5805283  47.9040565  32.2097816  64.4939880
  47.7218857  33.7697678  65.2714615  48.1565399  33.8562431  63.1610031
  48.7272873  33.3164787  62.4053574  46.6418877  33.7160950  62.6714516
  46.0603027  34.1287422  63.4958229  46.4884224  34.2222443  61.7183685
  46.4366112  32.6533623  62.5427399  48.3860664  35.3513908  63.0225792
  48.3146172  35.6964264  61.9911041  47.6418571  35.8609695  63.6346130
  49.3916550  35.6157112  63.3497353  49.9659729  32.6193314  66.5143204
  49.6125069  33.3332062  67.5003052  50.4163170  31.3787518  66.6411438
  50.9656601  30.9026756  65.9399490  50.5997581  30.8275337  67.9520874
  49.8370552  31.2167835  68.6265259  50.4833183  29.3113785  67.9389572
  49.5256844  29.0761700  67.4745102  51.2881889  28.8336811  67.3803101
  50.5331306  28.8427582  69.2530289  49.7862167  29.1563282  69.7681961
  51.9540176  31.2333679  68.4700928  52.9991608  30.9972763  67.8281403
  52.0454254  31.7857075  69.6711121  51.1836624  31.9006786  70.1851654
  53.2106438  32.2521935  70.3139648  52.8304863  32.7714767  71.1937027
  54.2198715  31.2114754  70.8209763  54.5930595  30.6355438  69.9741440
  54.9567337  31.7306614  71.4338226  53.6081467  30.1137314  71.7404861
  53.0432663  29.4631538  71.0728302  54.7866364  29.2850876  72.2017059
  55.5193100  29.8334198  72.7938385  54.3541412  28.4962406  72.8171463
  55.2182999  28.8274918  71.3115463  52.8809853  30.6440811  73.0570374
  52.5008659  29.8308907  73.6753616  53.4966393  31.2377338  73.7327957
  52.0906258  31.3455963  72.7900009  53.7328300  33.4775848  69.5606537
  54.9379425  33.7253952  69.5383606  52.9120789  34.1980515  68.7617798
  52.0022392  33.7738838  68.6505356  53.1588898  35.3529510  67.9754639
  53.7840462  34.9433784  67.1820374  51.9237938  36.0213280  67.3400803
  51.4068489  35.2473831  66.7727356  50.9400597  36.5268173  68.4338303
  51.4065132  37.4573364  68.7573318  49.8899879  36.5799637  68.1463852
  50.9233551  35.7917900  69.2385406  52.3703880  37.1502190  66.5853806
  52.5957527  36.8677711  65.6959839  53.9449081  36.3796349  68.7670517
  53.8820305  36.4543495  70.0216904  54.8410263  37.1173668  68.1210175
  54.9309883  36.9771690  67.1248550  55.5015602  38.3320923  68.5755310
  55.5421257  38.2812691  69.6635895  56.8180046  38.4487038  67.8674927
  56.6019325  38.1454163  66.8430710  57.0870056  39.4948921  67.7218018
  58.0656204  37.7188339  68.4439240  58.9134674  37.7794495  67.7615891
  58.2652016  38.2625885  69.3672867  57.8228569  36.2808609  68.8788681
  58.6434097  36.0297089  69.5509644  56.9342728  36.1950569  69.5042953
  57.6998749  35.3637886  67.6506577  56.8341103  35.6321220  67.0452194
  58.6008644  35.4919319  67.0507431  57.4918633  33.9292831  67.9955292
  57.4364014  33.3206100  67.1914444  58.2531586  33.5464211  68.5376968
  56.5411339  33.7468567  68.2835083  54.6792030  39.6281548  68.4453735
  55.0735092  40.6971207  68.8789215  53.5908546  39.6129990  67.6722336
  53.4459991  38.7006035  67.2639999  52.6727638  40.6938400  67.3302155
  53.2970886  41.5465584  67.0634003  51.9507790  40.3175087  65.9928055
  52.7408600  40.1443062  65.2621384  51.3429565  39.4208183  66.1136246
  51.0756035  41.4914551  65.4984589  51.1307869  42.5953522  66.0151749
  50.1741028  41.2772293  64.5710297  50.0902443  40.4384995  64.0146179
  49.5394440  42.0074043  64.2809372  51.6815948  41.0856514  68.5133896
  50.8985710  40.2630692  68.9967575  51.6991692  42.3496933  68.8703690
  52.3403587  42.9529152  68.3752975  50.7995491  42.9006004  69.8640060
  50.8620949  42.3208580  70.7849197  51.2763481  44.3271484  70.2277069
  50.6692543  44.6367111  71.0784149  52.7782364  44.4771538  70.5819397
  53.0930519  45.5122108  70.7147827  52.8839340  44.0793457  71.5912323
  53.4196320  43.9697456  69.8613510  51.1469994  45.1907310  69.0484161
  51.9147415  45.0469475  68.4902954  49.3478928  42.9776688  69.2967911
  48.4410782  43.0751953  70.1029358  49.1253090  42.9716835  67.9968109
  49.9448128  42.9002495  67.4107971  47.8819695  43.2505226  67.3129730
  47.2038651  43.8507042  67.9196472  48.0615654  44.1599426  66.0266266
  48.6581306  45.0364113  66.2796326  48.6359596  43.6143036  65.2779922
  46.8527336  44.8120995  65.4044113  47.1645889  45.7094269  64.8699417
  46.3501816  44.0563660  64.8007507  45.8844337  45.2738342  66.4322128
  44.6880798  44.8252792  66.4339676  46.3174286  46.0057487  67.3559723
  46.9987831  42.0318527  67.0642319  46.4768600  41.8883400  65.9503021
  46.9997063  41.0841980  68.0329361  47.3988152  41.3346825  68.9262848
  46.5569153  39.7446976  67.9887848  45.6612396  39.6518822  67.3745651
  47.6986656  38.8589935  67.4272308  48.6639824  39.1532707  67.8391342
  47.5024071  37.8212090  67.6966553  47.8131866  38.7505074  65.8828278
  48.2533875  39.7017899  65.5838547  48.8802261  37.6870880  65.6122055
  48.9742126  37.6682014  64.5264282  49.8581619  37.9607582  66.0082474
  48.6320190  36.6940918  65.9869843  46.6285439  38.3952255  65.0424805
  45.9013100  39.1896324  65.2102814  46.8406219  38.3791885  63.9734306
  46.1787796  37.4524536  65.3539200  46.1719589  39.1546097  69.3682327
  45.2561073  38.3612518  69.4108353  46.7772789  39.4365425  70.4147873
  24.4924221  52.3952599  49.6984901  24.9841309  53.1522903  50.1515160
  23.6985779  52.8507805  49.2713928  24.1634445  51.6920052  50.3444824
  25.2333679  51.9739532  48.5593262  24.5988293  51.2998428  47.9839668
  25.5368004  53.2158051  47.7391891  24.5557652  53.5583534  47.4100609
  26.0822010  53.9940262  48.2730637  26.4911747  52.8784256  46.5604630
  26.5565643  53.6714249  45.8154945  27.5073261  52.7444878  46.9314003
  25.9738503  51.4956665  45.6012688  24.7795143  52.1525536  44.3980103
  24.6153259  51.3075600  43.7293358  23.8535309  52.3215599  44.9476433
  25.2387123  52.9925346  43.8767853  26.4777317  51.3167191  49.0175781
  27.3838730  51.9713593  49.5184669  26.6130352  50.0391350  48.7412033
  25.7682552  49.6112518  48.3899727  27.8484001  49.2182999  48.9020462
  28.7192974  49.8029556  48.6057091  28.1238213  48.8015709  50.3750343
  29.0862560  48.2936745  50.4371529  28.2839584  49.6399040  51.0530090
  27.0193367  48.0281219  51.0646133  26.0701580  48.5297356  50.8760910
  26.9286346  47.0608177  50.5704384  27.2546692  47.7359886  52.8375435
  28.2504978  46.2097054  52.8153343  29.1418991  46.3355560  52.2007866
  28.5672340  46.0308189  53.8428421  27.6941357  45.4118690  52.3233757
  27.7379494  47.8354111  48.0947838  26.7836418  47.5596199  47.3994293
  28.7462139  46.9954071  48.1198997  29.6064205  47.1922226  48.6112366
  28.6936016  45.6551514  47.5487518  28.1541767  45.6414185  46.6016884
  30.1616268  45.1957054  47.1219139  30.7069340  45.4708138  48.0247231
  30.2707005  43.7004318  46.8789215  30.1085567  43.1347656  47.7964325
  29.6983871  43.2030373  46.0958786  31.3155880  43.4396057  46.7107620
  30.6490154  46.1981049  46.0106392  30.1106815  45.9528427  45.0951385
  30.4753208  47.1994934  46.4045296  32.1268692  46.1631165  45.7284966
  32.5017204  45.1397324  45.7120209  32.2453804  46.5646896  44.7221184
  32.6061859  46.7595673  46.5047722  27.9984245  44.7716675  48.6281586
  28.3307705  44.9174385  49.8169060  27.1465836  43.8333855  48.2507133
  26.8463593  43.8398895  47.2863884  26.4895802  42.8470039  49.0962486
  27.0504837  42.6967697  50.0187035  25.1424046  43.3884048  49.4944649
  24.5109539  43.4377785  48.6073723  24.5520687  42.6949577  50.0934143
  25.1262302  44.7354965  50.2744713  25.7784691  44.5523987  51.1283798
  25.4083176  45.6212959  49.7053642  23.6993408  45.0625381  50.7803040
  22.8834724  45.2287750  50.0768661  23.3822460  44.1429520  51.2721481
  23.5468597  46.1662827  51.7697372  22.9521637  46.9019356  51.4158287
  23.9906483  46.2749367  53.0557518  24.7088490  45.3820305  53.7049713
  25.1677761  45.7391891  54.5307617  24.9518757  44.4888115  53.3009911
  23.5033817  47.2599983  53.7282944  23.0530605  47.9693069  53.1677628
  23.8966827  47.5108452  54.6241112  26.4744873  41.5379524  48.2164421
  26.9665375  41.4803238  47.1246033  26.0706482  40.4725685  48.8428535
  26.1759529  40.4393196  49.8468018  25.8090076  39.1661835  48.2378960
  26.3667793  39.2510681  47.3052750  26.3688087  38.4057617  48.7823982
  24.3558235  38.8100510  48.1385612  23.6412373  38.7722397  49.1154022
  23.8505039  38.6570091  46.9029312  24.5358410  38.8443527  46.1850739
  22.5373344  38.0163841  46.5715828  21.8098145  38.2347984  47.3533173
  22.0061207  38.7388611  45.3072319  22.6777287  38.5614014  44.4672623
  20.5915775  38.2645073  45.1154137  20.5374680  37.1808357  45.2194939
  19.8584232  38.6080475  45.8451805  20.2067223  38.5143890  44.1267052
  21.9490547  40.2513390  45.3664284  21.2841148  40.6348572  46.1402931
  22.8817253  40.7278481  45.6683769  21.5360928  40.8369827  44.0867958
  21.8433189  41.8785629  43.9928665  22.0713310  40.3440552  43.2752304
  20.4813099  40.7078438  43.8441772  22.7459354  36.4928703  46.4693260
  23.7956009  35.9914322  45.9515190  21.7246304  35.7407112  46.9456596
  20.9218178  36.2089844  47.3410225  21.6585274  34.2589378  46.9055328
  22.5472164  33.9120445  46.3782768  21.8156624  33.5859222  48.2562675
  21.0462494  34.0257454  48.8908195  21.5259266  32.5474777  48.0956879
  23.1092777  33.8230858  48.9614105  23.9033394  33.7302780  48.2204895
  23.1466465  34.8247337  49.3896675  23.2829762  32.8004227  50.1143417
  24.0965843  33.0995903  50.7751312  22.4230690  32.9480171  50.7677002
  23.2882576  31.3990021  49.6360130  23.8801384  31.1162186  48.8680229
  22.3764133  30.5194550  50.0569229  21.5722084  30.6646194  51.0874519
  21.6475182  31.4894791  51.6654129  20.7576962  30.0897770  51.2494011
  22.3247108  29.3857536  49.4347382  22.8609028  29.3033161  48.5827980
  21.8667831  28.5485840  49.7657166  20.3675060  33.7916794  46.1964874
  19.3760719  34.4882545  46.1438217  20.4073296  32.5770645  45.6941757
  21.2792645  32.1027222  45.5075493  19.1327896  31.9054108  45.2644348
  18.3688316  31.8928680  46.0418091  18.7547455  32.4340096  44.3893509
  19.5413074  30.4178772  44.8969650  20.7324944  30.1366997  44.8259697
  18.6103859  29.5112419  44.6585808  17.6642132  29.8529148  44.5684929
  18.8673363  28.0569324  44.3564301  19.7627220  27.9444294  43.7450943
  19.1655178  27.2813931  45.6340179  18.5580425  27.6238937  46.4717407
  19.0912724  26.2036781  45.4886932  20.2384262  27.3439274  45.8158302
  17.7405968  27.4906120  43.5185890  16.5469475  27.8862171  43.5549431
  18.1344585  26.3653774  42.8442879  19.1064987  26.1224594  42.9716873
  17.2103596  25.5561047  42.0089645  16.2475224  25.5829258  42.5191841
  16.9629021  26.1733685  40.6465302  16.5597134  27.1792793  40.7635002
  18.2427177  26.1485233  39.7498474  18.2776527  25.1572838  39.2978287
  18.1489029  26.9013023  38.9671440  19.1625443  26.1998539  40.3324165
  15.9651661  25.4334106  39.9914818  15.4977236  25.9449310  39.3270683
  17.6072750  24.1295891  42.0119400  18.6869278  23.7365856  42.5230103
  16.7466774  23.2100544  41.5722160  15.8350325  23.4268360  41.1953735
  16.9920750  21.7949162  41.5355682  18.0431271  21.5983238  41.7470970
  16.2306099  20.9303894  42.6169548  16.3581600  19.8832893  42.3423309
  16.6180134  21.0809155  44.0141602  16.2454033  22.0403728  44.3729057
  16.2998486  20.2946396  44.6987343  17.7019978  21.1210232  44.1212807
  14.9265795  21.3465576  42.4313393  14.5895300  20.9750957  41.6127968
  16.6276035  21.2144203  40.1894341  15.8584442  21.8488369  39.3853722
  17.2275829  20.0440731  39.8514938  17.7207527  19.5538330  40.5839882
  16.8586197  19.3216686  38.5922737  16.0167599  19.7126217  38.0208473
  18.0187588  19.2386055  37.5922394  17.6445065  18.6751232  36.7375298
  18.4347210  20.6080284  36.9942055  19.2859821  20.4630260  36.3290482
  17.6813545  21.0692463  36.3555984  18.6708241  21.3225651  37.7827415
  19.2892342  18.7369957  38.2172661  19.7685318  19.4316177  38.9071007
  19.1035957  17.8046627  38.7505531  19.9475384  18.4476395  37.3981171
  16.3735199  17.9147472  38.9685173  16.8312302  17.2279568  39.7949028
  15.3694162  17.3782349  38.2217140  14.9706554  17.8961468  37.4517403
  14.9594669  16.0072689  38.3818932  14.8769312  15.7334929  39.4337196
  13.5783873  15.8103027  37.8642654  13.5086708  16.0350132  36.7999611
  13.2615709  14.7789726  38.0194817  12.5070019  16.6931419  38.5083466
  12.6698828  17.7553234  38.3257446  11.5645990  16.3893871  38.0525932
  12.3746719  16.6792393  39.9695892  12.1586237  15.5924683  40.6303177
  12.6377382  17.7163391  40.6755104  15.9088373  14.9674587  37.8273010
  15.8744392  13.7847462  38.2538872  16.8413792  15.3727322  37.0208931
  16.8279057  16.3590240  36.8037605  18.0673637  14.6602430  36.5437164
  18.3824062  14.1564140  37.4575081  17.6077499  13.5702925  35.5274887
  16.7986298  13.0044355  35.9892578  17.1997948  14.0513344  34.6385155
  18.7111626  12.6334038  35.0322800  19.4185410  13.2119837  34.4381752
  19.3291855  12.2514668  35.8448524  18.0696831  11.4494667  34.3321609
  17.3214607  10.8898811  34.8935242  17.7401524  11.8215799  33.3620872
  19.0803051  10.5256796  33.8342743  19.9766960  10.5207090  34.2996330
  18.9519615   9.7178497  32.7747803  17.7502041   9.5181885  32.2363548
  16.9687576  10.0417833  32.6041756  17.6970501   8.8609781  31.4712734
  19.9556618   9.1658344  32.1378021  20.8726997   9.4155903  32.4795113
  19.9983826   8.5179195  31.3641853  19.2378960  15.4594297  36.0344238
  19.0135422  16.5646076  35.4434547  20.4051991  14.9050760  36.1834412
  20.5299149  14.2577477  36.9486275  21.6659508  15.2780380  35.4003258
  21.9753456  16.2962666  35.6360931  22.7330475  14.2460003  35.8413162
  22.9050388  14.3495398  36.9126701  22.3936462  13.2199993  35.6990967
  24.0014477  14.4808588  35.1467628  24.3573208  15.6474133  34.9830284
  24.7520332  13.5166159  34.7605782  21.5288029  15.1380768  33.8232040
  21.6561966  14.1010857  33.1566010  21.3315125  16.2934742  33.2025757
  20.7851982  17.0085354  33.6611900  21.4911404  16.6107273  31.7687321
  22.3485527  16.0374413  31.4161797  20.3643932  16.1373234  30.8895073
  20.5219555  15.0607843  30.8235893  18.9612656  16.2768116  31.4055157
  18.9651718  15.7547016  32.3623238  18.7321339  17.3289127  31.5748711
  18.1799908  15.8451557  30.7799129  20.5174446  16.7256851  29.6301460
  21.2870312  16.3012810  29.2438564  21.8761787  18.1162987  31.5757828
  21.3382931  18.9953823  32.2202415  22.7163029  18.3757915  30.5856056
  23.2139721  17.5986767  30.1750946  22.8865967  19.7194805  30.0695534
  23.3349953  20.3179989  30.8625317  23.9983158  19.6058502  28.9757595
  24.8880272  19.1716518  29.4318161  23.6087589  18.9514732  28.1959286
  24.3174534  21.0363941  28.3521194  23.4318905  21.4958210  27.9130211
  24.5669670  21.6964302  29.1828995  25.4268780  20.8462334  27.3327579
  25.6782932  19.7112465  26.7590771  26.0722790  21.8746033  27.0169182
  21.6110306  20.3574867  29.5577488  21.5054436  21.5733528  29.4867840
  20.6287136  19.5664501  29.2129326  20.8085365  18.5822563  29.3512306
  19.3774757  20.0118179  28.6313515  19.4567623  20.9037533  28.0098457
  18.8868942  18.8799744  27.7051010  18.5278416  18.1065445  28.3840637
  18.1235676  19.3241463  27.0662403  19.9567108  18.3076782  26.7482185
  20.7598000  17.8926506  27.3572369  19.5614452  17.4456177  26.2108936
  20.6499996  19.2286263  25.7070904  20.2313747  20.4048042  25.5295181
  21.6052971  18.7325630  25.0902615  18.2951012  20.4920063  29.5753269
  17.3159466  21.0103493  29.1193447  18.5476246  20.3446140  30.8400002
  19.3495903  19.7790470  31.0789356  17.8749371  20.8391743  31.9518127
  17.0253925  21.4143066  31.5835781  17.3247452  19.6421299  32.8370857
  17.0860634  18.7778511  32.2172852  18.1924171  19.2919178  33.3961906
  16.1058025  20.0986366  33.6731949  15.9079466  19.4036236  34.4892311
  16.1994171  21.0956783  34.1035957  14.8352671  20.1968765  32.8876419
  13.7712679  20.7352104  33.3576889  14.8153868  19.7586021  31.7453423
  18.6737156  21.8713913  32.8812752  18.1372089  22.9562378  33.2349358
  19.9528542  21.6241035  33.1571465  20.3351097  20.7945461  32.7260818
  20.9226646  22.3146248  34.0443153  20.5798130  22.3203831  35.0789757
  22.3124409  21.5360737  34.0623360  22.5051975  21.1717148  33.0532799
  23.4916992  22.3823109  34.6041374  23.7535744  23.2197227  33.9574089
  23.2069874  22.8385315  35.5522423  24.3656597  21.7318115  34.6379242
  22.0590706  20.3231182  34.9110565  21.8347149  20.6619167  35.9224815
  21.1275177  19.8193035  34.6532097  23.1334648  19.2826385  34.8884468
  24.0523129  19.4251347  35.4572334  22.7578087  18.2766876  35.0756569
  23.4932709  19.2319317  33.8607941  21.1063747  23.7930565  33.5760155
  21.2459030  24.7700348  34.3763885  21.1369476  24.0181999  32.2526131
  21.2526665  23.2751789  31.5783501  21.3853722  25.3842621  31.7890720
  22.0785599  25.9387474  32.4216461  21.9827080  25.1570644  30.4013748
  21.2328262  24.6389580  29.8035927  22.1785316  26.1153202  29.9202271
  23.2343349  24.3507576  30.2411480  23.0372753  23.3591537  30.6485653
  23.6042137  24.3029118  28.7649345  22.8896275  23.6621513  28.2483139
  23.5432148  25.2822628  28.2903290  24.5856285  23.8459702  28.6378937
  24.4259415  25.0542488  31.0397911  24.1150188  24.9467869  32.0789604
  25.3322506  24.4877644  30.8257771  24.4242535  26.1355305  30.9022179
  20.0457001  26.2029133  31.8234406  20.0441799  27.4002666  32.1412506
  18.8976307  25.5387611  31.4858665  19.0605793  24.6235027  31.0910873
  17.5690022  26.0888977  31.4382648  17.5653439  27.0285740  30.8859043
  16.5525303  25.0616875  30.8396225  16.8607254  24.0896454  31.2246571
  15.5290785  25.1678867  31.1993027  16.3683987  24.9374866  29.3238735
  15.7288084  24.0833130  29.1015854  15.8264112  25.8320332  29.0170593
  17.6529446  24.8081245  28.5084801  18.3283901  25.7950706  28.1912231
  18.1690407  23.6619682  28.2405052  17.6197453  22.8451977  28.4669113
  18.8699665  23.7577553  27.5196514  17.1228333  26.5039310  32.8426819
  16.7461338  27.7015972  33.0708923  17.2480183  25.6281052  33.8415565
  17.5545177  24.6900406  33.6266289  16.8340302  25.9502716  35.1961288
  15.7971792  26.2845955  35.2317467  16.9700127  24.8357735  36.2832031
  17.9756393  24.4670544  36.4853477  16.7073898  25.2715511  37.2471657
  16.0061913  23.6406097  36.0487404  16.1511383  23.1177998  35.1033516
  16.0902805  22.8882790  36.8329773  14.5179453  24.0633545  36.1538582
  14.2969255  24.4484844  37.1493111  14.4127932  24.7701893  35.3307991
  13.5536175  22.9355297  35.7698936  13.8544750  22.4453621  34.8439751
  13.6382732  22.1360836  36.5059776  12.1626911  23.3331738  35.5965042
  11.5171089  22.5572109  35.5617943  11.8778124  23.9107418  36.3745537
  11.9475746  23.9594746  34.8338966  17.6440277  27.1190090  35.8017197
  17.1013145  28.1014671  36.3460007  18.9645271  27.1005440  35.4771614
  19.4295998  26.3247776  35.0277252  19.9201565  28.2273388  35.9019318
  19.7649326  28.2929401  36.9788246  21.4389133  27.8348999  35.5476570
  21.5561619  27.7913628  34.4648590  22.3946476  28.7826424  36.1942215
  22.4449635  28.7757416  37.2830353  23.4150810  28.5648823  35.8789520
  22.3605194  29.8320580  35.9015427  21.6277943  26.5711956  36.2507782
  21.6240044  25.8680401  35.5972061  19.7015629  29.5720024  35.2306747
  19.6577415  30.5592976  35.9649200  19.4227676  29.6130562  33.8824921
  19.4210491  28.7327728  33.3873138  18.9346581  30.8627720  33.1853256
  19.5411797  31.7427120  33.3996506  18.9495792  30.6018963  31.6562481
  18.3604259  29.6866474  31.5986519  18.3273907  31.4279327  31.3117962
  20.2381859  30.6430397  30.8165302  20.6224747  31.6610126  30.8809643
  20.9119148  29.9417038  31.3087997  20.1037979  30.2949448  29.3449860
  19.5599518  31.0996666  28.8502598  21.1197834  30.2503853  28.9526958
  19.5634918  28.8478279  29.1720352  20.3924274  28.2828007  29.5983105
  18.7483807  28.6257896  29.8607960  19.3027229  28.4842873  27.7529125
  20.1680660  28.5776749  27.2405052  19.0964622  27.4986343  27.6751022
  18.7072601  29.0895462  27.2059345  17.6190567  31.3102760  33.7254944
  17.4678020  32.4899139  33.9256325  16.6677113  30.4183712  33.9593201
  16.8517685  29.4674816  33.6729050  15.3676519  30.7652664  34.4366493
  14.9981709  31.5893726  33.8263779  14.4198961  29.5338535  34.4219971
  14.9548845  28.6937904  34.8649254  13.5213900  29.8056927  34.9759789
  14.0014868  29.1156693  33.0885811  13.1422863  29.6974277  32.7547684
  14.8469563  29.2818584  32.4210014  13.5877810  27.6719856  32.9397583
  13.0419121  27.0561867  33.8521576  13.7184534  27.2568169  31.7060680
  14.2993259  27.7296715  31.0285015  13.3562346  26.3560925  31.4275131
  15.3930435  31.3438663  35.9019661  14.7038631  32.2723274  36.2595558
  16.2770405  30.7973289  36.8162918  16.6996460  29.8941765  36.6556053
  16.6620636  31.3974590  38.1309776  15.7377996  31.5701599  38.6823540
  17.6214123  30.4178925  38.8389282  17.0490627  29.4972973  38.9530334
  18.3925762  30.2467117  38.0878563  18.2691956  30.8068008  40.2397766
  18.6759205  31.8159199  40.1737976  17.3256969  30.7849655  41.3444023
  17.5545425  31.3542194  42.2453346  16.3470650  31.0653152  40.9548111
  17.2663651  29.7456284  41.6674423  19.3614578  29.7838287  40.5568886
  19.5469627  29.8224468  41.6302910  19.0065536  28.7726860  40.3575592
  20.3050003  29.9658852  40.0424080  17.3404770  32.7519836  37.9115868
  16.9244728  33.6780434  38.5172348  18.3749752  32.9055023  37.0891342
  18.6511974  32.0895844  36.5617981  19.1864338  34.1332054  36.7159004
  19.6395073  34.5507584  37.6150551  20.2761021  33.6562653  35.6999435
  20.8822250  32.9836578  36.3068352  19.7609348  33.0819244  34.9299850
  21.2859097  34.7420883  35.2374191  20.7549438  35.5970421  34.8188095
  22.0826626  35.2333603  36.4577065  21.4651451  35.9069366  37.0518951
  22.3720417  34.3835602  37.0759277  22.9253006  35.8190422  36.0902214
  22.2295151  33.9209824  34.2426338  22.6050014  33.0471802  34.7751541
  21.6236877  33.7046013  33.3627167  23.0470123  34.5589790  33.9068336
  18.2676907  35.2208214  36.1861076  18.4619694  36.3621902  36.5711174
  17.2496338  34.8976517  35.3462524  17.3004818  33.9492149  35.0027695
  16.2663136  35.7980461  34.7603683  16.7437992  36.6991119  34.3754120
  15.5678024  35.1002655  33.5084801  15.1900463  34.0922394  33.6795959
  14.7013655  35.7205620  33.2790871  16.4439964  35.0677757  32.2876358
  17.2806988  35.7369232  32.4883118  16.8996391  34.0876808  32.1465569
  15.7214642  35.5313606  31.1498642  16.2573166  36.3966293  30.4327507
  14.6172876  34.9535599  30.7850513  15.2485037  36.2015533  35.7585182
  14.9195099  37.3809013  35.8203049  14.8011694  35.2842598  36.6649971
  14.9525061  34.3000412  36.4961433  14.0111036  35.7336349  37.8202248
  13.2105932  36.3150482  37.3627892  13.3940201  34.4672890  38.5077896
  12.9181137  33.8130341  37.7773399  14.1995993  33.9018288  38.9761848
  12.4489937  34.6758461  39.7222137  12.0507517  33.7316704  40.0937386
  12.8923960  35.1795731  40.5811386  11.2041445  35.5651054  39.2157440
  11.5822954  36.5858574  39.1594200  10.8548946  35.2973480  38.2185326
  10.1346560  35.6508675  40.2861862   9.6864309  34.6766815  40.4815063
  10.6931019  35.8840790  41.1927490   9.1291246  36.6361961  39.9640617
   9.3166027  37.5213661  40.4128647   8.9169731  36.5974884  38.9773521
   8.3176003  36.2627258  40.4352798  14.7020435  36.6015778  38.8564682
  14.1039867  37.5087013  39.4133453  15.9936857  36.3450546  39.0494881
  16.3201389  35.4573784  38.6951485  16.8738480  37.2155647  39.8952065
  16.4377022  37.4872208  40.8564987  18.2805367  36.7479172  40.1272964
  18.6883049  36.4087944  39.1750259  19.3497772  37.7376518  40.7070198
  19.1967087  37.8966637  41.7744408  20.3124523  37.2266769  40.6907883
  19.3166580  38.6059494  40.0489464  18.1481590  35.5784874  41.0427437
  17.9705658  36.0116653  42.0270767  17.2751732  34.9736481  40.7974396
  19.3358116  34.6942101  41.1069908  19.5825100  34.2570076  40.1394768
  20.1940708  35.2729721  41.4483528  19.1201496  33.8827019  41.8020134
  17.0126057  38.6013794  39.2565804  16.9297256  39.5940056  40.0460052
  16.9897575  38.6693687  37.8929939  17.2123756  37.7782669  37.4728966
  16.9779873  39.9376144  37.2372971  17.5769806  40.5936775  37.8688736
  17.5396385  39.9035149  35.7882538  17.0547371  39.0775948  35.2678413
  17.4285946  41.0917015  34.8345795  17.8623848  40.9915619  33.8396454
  16.3629780  41.2385063  34.6584892  17.9190884  41.9201164  35.3457031
  19.0401974  39.5626755  35.9248619  19.6927052  40.3214684  36.3567963
  19.1603317  38.8495102  36.7403755  19.6856518  39.0341187  34.6574821
  19.8937969  39.7839241  33.8942184  20.6036758  38.5589256  35.0032082
  19.0558338  38.3015251  34.1527634  15.5765886  40.5871277  37.1923256
  15.5447121  41.8128128  37.3066673  14.4655676  39.8827362  37.2418976
  14.5112514  38.8839760  37.0987396  13.1120567  40.4711189  37.5154381
  12.8652859  41.3870583  36.9785423  11.9456062  39.4809418  37.1104355
  11.8411732  39.4038467  36.0281944  12.2017088  38.5084305  37.5308456
  10.5201607  39.7393494  37.6356316   9.9773455  38.8667908  37.2721901
  10.5018034  39.5276527  38.7047195   9.8498669  41.0359306  37.1808701
   8.8720188  41.4602051  37.8926201  10.2080622  41.6201973  36.1326942
  13.0047159  41.0051270  38.9471283  12.4174891  42.0613518  39.1735153
  13.4728584  40.3135033  39.9402771  13.6994390  39.3396721  39.7973938
  13.2951689  40.7098961  41.3146439  12.3385954  41.2098732  41.4665985
  13.3731880  39.4645767  42.2167778  14.3250637  38.9547234  42.0681763
  13.2178602  39.8357697  43.2297859  12.1760416  38.5492134  42.0171814
  12.2763300  38.2041359  40.9881210  12.3692846  37.7363968  42.7172432
  10.8001118  39.1444168  42.2628098   9.8716440  38.7264481  41.5057564
  10.5979185  39.8913727  43.2838860  14.2920628  41.7234726  41.8326797
  13.9350691  42.5717506  42.6383858  15.5491219  41.6528130  41.4502907
  15.8135824  40.9111176  40.8177948  16.6585541  42.5123520  41.9139023
  16.2112923  43.2292557  42.6024551  17.6613731  41.6365013  42.6033363
  18.2447605  41.0593071  41.8859711  18.2879791  42.3025894  43.1964569
  17.2285461  40.6810265  43.7078667  17.0425262  41.0286064  44.8789787
  16.9655952  39.4174385  43.3163757  16.4895706  38.8178482  43.9751587
  17.2323837  39.0694046  42.4065437  17.2825108  43.4318733  40.8603859
  18.1148090  44.2422600  41.1486511  16.7208462  43.4558792  39.6726532
  15.9423304  42.8696709  39.4073753  16.9839287  44.5117226  38.6754646
  16.5066528  44.0854645  37.7930679  16.2245274  45.8739281  38.9595604
  16.5517941  46.1899300  39.9500885  16.4777603  46.4197731  38.0507011
  14.7708540  45.7948952  39.2276955  13.7609673  45.6791344  38.2312393
  13.7947721  45.5114136  37.2358360  12.5890150  45.4885292  38.9041786
  11.5991526  45.3545189  38.4935532  12.8332901  45.6647873  40.2530556
  12.1711702  45.4007759  40.9685936  14.1846247  45.8932495  40.4323425
  14.6801291  45.8678665  41.3916283  18.4543266  44.6986809  38.3436279
  18.8725872  45.8225250  38.0209579  19.2633114  43.6697578  38.4896202
  18.9001808  42.8296547  38.9167862  20.7737827  43.6984177  38.4572601
  21.0986156  44.4568977  39.1695023  21.4141712  42.3199539  38.7308044
  21.0615177  41.5683327  38.0245476  22.9349842  42.3595276  38.8616982
  23.3536720  43.1389618  39.4983215  23.2168922  41.3942299  39.2822075
  23.4838161  42.4513016  37.9244347  20.8992996  41.9655457  39.9903526
  21.1329117  42.6435547  40.6285782  21.2458706  44.1125259  37.0536385
  20.8639183  43.5152702  36.0415115  22.1877365  45.0836563  36.9818802
  22.2733440  45.5729561  37.8612862  22.9804459  45.2610664  35.8142319
  22.4311180  44.7024689  35.0564003  23.0307007  46.7910347  35.3641434
  23.1335793  46.8112564  34.2791977  22.0560970  47.2194443  35.5980759
  24.0085373  47.6070023  36.1894379  23.6117973  47.4058418  37.1845436
  24.9806290  47.1191750  36.1175919  24.0607872  49.0908432  35.7656441
  24.6977253  49.3297768  34.9139900  23.1193085  49.6212540  35.6228523
  24.7379856  49.9204407  36.7954750  25.7490578  49.5453758  36.9540863
  24.9266605  50.8825417  36.3191719  23.9062901  50.0932884  38.0044937
  22.9421043  50.3045540  37.7904510  23.8059216  49.2073822  38.4790382
  24.3203945  50.8103142  38.5828476  24.4240303  44.6458893  35.8837090
  25.0295029  44.6478157  36.9706993  24.9922943  44.0498352  34.8346405
  24.5853710  43.9243774  33.4824104  24.2173920  44.8722572  33.0897026
  23.7783756  43.1988297  33.3802567  25.7971325  43.4177513  32.7312851
  26.5441055  44.1646996  32.4625740  25.6509209  42.8247528  31.8284702
  26.5426464  42.5050545  33.7012596  27.5799522  42.3294792  33.4161835
  26.0029335  41.5583496  33.7249947  26.2804451  43.2678642  34.9936371
  26.1942120  42.4284515  35.6835976  27.4772758  44.1338615  35.4611702
  28.3459454  43.5634689  36.1016655  27.6106415  45.3965416  35.2148438
  26.8417130  45.8001823  34.6991653  28.6937428  46.2614937  35.6314011
  29.6355495  45.9293213  35.1946259  28.3310509  47.6116409  35.0033722
  28.5410194  47.5684853  33.9346581  27.2860699  47.8964920  35.1257515
  29.1003189  48.8637962  35.4216347  28.7381287  49.6854897  34.8037834
  28.8248158  48.9998703  36.4674263  30.5891285  48.7389526  35.2347794
  31.0243130  48.2334671  34.1502838  31.3929329  48.9806404  36.1738815
  28.8935432  46.3335114  37.1327400  30.0304642  46.4907227  37.6111946
  27.8784657  46.0608101  37.8641510  27.0213146  45.8665085  37.3665199
  27.8219299  46.0644951  39.2891846  28.3546543  46.9310532  39.6808281
  26.3281841  46.2084656  39.8013916  25.7068291  45.5657616  39.1777306
  26.3402348  45.8490105  40.8303452  25.8627625  47.7467003  39.8452148
  26.7581158  48.6311340  39.9153137  24.6636181  47.9581528  39.8979721
  28.3960705  44.7154274  39.8479424  28.7550735  44.6776581  41.0724068
  28.4583111  43.6809311  39.1228905  28.5612526  43.8557472  38.1334724
  28.5979919  42.2837868  39.6694183  28.0727558  42.1578064  40.6161766
  27.7069702  41.2601662  38.7806511  27.9081440  41.3079071  37.7104416
  27.8048058  39.8703270  39.4003220  27.1238461  39.1968346  38.8799400
  28.8478699  39.5859756  39.2615204  27.4497490  39.8583870  40.4308014
  26.2058086  41.7411613  38.8993912  25.8008595  41.5848999  39.8992424
  26.0112000  42.6847229  38.3895683  25.5694523  41.0860023  38.3044853
  30.0760918  41.9003067  39.6717873  30.6532955  41.7742119  38.5884056
  30.6571770  41.6994476  40.8148117  30.0965652  41.8244095  41.6455956
  32.1018066  41.4366379  41.0360794  32.6126900  42.2806664  40.5727158
  32.5035439  41.5572662  42.5504608  32.0486488  40.6796074  43.0096817
  34.0051956  41.4876747  42.7111015  34.3095970  41.7267570  43.7300606
  34.3470459  40.5136909  42.3609619  34.3889465  42.2404671  42.0225258
  31.9425774  42.7683067  43.2402382  31.9716759  42.6351204  44.3216782
  32.4645233  43.6788483  42.9459801  30.8751431  42.8701172  43.0444717
  32.4678192  39.9985771  40.5195656  33.4288559  39.9002342  39.7301369
  31.7519684  38.9680138  40.9104080  30.9124737  39.2306213  41.4067764
  31.8851299  37.6355820  40.3897552  32.0267029  37.5772972  39.3105583
  33.1157684  36.9090691  40.9029655  33.1912041  35.9364433  40.4167404
  33.9600487  37.5404739  40.6261559  33.1633186  36.6291580  42.3942566
  32.1303520  36.3908730  42.6478424  33.7420692  35.7117653  42.5016823
  33.7300110  37.7033997  43.2302971  34.8423004  38.0734634  42.9783554
  33.1965446  38.2396927  44.2847366  33.8235970  38.8266411  44.8161507
  32.2355385  37.9687042  44.4368362  30.5560207  36.9020157  40.7827225
  29.8919029  37.3822823  41.7442894  30.1602554  35.7734451  40.1349983
  30.6512623  35.4852409  39.3007622  29.1268272  34.7887917  40.5647469
  28.4902802  35.1954956  41.3505592  28.1815453  34.5157928  39.4018173
  27.7768593  35.4768944  39.0846138  28.7684689  33.9758644  38.6587868
  26.9871597  33.6861877  39.8740654  27.3353062  32.6986885  40.1769485
  26.3645306  34.1418114  40.6440239  25.9608517  33.1420364  38.4225693
  25.3422794  34.7199326  37.8161354  26.1275921  35.4517632  37.6268997
  24.8034668  34.4544868  36.9065628  24.6925259  35.0517044  38.6259804
  29.8554878  33.4846420  41.0718269  30.6903515  32.9519920  40.3862648
  29.6946411  33.0284233  42.3235054  29.1133118  33.5359497  42.9750977
  30.0942707  31.6482735  42.7249870  30.9634686  31.2771568  42.1819687
  30.5385876  31.6773415  44.1939659  29.8139801  32.3428040  44.6632271
  30.3684635  30.6688995  44.5710678  32.0044365  32.0429726  44.4763832
  32.6570473  31.2827473  44.0471344  32.2964478  33.4534721  43.9512062
  32.1458511  33.4977951  42.8725739  31.5953579  34.1200905  44.4533958
  33.3316193  33.6522751  44.2287064  32.1385803  32.0780067  45.9903297
  33.1640053  32.3162193  46.2729492  31.4506035  32.7609253  46.4887428
  31.9712639  31.1062222  46.4548035  28.8124294  30.7885456  42.4742279
  27.6783447  31.1884766  42.6548424  29.0834064  29.5627689  41.9453125
  30.0357552  29.3131905  41.7198296  28.1001740  28.4763508  41.7522392
  27.1345730  28.7234249  42.1934624  27.8613777  28.2427883  40.2701607
  28.7376900  28.6725979  39.7849388  27.8587227  27.1669540  40.0950203
  26.6837025  29.0095196  39.6915283  26.5671043  30.0102215  40.1075821
  26.9032898  29.3375759  38.1642914  27.1429749  30.3633289  37.8841400
  27.6227970  28.6498775  37.7199059  25.9826508  29.1281242  37.6196327
  25.4670773  28.1722984  39.9651833  24.6442814  28.5443554  39.3547058
  25.6135712  27.1206017  39.7190666  25.1538486  28.0691090  41.0040970
  28.5502148  27.2164574  42.4714203  29.7110596  26.8817005  42.4786339
  27.5734787  26.5031166  43.0492592  26.6805077  26.9682846  43.1287537
  27.7536449  25.2008629  43.8444824  28.7322903  24.7537594  43.6699753
  27.8287926  25.3963928  45.3901100  28.2691612  26.3230495  45.7581902
  26.7921848  25.3595181  45.7250633  28.3817806  24.1765938  45.8766441
  28.0070381  24.0672951  46.7536964  26.7286224  24.1641273  43.3635750
  25.6279430  24.5124454  42.9594231  26.9871998  22.9035873  43.3797264
  27.9117832  22.6330509  43.6831360  26.2368755  21.8784637  42.6939240
  25.1742649  22.1198330  42.6674080  26.7204800  21.8055916  41.2993088
  26.1864929  21.1187630  40.6426315  26.6545925  22.7906780  40.8373947
  27.7549343  21.4798908  41.1901054  26.4034386  20.5040207  43.4470558
  27.5383663  20.1718979  43.8229332  25.3445587  19.7327957  43.6637535
  24.4546909  20.1268768  43.3936920  25.3938522  18.4311275  44.3043442
  25.7045975  18.6957092  45.3150558  24.0411205  17.6584034  44.3541145
  24.1384850  16.6208801  44.6737480  23.2983932  18.4607182  45.4568176
  22.3198318  17.9973221  45.5824394  23.7377148  18.3752728  46.4506950
  23.2060127  19.5051365  45.1589050  23.1857758  17.5820961  43.2168121
  23.5202942  16.7796898  42.8095741  26.4568214  17.4456730  43.6845016
  26.6377983  17.4423695  42.4677429  27.0416965  16.5104237  44.4098015
  27.0054207  16.3507710  45.8930206  26.2802696  15.6311064  46.2729378
  26.8906364  17.3347569  46.3476601  28.3705826  15.8803949  46.3051376
  28.2602425  15.1908026  47.1420288  28.9296799  16.8048878  46.4494438
  28.9050808  15.1461287  45.1260910  28.6544914  14.0915604  45.2409592
  29.9771080  15.2382603  44.9518318  28.1457691  15.7689648  43.9219055
  28.8301983  16.4982624  43.4885674  27.8950634  14.7927933  42.7614937
  28.8560066  14.2119856  42.2248039  26.6405144  14.6133642  42.3625641
  25.9196033  15.2663984  42.6344681  26.1494217  13.5831337  41.3814430
  26.9083481  12.8198261  41.2097054  24.9295540  12.9294691  42.1093750
  24.3981228  12.2415257  41.4517899  25.2536087  12.3165731  42.9504738
  23.8397427  13.9523802  42.5940475  23.9642086  15.1557016  42.2881012
  22.8965435  13.4260664  43.1781006  25.7306328  14.1042252  39.9518890
  25.5477333  13.3061447  39.0574570  25.6782036  15.4642572  39.8669891
  26.0388470  15.9567556  40.6716499  25.5721703  16.2983894  38.6337051
  24.7757969  15.9445448  37.9789696  25.0526085  17.6839390  39.0301743
  25.7454109  18.1656742  39.7201424  25.1427574  18.1802673  38.0639229
  23.7146893  17.9518280  39.6272202  23.7035217  17.5815353  40.6523323
  23.4092655  19.4426231  39.6933823  23.8455257  20.0330257  38.8876534
  22.3232632  19.5077496  39.6266136  23.7259750  19.8838921  40.6384125
  22.5845604  17.3007545  38.8733864  22.9000664  16.2780533  38.6668739
  21.7328758  17.2724075  39.5530396  22.1486359  17.8515224  38.0398827
  26.9147205  16.4228020  37.9219475  27.9218121  16.9310246  38.4500771
  26.9423580  16.0900402  36.6058083  26.1153469  15.6673431  36.2089729
  28.1528149  15.8257523  35.7602081  28.8707905  16.5440903  36.1559334
  28.6892776  14.4337015  35.8984146  27.8827534  13.7789726  35.5683403
  29.4748001  14.2658453  35.1616096  29.0241642  14.0460701  37.3073502
  29.8590088  14.7101898  38.1153603  30.2774925  15.6110916  37.9327469
  29.9505081  14.0423002  39.2997627  30.3992367  14.3881521  40.2192345
  29.2657299  12.8885765  39.1889992  29.1598015  12.1610737  39.8815460
  28.7204590  12.8346930  37.9357719  28.0794582  12.0993719  37.4722862
  27.9140129  16.0475407  34.2062035  28.9023819  15.9857912  33.4763832
  26.7613945  16.2073326  33.6567230  25.9412994  16.1460552  34.2430573
  26.6348286  16.7051373  32.3390732  26.9771099  15.9123268  31.6739445
  25.1752720  16.8159733  31.9801865  25.1863194  17.0767899  30.9219055
  24.7214260  15.8274364  32.0503159  24.6678543  17.5427189  32.6145897
  27.4686966  17.9429874  31.9962559  28.1532402  18.0076370  30.9632607
  27.4528255  18.9866581  32.7908249  26.8684635  18.9379463  33.6131668
  27.9106808  20.3946972  32.4766350  28.9174709  20.3431301  32.0621300
  26.8343143  21.0350075  31.4697380  26.3807487  20.2041740  30.9292812
  25.7179470  21.8376961  32.0869942  24.8774719  21.9788074  31.4074402
  25.3089638  21.2394943  32.9012337  26.0543156  22.7668953  32.5469322
  27.6003265  21.9420109  30.4984627  26.9118690  22.4719028  29.8401775
  28.1066647  22.7973328  30.9458427  28.2652416  21.3211441  29.8980350
  28.1509838  21.2536850  33.6294594  27.5475941  21.0168571  34.6345863
  28.9847488  22.2835102  33.4910545  29.4178543  22.4584885  32.5955620
  29.2391243  23.2857208  34.5230675  29.1199303  22.8137913  35.4983482
  30.6249599  23.9761257  34.3491096  30.6788254  24.5068378  33.3985596
  30.7695522  24.6501389  35.1934433  31.6823273  22.8561039  34.4510918
  32.0792999  22.4673805  35.7227859  31.6730614  23.0313492  36.5494118
  33.1204796  21.5683765  35.8880653  33.5306053  21.3957195  36.8721352
  33.7124214  20.8971100  34.7811050  34.4614563  20.1221485  34.8502388
  33.2337303  21.2082405  33.4426956  33.5928650  20.6535110  32.5884705
  32.2046013  22.1584187  33.3346634  31.8231888  22.4391651  32.3640366
  28.1245975  24.3400269  34.5863342  27.8156643  24.9436855  33.5580215
  27.4815807  24.6292706  35.7506447  27.4218140  23.9898567  37.1879539
  28.4482059  23.9520283  37.5529099  26.9689941  22.9984493  37.1751595
  26.6598225  24.9608040  38.0458755  27.3565941  25.7630157  38.2889061
  26.2698784  24.4706039  38.9379234  25.6263065  25.5386600  37.1308441
  25.5553188  26.6033459  37.3533363  24.6500721  25.0541153  37.1140594
  26.1918354  25.4329853  35.7163582  25.5220509  24.8111000  35.1224289
  26.3553658  26.8466263  35.1175995  25.5072861  27.4341125  34.4412651
  27.5531082  27.3672733  35.2149391  28.1884937  26.8773613  35.8284302
  28.0201473  28.5927124  34.5875359  27.2570648  29.2976627  34.9174652
  29.3941250  28.9120731  35.2474403  29.9880009  28.0609131  34.9143753
  29.6750603  29.8674221  34.8041801  29.3185749  28.9515038  36.3341064
  28.1921406  28.6320248  33.0518761  28.4690132  29.6773987  32.4672127
  28.1084003  27.5576725  32.2963295  27.8088570  26.7018757  32.7412834
  28.1946716  27.5734138  30.8485146  29.1716156  27.9417038  30.5353794
  28.1576557  26.1485710  30.2207909  28.9284039  25.4829102  30.6093044
  27.1824627  25.6801548  30.3537731  28.4691181  26.1396084  28.6468315
  27.7824459  26.5778923  27.9226170  29.4656506  26.5578461  28.5050316
  28.5492229  24.6626549  28.2976265  29.0520267  24.1053867  29.0880337
  27.5387230  24.2568798  28.2492638  29.2228050  24.2967491  26.9619293
  28.7707462  23.3907852  26.5582294  29.1786919  25.1153736  26.2435913
  30.6586266  24.0758247  27.2040310  30.8065968  23.1621914  27.6083546
  31.1965885  24.1837349  26.3560562  31.0121784  24.8117561  27.7985954
  27.2018490  28.5514832  30.1262074  27.5850887  29.2389126  29.1869144
  26.0115070  28.7212791  30.7379532  25.8806553  28.3563194  31.6705761
  24.9927845  29.6438046  30.1597958  25.0798111  29.5158138  29.0808372
  23.6433544  29.0686359  30.5927486  22.8377132  29.6415863  30.1336517
  23.5398636  28.0169640  30.3255768  23.4999256  28.9521332  31.6669712
  25.1829262  31.1012001  30.5573959  24.4630089  31.9046612  29.9056091
  26.1497097  31.3643532  31.3895569  26.7027035  30.6207943  31.7913246
  26.5114460  32.7176208  31.8719101  25.6163006  33.3347435  31.7945747
  27.0352745  32.7657738  33.3088417  28.0501118  32.3680801  33.3014030
  27.2032337  34.2578583  33.6982727  27.2203331  34.2413216  34.7880135
  28.0877171  34.6619186  33.2058029  26.3797245  34.9195518  33.4297676
  26.0989590  32.0794296  34.3693123  26.7255173  31.9843750  35.2561569
  25.2482014  32.7138824  34.6178780  25.8720703  31.0585251  34.0621071
  27.4591351  33.3523674  30.8048801  27.3131447  34.4936371  30.4369335
  28.3603649  32.4974899  30.2439919  28.3119411  31.5257244  30.5149574
  29.3401279  32.8895874  29.2087822  29.8987484  33.7911301  29.4603100
  30.3318501  31.7664185  28.9907722  29.7784595  30.8275223  28.9726219
  30.7055416  31.9042892  27.9761524  31.4370956  31.6542950  30.0397911
  31.9185448  32.6319237  30.0633373  31.0465374  31.3802967  31.0198364
  32.4372177  30.5890198  29.5810528  31.7932568  29.7104454  29.5420246
  32.6496162  30.8043747  28.5338612  33.5517082  30.4263515  30.4580154
  33.7088585  31.2055264  31.0811462  34.5059547  29.5668373  30.3207722
  34.4455986  28.5076504  29.6045361  33.5763664  28.2378769  29.1666336
  35.2455788  27.9099407  29.4532738  35.6214333  29.7794476  30.9325428
  36.3102722  29.0604229  30.7634048  35.7816887  30.3360271  31.7599735
  28.5651455  33.3692245  27.8730869  29.0828342  34.1842651  27.0971432
  27.4068451  32.8075485  27.5658779  26.9705849  32.2409706  28.2791576
  26.6073589  33.1582375  26.3370361  27.3570347  33.2136116  25.5477200
  25.9199715  31.8889847  25.8436890  25.2939682  31.6221809  26.6951809
  25.3591118  32.0721588  24.9271812  26.7836742  30.6623230  25.4543800
  27.0272598  30.1519260  26.3861866  26.1549931  29.9900169  24.8705444
  28.0163994  31.0209846  24.6392269  27.8160744  31.5704346  23.5094318
  29.1990356  30.7879734  24.9969444  25.8087292  34.4799805  26.2965794
  25.3027534  34.8654022  25.2422180  25.7838192  35.2996178  27.4060764
  26.2451382  35.0024834  28.2540112  24.9267235  36.5194321  27.5447464
  24.2576847  36.3874931  26.6944065  24.1747227  36.5465431  28.8591537
  24.9427128  36.4527473  29.6269398  23.7570000  37.5388908  29.0290356
  23.2718334  35.3572311  29.0760727  23.8988819  34.4693604  29.1572838
  22.6270905  35.6199303  30.3776455  22.1045055  36.5761604  30.3525524
  21.8591976  34.9220009  30.7113132  23.3735237  35.5211220  31.1657887
  22.1383553  35.2173309  28.0434494  21.4804535  36.0698242  28.2123413
  22.5675068  35.1910172  27.0418320  21.5454311  34.3510704  28.3369350
  25.7546101  37.8514977  27.2691994  26.9223232  38.0836525  27.6410103
  25.1022358  38.7110367  26.5472679  24.2023983  38.3585930  26.2537098
  25.4037857  40.1611443  26.3864460  26.2841759  40.1357307  25.7442875
  24.3012218  40.9232292  25.7288189  23.9760475  40.2660599  24.9222832
  23.5078278  40.9916992  26.4730873  24.6388397  42.2254562  25.2877178
  24.2316875  42.8706322  25.8704529  25.6776505  40.7792397  27.7277393
  24.8725853  40.6877899  28.7122726  26.9151325  41.2987251  27.7418842
  27.4412651  41.2523842  26.8809891  27.5970669  42.0929298  28.7994823
  28.6026516  42.3765831  28.4889297  27.0222702  43.0082893  28.9402866
  27.8474102  41.2982483  30.1272182  28.8709641  41.5614052  30.7413940
  27.0388489  40.2935562  30.4368896  26.2075233  40.2088013  29.8696022
  27.1455021  39.3019638  31.5135937  27.3474140  39.7230148  32.4985046
  25.7478905  38.5711136  31.5755653  25.3515491  38.3506622  30.5843983
  26.0257206  37.6265831  32.0433044  24.7107944  39.3404465  32.3185349
  23.5984917  39.9100609  31.7583008  23.3538265  39.9804306  30.7087364
  22.8068123  40.3882637  32.7447395  21.9318695  40.8144569  32.4746742
  23.2495289  40.0950050  34.0443535  22.8178482  40.4406166  35.3432236
  22.0306988  41.1626129  35.5029907  23.3936329  39.7120171  36.3939781
  23.1002026  39.9280434  37.4106560  24.4536438  38.8179512  36.0986481
  24.8907166  38.2946205  36.9361992  24.9916058  38.6051598  34.8411789
  25.7086296  37.8272057  34.6242294  24.4654579  39.3754234  33.7680397
  28.3403187  38.2779579  31.2476215  28.8274937  37.7675018  32.2650490
  28.7011795  38.1687737  29.9608402  28.1610107  38.5141487  29.1804352
  29.8756275  37.3178177  29.6810322  29.6307087  36.3684845  30.1573505
  30.0369606  37.1296997  28.1635284  30.9341335  36.5258598  28.0272961
  29.2792187  36.5950584  27.5907383  30.1663494  38.4711876  27.3666992
  29.1945667  38.9165878  27.1537361  30.6461735  39.2076302  28.0113125
  30.9199047  38.3759880  26.0607586  31.6104279  37.3942337  25.7737160
  30.8307304  39.3505516  25.2356358  30.2238903  40.1289482  25.4499683
  31.3208141  39.2923698  24.3544216  31.1295452  37.7785797  30.3535366
  31.8509102  36.9640388  30.8973770  31.3004017  39.0829010  30.5793419
  30.7744579  39.7115517  29.9891872  32.3817749  39.6423340  31.3450222
  33.3191071  39.1618958  31.0645008  32.6610451  41.1092911  30.9623566
  31.9742661  41.7631645  31.4998322  33.6683426  41.3929749  31.2672844
  32.5451927  41.4561119  29.4329185  33.4077835  40.8334541  28.5732250
  34.1378784  40.0988274  28.8793335  33.4058418  41.0811729  27.1648464
  34.1373024  40.6747551  26.4820671  32.4896736  42.0862656  26.6563320
  32.5739098  42.4766121  25.3771706  33.3640366  42.0986481  24.9841766
  31.6941624  42.8280334  27.5467510  31.2178974  43.7118530  27.1487179
  31.6931839  42.4635506  28.8914604  31.0736427  43.0606232  29.5442028
  32.3080063  39.3930206  32.8768120  33.3544922  39.4231339  33.5493507
  31.1933708  39.1666374  33.5387993  30.3411331  39.0971336  33.0012512
  30.9985123  38.6525040  34.9319038  31.3953533  39.4595604  35.5477600
  29.5288315  38.4281998  35.3260002  28.9992409  37.6819763  34.7337227
  29.4369965  37.7255669  36.7608452  29.8471432  36.7161446  36.7299919
  30.0798244  38.2699242  37.4526176  28.4153538  37.7511482  37.1399117
  28.7592812  39.6954536  35.2702217  29.1820889  40.3862152  35.9997292
  28.9108124  40.2285156  34.3316116  27.6949120  39.6066284  35.4877777
  31.8728065  37.4270973  35.1494370  31.5904274  36.3826447  34.5821228
  32.8977127  37.3850021  35.9697533  33.4148521  38.5586967  36.5476875
  32.8201866  38.7847519  37.4327698  33.4259300  39.4595070  35.9340744
  34.8443413  38.1825142  36.8995552  35.2269745  38.8414001  37.6790161
  35.4685211  38.1506348  36.0065346  34.7038422  36.7706528  37.4189072
  34.4204979  36.8524475  38.4682541  35.6834564  36.2974892  37.4865570
  33.6908607  36.2349129  36.4515457  34.1736755  35.8448677  35.5555229
  32.7039566  35.1918144  36.9781837  31.9193096  35.4543686  37.8975601
  32.8378220  33.9533691  36.5291672  33.6028633  33.7366982  35.9063759
  32.1490326  32.8167229  37.1580925  31.3913460  33.1842041  37.8501701
  31.4732628  31.9804440  36.0805931  31.2255058  31.0878601  36.6550598
  30.1522655  32.5671082  35.5377121  30.3295498  33.4778862  34.9657288
  29.7411957  31.8867474  34.7919044  29.4603653  32.7885933  36.3503113
  32.3960228  31.6929111  34.8052559  32.6372986  32.6795235  34.4096794
  33.2985687  31.0852642  34.8706474  31.7602825  31.1628857  34.0960197
  33.0985222  31.9064503  37.9632111  34.2909660  31.8579559  37.6430893
  32.5515785  31.1578808  38.9384346  31.6009922  31.2268238  39.2726974
  33.2838249  29.9676304  39.4433784  33.8555984  29.5667076  38.6064568
  34.4256668  30.2187119  40.3843422  35.1223831  30.8307762  39.8115692
  34.0304832  30.9880428  41.6862335  34.8740196  31.1180134  42.3642082
  33.6039734  31.9249287  41.3278542  33.2132111  30.4382057  42.1529808
  35.0907745  28.9764462  40.7521400  34.5171814  28.5990791  41.4230995
  32.3836670  28.9171429  39.9085732  31.5673885  29.1924076  40.7489281
  32.5284119  27.7043343  39.3731270  33.1988945  27.5081387  38.6436996
  31.7006798  26.5362644  39.8359375  30.7874584  26.9259930  40.2856560
  31.3032761  25.7811680  38.5778236  32.0830727  25.2210884  38.0617523
  30.5511341  25.0379906  38.8425331  30.2723827  26.8394222  37.4160652
  31.3810635  27.3357925  36.8598785  32.4849510  25.7413883  40.9206352
  33.7262115  25.7741375  40.9791031  31.7284641  25.0839310  41.7940521
  30.7578373  25.3612118  41.8272209  32.2502480  24.0993633  42.8037453
  33.1083946  23.6180401  42.3346901  32.8037033  24.9163074  43.9067841
  33.4727478  24.3837681  44.5827141  33.3605881  25.7167473  43.4196625
  31.7046642  25.5457306  44.8616791  30.7818146  25.6149521  44.2857780
  31.5898190  24.8288307  45.6746788  32.0720787  27.1795540  45.4986038
  32.2581902  28.1890965  44.1038933  33.1136818  28.8503742  44.2415504
  32.5292282  27.5720196  43.2472382  31.3401470  28.7542343  43.9429092
  31.3294334  22.9605980  43.2646484  30.2570801  22.9135551  42.7344780
  31.7227077  21.9242325  44.0196419  32.7300148  21.9007244  44.0895119
  30.9297867  20.8249187  44.5567017  30.0290947  20.6900597  43.9578094
  31.8202972  19.5567799  44.4776001  32.2216072  19.4442387  43.4704323
  32.6787872  19.7165260  45.1299629  31.0512829  18.3078671  44.9068146
  30.7362499  18.3885670  45.9471741  30.1513481  18.2812157  44.2923965
  31.8356457  17.0055332  44.6640053  31.9230328  16.5823402  43.5073891
  32.5150719  16.4411850  45.6308250  32.9948540  15.5548840  45.5646019
  32.3360558  16.8790989  46.5231705  30.4371319  21.0658398  46.0091820
  31.2031612  21.4723682  46.9491119  29.1747990  20.7313137  46.1926994
  28.6075115  20.4746933  45.3974457  28.4074192  20.8380432  47.4431992
  28.4510841  21.8849335  47.7435608  26.9814644  20.5326042  47.0774155
  26.6247807  21.3444633  46.4435692  27.1068211  19.7235527  46.3578148
  25.9655151  20.1472683  48.1211929  25.3238735  19.3875160  47.6749077
  26.4464378  19.6255989  48.9486427  24.9993572  21.2486458  48.4583206
  23.6809902  21.0344791  48.4886589  25.4285755  22.3416767  48.8796043
  28.9489098  19.8756332  48.5556412  29.2323666  18.6712742  48.3334274
  28.9620838  20.3594284  49.7652817  28.6495895  21.3192062  49.8009605
  29.3422070  19.6490555  50.9685822  30.4024620  19.4382210  50.8289070
  29.1936436  20.6439991  52.1375008  29.7289524  21.5586605  51.8826752
  28.1621609  20.9708328  52.2691078  29.7136555  20.0375023  53.4639816
  29.4440651  18.9813690  53.4661827  30.7919350  20.1954212  53.4860497
  29.1945496  20.9779110  55.0040131  29.4341125  19.7332535  56.2515488
  29.2869682  20.2271461  57.2120247  28.7847919  18.8577862  56.2449875
  30.4302177  19.2914028  56.2262573  28.4926796  18.4615803  51.2118988
  27.3308601  18.5618782  51.1257515  29.1165543  17.3336964  51.6183090
  30.1228580  17.4200191  51.6176720  28.4784641  16.0354977  51.5457649
  27.8507137  16.0299644  50.6546974  29.5338211  14.9636011  51.4453545
  30.2537956  15.2699900  50.6864967  30.0526485  14.9083815  52.4023628
  29.0751858  13.5883484  51.1204262  28.0024242  13.4229527  50.4725456
  29.8704529  12.6222935  51.4226112  27.4755573  15.7133083  52.7051353
  27.5967941  14.6507759  53.3234634  26.5284595  16.5722523  53.0678673
  26.5358582  17.4161949  52.5130653  25.5414486  16.3781967  54.1368523
  26.1177654  15.8848715  54.9195328  25.1093235  17.7084179  54.7856674
  24.8167973  18.3106689  53.9255371  23.8617744  17.6002426  55.6795692
  22.9857540  17.3759613  55.0709763  24.0165405  16.7823124  56.3832321
  23.7613525  18.5852280  56.1354408  26.3074932  18.3862019  55.4492607
  26.7924919  17.9131088  56.3031082  27.0862751  18.7288170  54.7679253
  25.8288860  19.3182278  55.7498703  24.3345451  15.4345379  53.7288475
  23.8052311  15.5704880  52.6298790  24.0232410  14.3818398  54.5976219
  24.4998035  14.0991907  55.4420738  22.9482632  13.4507351  54.2116623
  23.1216049  13.2902489  53.1475639  23.1075001  12.1139164  54.9182587
  22.2459030  11.5386133  54.5794678  24.3289719  11.3138571  54.4830475
  24.0733223  11.2421722  53.4258728  25.2845688  11.8104935  54.6512337
  24.3156395  10.2919903  54.8621368  23.0651550  12.1718674  56.3241692
  22.1320324  12.0355816  56.5039177  21.4852066  14.0586729  54.2888718
  20.6796837  13.8879099  53.4282150  21.1753292  14.8820486  55.2770882
  21.8645153  15.0201397  56.0023842  20.0461273  15.8503971  55.2451859
  19.1593151  15.2887726  54.9515152  19.9388313  16.1282463  56.2937088
  20.1372719  17.0492821  54.3288078  19.3947201  18.0441341  54.5272255
  21.0335255  17.0511703  53.3305473  21.6292419  16.2367573  53.2862625
  21.0675507  18.0117855  52.2464676  20.8466301  18.9796638  52.6964722
  22.0715752  17.9551353  51.8259468  20.0222816  17.6982384  51.0941772
  19.7953053  16.5444851  50.7479286  19.4000568  18.7185001  50.5635185
  19.6202736  19.6638889  50.8425255  18.4747276  18.6072731  49.4474525
  17.7965717  17.8043594  49.7364845  17.7258244  19.9305267  49.2605400
  17.3765411  20.2987537  50.2251701  18.4734917  20.6435432  48.9131165
  16.5524540  20.0846119  48.2094727  16.8879089  19.6374149  47.2737427
  15.3002996  19.3330135  48.6971893  14.9029903  19.9149094  49.5288467
  14.5875244  19.3260040  47.8725662  15.5679150  18.3168068  48.9866829
  16.5910587  21.5365334  47.6612549  15.8957243  21.6178226  46.8257828
  16.3471375  22.2384949  48.4586601  17.5964088  21.7582684  47.3031998
  19.1194115  18.1657867  48.2018089  20.0632343  18.8234901  47.7153549
  18.6301651  17.0412731  47.6045456  17.7783070  16.5793629  47.8892860
  19.3872833  16.3455410  46.5481224  20.4716320  16.3636761  46.6574745
  18.9205570  14.8270092  46.5819817  17.8326683  14.8017673  46.5190239
  19.3913212  14.2427206  45.7913589  19.4227810  14.1615810  47.8917770
  19.0233593  14.7700253  48.7031708  18.8709698  13.2349453  48.0497589
  20.9065075  13.9724569  48.0318336  21.1608963  13.2878170  47.2227287
  21.4570885  14.9114666  47.9750290  21.2567024  13.1612673  49.2997704
  20.6878490  12.2468090  49.4679146  22.2763348  12.7991886  49.1680679
  21.0319004  13.9582205  50.5278168  21.0720596  13.3787937  51.3541069
  21.7300282  14.6873732  50.4952774  20.0683899  14.2520113  50.4540977
  19.2248669  17.0515270  45.2182999  18.2943821  17.8716736  45.0590363
  20.1340179  16.7988071  44.2211075  20.8137207  16.0613480  44.3405228
  19.9997559  17.3977795  42.8426552  20.9088764  17.1574898  42.2914200
  18.9163170  16.6664200  42.0467834  17.9548759  16.9119167  42.4978561
  18.8526192  17.0656757  41.0345421  19.0732422  15.1358900  41.8453445
  18.7388744  14.5852976  42.7246323  18.3342171  14.9150887  41.0751572
  20.4780617  14.7845850  41.4054070  20.8905964  15.4003115  40.6061592
  21.2256279  14.9375839  42.1837654  20.4866676  13.3369656  40.9897461
  19.5509300  13.2414808  40.4389458  21.3959312  13.1738739  40.4111748
  20.4116859  12.3791246  42.1160812  21.1639156  12.6772833  42.7205238
  19.5468159  12.5172672  42.6190872  20.5174484  11.4325714  41.7799950
  19.7676582  18.9077568  42.7680550  18.7804108  19.3107452  42.1683044
  20.7243900  19.7026215  43.1564560  21.6119347  19.2362652  43.2784157
  20.5810566  21.0830421  43.5305290  19.6312313  21.4832859  43.1759377
  20.4835262  21.1609325  45.0583611  19.7370281  20.5083275  45.5110703
  21.4035301  20.9236565  45.5925827  20.0209999  22.8165798  45.5319443
  18.9937401  22.7991409  44.6779366  21.7001648  21.9157562  42.9853592
  22.8418369  21.4391651  42.8263435  21.4448700  23.2187805  42.6780167
  20.5097809  23.5828838  42.7926216  22.3663025  24.1789398  42.0910912
  23.4032192  23.8429260  42.0900803  22.0515041  24.4160938  40.5813370
  20.9679394  24.5005131  40.4985085  22.6791592  25.7366638  40.0215645
  23.7574692  25.7245617  39.8628082  22.2330418  25.8891792  39.0388031
  22.4455204  26.5707264  40.6832733  22.4821320  23.1860905  39.7551994
  23.5522861  23.0223045  39.8818665  21.8057995  22.3911705  40.0694847
  22.1533070  23.3588753  38.3071671  21.1726799  23.8205471  38.1916847
  22.6965237  24.1712036  37.8243256  22.3727512  22.3880463  37.8628311
  22.0980587  25.4350433  43.0305138  20.9405632  25.8716717  43.2425880
  23.1911697  26.0652046  43.5031853  24.1108074  25.7972641  43.1829109
  23.2031822  27.1848392  44.4772415  22.1619797  27.4909477  44.5787125
  23.5672684  26.8350258  45.9567642  24.6536598  26.8734531  46.0366364
  23.0834084  27.5520706  46.6199570  23.1921444  25.4652386  46.3392754
  22.2058525  25.2344532  45.9366989  23.9453888  24.8207340  45.8861351
  23.1333370  25.2325916  47.8965836  24.0595627  25.5375881  48.3836021
  22.3858032  25.9595242  48.2141724  22.7211151  23.9294453  48.3300209
  23.1590347  23.0748386  48.0170097  21.8951836  23.6868210  49.2961578
  21.2440548  24.5587006  49.9914665  20.6683903  24.3165302  50.7852325
  21.6333351  25.4886284  49.9298630  21.7948017  22.4687481  49.7128868
  21.1652050  22.2984962  50.4840698  22.2810860  21.7534237  49.1914062
  24.0206966  28.3870354  44.0462532  25.1675644  28.2241573  43.6036682
  23.5028534  29.6389980  44.1560364  22.5887356  29.7540512  44.5698624
  24.1874828  30.8677578  43.7668686  25.1208115  30.6202259  43.2611732
  23.3618126  31.6001301  42.5906448  22.4451942  31.9454002  43.0688705
  24.1697521  32.7705193  41.9700356  25.2415257  32.5721169  41.9634819
  23.7595654  33.0200920  40.9914856  23.9846745  33.6776886  42.5452728
  22.9951534  30.6747799  41.4197884  22.7757092  29.6788483  41.8045921
  22.1076832  31.0084171  40.8820305  23.7202911  30.4633484  40.6339302
  24.5117931  31.8377037  44.8693542  23.8895130  32.0101013  45.8976479
  25.6055202  32.5733910  44.6183777  26.1938686  32.3080864  43.8414879
  26.1731930  33.5854912  45.5309143  25.3339672  34.0416603  46.0559998
  27.1639500  32.9861183  46.5465279  26.5387878  32.2357407  47.0304718
  27.8451252  32.4662437  45.8728523  27.8263226  34.0298424  47.5379562
  28.5819855  33.5387383  48.1510544  28.2561855  34.8562279  46.9719086
  26.6594429  34.7280769  48.7799873  26.8349762  33.4745636  50.0661392
  26.0586662  32.7401772  49.8513870  27.7645512  32.9398766  49.8709412
  26.8099327  33.9014206  51.0687675  26.8750782  34.6455765  44.6403618
  28.0188007  34.5145264  44.2072105  26.0821877  35.6636696  44.3093948
  25.2336617  35.6982307  44.8561211  26.4739647  36.8008041  43.4989014
  27.3727016  36.5510674  42.9349861  25.4022980  36.9918137  42.4510612
  25.5442734  36.1838150  41.7333641  24.3928661  36.9291267  42.8575325
  25.4860497  38.1588860  41.3475075  25.4457226  39.1328659  41.8351860
  26.4332924  37.9231758  40.8624573  24.3206558  38.1259041  39.9736519
  22.8870697  38.6629753  40.8490753  22.5623341  37.8582497  41.5086708
  23.2381210  39.5564003  41.3654594  22.1488361  38.9888420  40.1163330
  26.8454514  38.0028610  44.3504333  25.9802513  38.7817154  44.8266411
  28.1369991  38.2267303  44.4005814  28.7546101  37.5570717  43.9644432
  28.7480278  39.4360809  44.9854813  28.3321476  39.6845779  45.9619026
  30.2777481  39.0971870  45.0385704  30.7563229  39.0809174  44.0593872
  31.0776062  40.0692596  46.0062790  30.5193768  40.9489822  46.3265457
  31.3150196  39.4666138  46.8829498  31.9917736  40.4404144  45.5429840
  30.4663143  37.7492485  45.4812317  30.1416187  37.7231369  46.3842773
  28.5813198  40.6712570  44.0705414  29.0263329  40.7178802  42.9380150
  27.6708050  41.6241760  44.4364738  27.3218746  41.4547310  45.3690186
  27.1835251  42.7719040  43.6517677  28.0713692  42.8767357  43.0281944
  25.9219208  42.4076462  42.8340263  26.1372795  41.5023308  42.2664642
  24.7136936  42.1209564  43.7658806  24.6810360  42.8540192  44.5718918
  23.8006115  42.2790604  43.1919632  24.8077374  41.1091843  44.1603012
  25.5417690  43.4463196  41.8908577  25.1428070  44.3551064  42.3414497
  26.4527206  43.5198479  41.2968407  24.7321930  43.0750504  41.2624893
  27.0029507  44.0774918  44.3473663  26.4814796  44.0335808  45.4322395
  27.4574509  45.1541862  43.6853333  27.7962189  44.9573669  42.7544212
  27.2845592  46.5398178  44.1090546  27.6267319  46.6562271  45.1373863
  28.3030949  47.2993240  43.2110329  29.2911758  46.8392410  43.2000046
  27.9731388  47.2217102  42.1750755  28.3471985  48.7528191  43.6637344
  27.3174496  49.1094780  43.6863365  28.7696495  48.8695869  44.6617393
  29.2281914  49.5413666  42.6875114  30.1648331  50.1748390  43.1324081
  28.9549389  49.5378342  41.4161949  29.6035576  49.9654427  40.7707863
  28.0903091  49.1317749  41.0881233  25.7972412  46.9626160  44.0870209
  25.2398720  47.0754356  42.9755821  25.1299572  47.2553139  45.1861801
  25.5966187  47.3854141  46.0724106  23.6870022  47.4118156  45.2942924
  23.2622242  47.7115479  44.3362579  22.9775143  46.0836029  45.5734863
  23.2940998  45.3594513  44.8228302  23.1249866  45.4162979  46.9529457
  22.7314148  44.4201965  46.7504883  24.1902962  45.2898102  47.1458778
  22.4995174  46.0102844  47.6193275  21.5448723  46.2432518  45.4454498
  21.1316090  45.3967896  45.2602081  23.3519993  48.4232559  46.2975502
  24.0736103  48.6186523  47.2606392  22.2615623  49.0937729  46.1563263
  21.6986866  49.0069847  45.3222160  21.8857651  50.1384163  47.0986671
  22.6496067  50.4961433  47.7890854  21.3093510  51.3372803  46.3927155
  21.6969395  51.4676056  45.3823204  20.2447491  51.1686897  46.2305336
  21.4517384  52.6895943  47.0938721  22.3062668  52.8873634  48.0700226
  20.8655014  53.6926193  46.5607643  20.7627201  49.6877747  48.0053635
  20.2086830  50.3810883  48.9062080  20.3839207  48.4118958  47.8926964
  20.8982906  47.8781052  47.2066994  19.4956741  47.6862946  48.8024597
  18.6438465  48.3358383  49.0039101  19.0662022  46.3213692  48.1904259
  19.8856277  45.6634521  47.9009666  17.9984035  45.5598106  48.9469261
  17.7346630  44.6881332  48.3479843  18.4382095  45.3385201  49.9193954
  17.0869293  46.1368904  49.1028061  18.3696556  46.6381149  46.8589287
  19.1260147  47.0432434  46.1866951  18.0569801  45.6963348  46.4079437
  17.5302181  47.2962723  47.0831604  20.0848560  47.4682350  50.1860199
  21.2161865  46.9315414  50.2278862  19.4473000  47.7970276  51.3344955
  18.1533527  48.4806290  51.5143509  17.3563251  47.7768784  51.2743759
  18.0211830  49.3384628  50.8549919  18.1153526  48.9664841  52.9567299
  17.0812626  48.9642944  53.3013344  18.5161247  49.9722023  53.0832596
  18.8192883  47.8265228  53.6610985  18.0964146  47.0170212  53.7623901
  19.3891640  48.0742989  54.5566177  19.8562145  47.2798271  52.6781693
  20.7772903  47.8525505  52.7863655  20.0146370  45.7191963  52.7840881
  19.3254089  45.0035896  52.0943527  20.8554115  45.2774010  53.7597198
  21.5161381  45.8153954  54.3020325  21.0952473  43.8251152  53.8982582
  21.6318607  43.5153961  53.0014763  22.0575600  43.5422630  55.0980835
  23.0313568  43.9438095  54.8177605  21.7477055  44.0881691  55.9891968
  22.1947784  42.0042725  55.4171867  21.2097416  41.7944756  55.8340645
  22.4406357  41.5680885  54.4489899  23.3310909  41.6589279  56.3912811
  23.0733337  41.1905670  57.4605026  24.5904922  41.8052216  56.0121040
  25.3222504  41.7281113  56.7039719  24.8580990  42.2996445  55.1730347
  19.8233986  42.9193764  54.0832672  19.7956181  41.9208565  53.3454666
  18.8979549  43.2197533  55.0388985  19.1124401  43.8756981  55.7763519
  17.7245960  42.4557991  55.3007736  17.9089985  41.3815460  55.2918091
  17.1592903  42.8197365  56.7364388  16.3425159  42.1244698  56.9303093
  17.9308167  42.6662369  57.4909515  16.6059456  44.2885551  57.0012627
  15.3569145  44.4717140  57.0087662  17.3678207  45.2419662  57.2261505
  16.6039391  42.5851555  54.2010384  15.4736166  42.0340767  54.3190422
  16.7628136  43.4499207  53.1673546  17.6309948  43.9565048  53.0687027
  15.7292175  43.7109947  52.1162643  14.7716503  43.3507843  52.4923134
  15.5259581  45.2205620  51.8823166  16.5082245  45.6924553  51.8584747
  15.0003738  45.4185982  50.9481621  14.7492914  45.7663498  53.1166267
  13.7679567  45.2961349  53.1797104  15.3332500  45.4836845  53.9925194
  14.4811258  47.2139854  52.9394188  14.5451078  47.7410355  51.8638382
  14.0445766  47.8723030  54.0154877  14.1281528  47.3341827  54.8661041
  13.6882696  48.8110390  53.9063034  15.8804808  42.9151535  50.7966156
  14.9013290  42.8458405  50.0100403  17.0591030  42.2985420  50.5579376
  17.6854153  42.5448761  51.3110313  17.4749832  41.5948830  49.2938652
  17.4830379  42.2704239  48.4384842  18.9550133  41.0581284  49.4403725
  18.8922520  40.4972000  50.3728561  19.1923409  40.0403290  48.2719574
  20.2142811  39.6717834  48.1829681  18.5808125  39.1384926  48.3007240
  19.0457172  40.5268021  47.3076210  19.7878914  42.2661324  49.4395218
  19.8313122  42.6327324  48.4139404  19.2559624  43.0092430  50.0336113
  21.1523151  41.9260025  50.0844040  21.8045521  42.7878342  49.9432068
  21.0504894  41.7164268  51.1492081  21.6477394  41.1487312  49.5025864
  16.4976311  40.4650116  48.9576149  15.9604101  39.8028030  49.8595810
  15.9671450  40.5194092  47.7291183  16.3401356  41.2950745  47.2006111
  14.8472605  39.7022934  47.1932602  14.0720482  39.4150124  47.9036293
  14.0055141  40.4954262  46.1595879  14.6250181  41.1898384  45.5920448
  13.4455910  39.8433075  45.4892693  12.9154034  41.3996048  46.8603783
  13.3483076  42.0151215  47.6489449  12.6012974  42.1575089  46.1427307
  11.5972090  40.8727493  47.3859482  11.8817940  40.0068321  47.9836960
  11.1388388  41.5902252  48.0665550  10.6232004  40.4749184  46.2668343
  10.9882364  40.1859512  45.3705368   9.3318920  40.3348732  46.3324203
   8.6707478  40.5730667  47.4022331   7.6630392  40.6060333  47.3427544
   9.0790586  40.8252182  48.2909393   8.7274332  39.9777641  45.2926025
   7.7479324  39.7473526  45.3797226   9.2564325  39.9937553  44.4323654
  15.5063219  38.3660965  46.7252045  15.4029560  38.1966515  45.4742851
  16.1789703  37.5562668  47.5795250  16.5156574  37.9029655  48.4663963
  16.6433907  36.1581001  47.3688774  17.5323200  36.2557983  46.7456932
  17.1477833  35.5867348  48.6856689  16.3192272  35.4791145  49.3856773
  17.5189877  34.5783615  48.5026703  18.1754704  36.4131775  49.3070183
  19.5584850  36.5195885  48.9738083  20.1916866  37.1535072  49.9874763
  21.2216778  37.4579353  50.1008034  19.1996346  37.5216866  50.8130722
  19.3348503  38.0105057  51.6864967  17.9376698  37.1424255  50.4631538
  16.9981632  37.3400803  50.9577866  15.5728292  35.2242432  46.7371979
  14.3983164  35.2621460  47.0503159  15.9122009  34.3764763  45.7819977
  16.8923187  34.2609329  45.5672455  14.9976416  33.6756248  44.8298149
  13.9523840  33.7204781  45.1356354  15.3324804  34.1902122  43.3931084
  16.3940849  34.2183113  43.1475334  14.5817118  33.4336281  42.3002167
  13.5158176  33.3868561  42.5233459  14.8323202  33.9101562  41.3524742
  15.0036459  32.4287071  42.2859535  14.9368620  35.6854248  43.1986198
  15.6828604  36.3722267  43.5984840  14.9890604  35.9369202  42.1393166
  13.9275322  35.9238091  43.5340691  15.2626209  32.1482468  44.8832321
  16.3668251  31.7198391  44.4909019  14.2928123  31.3131771  45.1387367
  13.4272604  31.7746792  45.3794365  14.4434128  29.8300056  45.2601891
  15.4002514  29.4584446  44.8934326  14.4091825  29.4044495  46.7580299
  13.4944019  29.8451424  47.1543465  14.2562895  28.3262978  46.8061180
  15.6840019  29.8351231  47.5449677  15.8239803  31.1406631  47.9874992
  15.0178614  31.7895107  47.6783524  16.9902134  31.4206295  48.7711143
  17.1219292  32.4314537  49.1278839  17.9220123  30.4525623  49.1426888
  18.7746716  30.6795464  50.1360626  19.0638733  29.8212738  50.4543839
  17.7631130  29.1289539  48.6738930  18.4561329  28.3450146  48.9413986
  16.6471119  28.8155994  47.9404755  16.5714989  27.7628384  47.7116203
  13.3165941  29.1640606  44.3812447  12.0950184  29.4027386  44.5820694
  13.7087498  28.2042160  43.5593109  14.6746540  27.9625092  43.3898811
  12.8512802  27.5207329  42.5235634  11.7925901  27.7658005  42.6085167
  13.3745403  27.9765625  41.1356392  14.4517756  27.8466167  41.0318260
  12.8833361  27.3408623  40.3989563  13.0869236  29.4881592  40.9070244
  13.6575336  30.0246925  41.6650696  13.6936646  29.9485703  39.6078072
  13.0311737  29.5884228  38.8207245  13.6596403  31.0274696  39.4564095
  14.7182837  29.6047897  39.4661369  11.6404915  29.9348698  40.9514923
  11.4776726  30.6968384  40.1892662  10.8416290  29.2444878  40.6807709
  11.4286156  30.4008884  41.9138069  12.8948622  25.9696083  42.6544495
  13.7488155  25.4155235  43.3208771  11.8775959  25.2191353  42.1813393
  11.1639900  25.7115421  41.6632614  11.6655521  23.7611923  42.2453842
  10.6953316  23.6140251  41.7709160  12.7416878  23.0644932  41.3726196
  13.7323112  23.3897343  41.6904030  12.5502939  21.9916515  41.3944511
  12.6697464  23.2754555  39.8411560  13.1497335  24.2462006  39.7172165
  13.3953810  22.6086216  39.3754425  11.2855940  23.1832600  39.1534500
  11.2044792  23.9440708  38.1589699  10.4900599  22.2723713  39.5043182
  11.6003275  23.2403698  43.6752892  11.1140451  23.8874626  44.5881424
  12.3173656  22.1638927  44.0359879  12.8741083  21.6884480  43.3402214
  12.2927179  21.5954971  45.4081917  11.3272457  21.4844036  45.9017715
  12.9305391  20.2451382  45.3949738  13.9831305  20.2921600  45.1157951
  12.8289709  19.9292221  46.4332352  12.2412424  19.1688957  44.4956284
  12.3387928  19.4551468  43.4484215  12.8332663  18.2693806  44.6643791
  10.7901173  18.7350082  44.7341995  10.6728001  18.4941959  45.7907715
  10.1479082  19.6023922  44.5814705  10.5322599  17.5089588  43.8822174
  11.3235540  16.7962475  44.1145935   9.5507832  17.1231556  44.1578217
  10.5160437  17.7927074  42.4407959  10.0315933  17.1049862  41.8818245
  10.1838636  18.7224979  42.2280731  11.4538622  17.8989849  42.0812111
  13.0089970  22.4788551  46.4063454  12.6569214  22.4025974  47.6197205
  13.8659372  23.4006767  45.8883018  13.8476400  23.4335232  44.8790016
  14.5995855  24.3744011  46.7150116  15.1357756  23.7952290  47.4667816
  15.6976824  25.0703850  45.8978271  16.2411270  25.7489185  46.5553627
  16.4268017  24.3681946  45.4935799  15.2541876  25.5600147  45.0308342
  13.8048973  25.4579201  47.4379387  14.3668346  26.1147308  48.3311005
  12.5119963  25.6807423  47.1473351  12.0839176  25.1308632  46.4162521
  11.6110001  26.7472916  47.7205048  12.1040459  27.6987133  47.5209999
  10.2227278  26.7731037  47.0910034  10.4635887  26.6483555  46.0352898
   9.2852430  25.6256714  47.4358253   8.9076910  25.6821728  48.4567909
   8.3982172  25.6758213  46.8043442   9.8359308  24.7163353  47.1950951
   9.6045074  28.1263027  47.2630730   9.1804104  28.2642002  48.2576752
  10.2461271  28.9380989  46.9204216   8.7636309  28.2258186  46.5766907
  11.5017595  26.6135674  49.2343559  11.4040623  27.6260548  49.9291115
  11.7062883  25.3805809  49.7837296  11.7280989  24.5689259  49.1830292
  11.6981726  25.1715088  51.2154274  10.8164892  25.7272358  51.5346527
  11.4796104  23.7228336  51.6593170  11.3352842  23.7233372  52.7397270
  10.1794386  23.1507950  51.0849800   9.3923092  23.6896553  51.6123924
  10.0846453  23.1752377  49.9993858  10.1333895  22.0753498  51.2564316
  12.6400299  22.8894920  51.2223091  12.7203255  23.0240250  50.1436234
  13.4964886  23.3291512  51.7334633  12.4671631  21.8989677  51.6431198
  12.9608908  25.8643875  51.8825684  12.9709005  25.9765034  53.1176186
  14.0428190  26.1582909  51.1137695  13.9641838  26.0446606  50.1132698
  15.2375278  26.7535191  51.6353989  15.4805193  26.3144264  52.6030006
  16.3982449  26.3156681  50.7487564  16.2512836  26.8659286  49.8193932
  17.2487812  26.7943630  51.2340927  16.6819630  24.7879410  50.5855370
  15.7995510  24.2890205  50.1848755  17.8253174  24.5700893  49.6336479
  17.6959209  25.1897583  48.7463112  18.7272701  25.0706348  49.9858322
  17.9762001  23.5253010  49.3620605  17.0346375  24.1059914  51.8839455
  16.2250099  24.0337715  52.6101685  17.1884766  23.0450325  51.6869621
  17.8935547  24.4839134  52.4385033  15.2128983  28.2431622  51.8643074
  16.2182369  28.8294487  52.2625046  14.1311903  28.9293537  51.3483353
  13.4266834  28.3998432  50.8549881  14.1052837  30.3936653  51.1734619
  14.7975321  30.7314243  50.4022255  12.7770243  30.8648796  50.6189232
  12.8179464  31.9541035  50.6150093  12.8352213  30.3942757  49.6374741
  11.4683905  30.4769497  51.3628883  11.3481026  29.4056911  51.5242462
  11.5347147  31.0222206  52.3043671  10.2289162  31.0803852  50.7074928
  10.4312906  32.1513710  50.6958237  10.1465807  30.7536583  49.6708755
   9.0705719  30.7566357  51.4498901   8.5513296  31.5232201  51.8534203
   8.4110641  29.5404472  51.4635811   8.9126787  28.4599380  50.9908295
   9.9055843  28.4523716  50.8059273   8.3420353  27.6322174  51.0874939
   7.2143860  29.5716228  51.9116173   6.7004580  28.7194061  52.0839729
   6.7380133  30.3510551  52.3424911  14.3773108  31.0134354  52.5691566
  13.8826790  30.4116116  53.5215034  15.0735636  32.1507034  52.6939316
  16.1023483  32.5523643  51.7986717  15.7129564  33.0669403  50.9202232
  16.7640553  31.7399235  51.4983711  17.0045853  33.4768562  52.5369301
  17.4155712  34.2818184  51.9276466  17.7512245  32.9024200  53.0852470
  16.1724701  34.0199394  53.7103958  15.6323071  34.8911057  53.3397255
  16.8862267  34.1808434  54.5183334  15.2764063  32.8004951  53.9931946
  15.8730068  32.1679916  54.6505394  14.0336294  33.2002907  54.7983322
  14.2609091  33.2370720  55.9531746  12.8267708  33.4004860  54.2222862
  12.6806612  33.1643448  53.2512093  11.6901588  33.7829857  55.1140289
  12.0487032  34.6546249  55.6615677  10.3493938  34.1324425  54.4031677
   9.8646364  33.1685028  54.2484703   9.6981115  34.7997284  54.9676704
  10.5190248  34.8050270  53.0888634  10.7401714  36.0541077  53.0105324
  10.3181381  34.0834885  52.0744019  11.5076809  32.5955391  56.1446266
  11.2440643  32.8875008  57.2960854  11.6562071  31.2816849  55.7402458
  12.0138922  31.1510525  54.8047791  11.5735703  30.1247826  56.5576286
  10.6931314  30.1385307  57.2000771  11.4251299  28.8914413  55.6668663
  12.1940670  28.9464397  54.8962784  11.6315966  27.9990807  56.2577667
  10.1264496  28.7385273  54.9116783  10.1020565  29.5317879  54.1645203
   9.9535837  27.3571796  54.2680206  10.2854271  26.5730228  54.9485207
   8.9699869  27.1908569  53.8287315  10.6852255  27.3657551  53.4601059
   8.9379177  28.8810253  55.8304024   8.0108662  28.6011162  55.3300705
   8.9839239  28.2989960  56.7508545   8.8773155  29.9192047  56.1569138
  12.7903690  29.9842281  57.5182457  12.7601089  29.5191689  58.6653061
  13.9845037  30.4494877  57.1505585  14.1033792  30.6511364  56.1680565
  15.1760950  30.5776138  58.1072006  15.2588701  29.5848122  58.5494576
  16.4930077  30.9537239  57.3964500  16.7534847  30.1558342  56.7010193
  16.4884777  31.7980442  56.7070999  17.5622444  31.1992950  58.2885170
  18.2434425  30.5702496  58.0397758  14.8992987  31.6115570  59.2474251
  15.1213350  31.3112812  60.4271088  14.5025663  32.7763329  58.8311081
  14.3810568  32.9283829  57.8400383  14.0944672  33.8951378  59.6012497
  14.9130621  34.3506775  60.1584625  13.7060976  35.0373116  58.6932678
  12.9852772  34.6678963  57.9638519  13.2324610  35.8087044  59.3004990
  14.7892981  35.6771202  57.8922348  15.1949234  34.9530525  57.1856308
  14.1518860  36.8486938  57.1170769  13.3822947  36.5823822  56.3925781
  13.7445545  37.5687027  57.8268433  14.8879986  37.3668480  56.5024567
  15.9055367  36.0843277  58.8465919  15.3675175  36.5183792  59.6893501
  16.5869732  35.2670403  59.0827789  16.4903908  36.8548660  58.3442764
  12.9783421  33.4285812  60.5158730  13.1938572  33.5509987  61.6947594
  11.8184319  32.9630241  60.0126457  11.6905003  32.9000702  59.0127602
  10.6954813  32.6394997  60.9049301  10.3292732  33.5813408  61.3134956
   9.5215044  32.1739540  60.0518799   9.8143234  31.3191166  59.4422798
   8.1919756  31.8935394  60.8371773   8.3207541  30.9944305  61.4397774
   7.9707923  32.6763344  61.5627174   7.3698421  31.6965714  60.1491318
   9.2635612  33.1583557  59.1068954   9.9577332  33.2429123  58.4491920
  10.9874334  31.5513592  61.9282761  10.4240398  31.5227299  63.0450211
  11.9853449  30.7179642  61.6719475  12.4568815  30.6954956  60.7790604
  12.4583683  29.8240070  62.6720772  11.6257372  29.2026253  63.0017891
  13.5676136  28.9477310  62.1656837  13.2434368  28.5458889  61.2057190
  14.4316273  29.5873604  61.9855042  14.0070620  27.7576809  63.0421715
  14.7293091  27.1653900  62.4803429  14.4565325  28.1943073  63.9340401
  12.8866396  26.9263535  63.5313339  12.2776937  27.4815750  64.2447739
  12.1747255  26.7954063  62.7163887  13.4007511  25.5673847  64.0726776
  12.6414938  24.7860489  64.0388565  14.2475691  25.3092937  63.4367599
  13.8643236  25.6399975  65.5001678  14.6948919  26.2145576  65.5118027
  13.2371817  26.1311550  66.1211014  14.0717821  24.7303524  65.8869553
  12.9942093  30.5866661  63.8745575  12.6958332  30.2929707  65.0302505
  13.8879118  31.5752239  63.5863266  13.9962187  31.7515831  62.5977592
  14.5091133  32.4039345  64.5939255  14.6483841  31.7454700  65.4513245
  15.8835258  32.7669640  63.9220009  16.2874966  31.9366245  63.3428230
  15.8471680  33.6285286  63.2553024  16.8871536  32.9855881  65.0964813
  17.2645168  32.0555305  65.8127823  17.3883305  34.1197815  65.2665253
  17.4218349  34.7464409  64.4751434  18.1055908  34.2738152  65.9607239
  13.6211510  33.5952988  65.0958939  13.6993484  34.0399399  66.2711716
  12.7314262  34.1371346  64.2805939  12.6351089  33.9495392  63.2928543
  11.8265600  35.3436165  64.6718826  12.4449835  35.9297371  65.3516693
  11.5909262  36.2650795  63.4605598  11.1119652  37.1955223  63.7654686
  12.9941311  36.6945496  62.7745247  12.7027216  37.6066208  62.2536507
  13.7030773  37.0611153  63.5169029  13.4620094  35.9306984  62.1534538
  10.7650642  35.6943817  62.4379005   9.8896084  36.0233727  62.6545601
  10.5534678  34.9241447  65.4796753  10.0260420  35.7179756  66.1979752
  10.0799665  33.6883965  65.3847656  10.4764252  33.0414581  64.7181396
   9.0242300  33.0295410  66.2046356   8.3939915  33.7662926  66.7027283
   8.0576220  32.2477837  65.2720261   8.6708174  31.4065895  64.9487915
   7.3045821  31.8022308  65.9220428   7.5390754  33.1196327  64.1063766
   8.3790941  33.4689140  63.5059891   7.0285473  32.3810883  63.4883003
   6.5495343  34.2459373  64.4568176   6.3663712  35.0987968  63.5381470
   5.8188462  34.1912537  65.4850159   9.5066805  32.0822144  67.3165131
   8.7877827  31.3808517  68.0360031  10.8761721  31.9753075  67.5072556
  11.4253597  32.6153793  66.9515533  11.5150013  31.4198284  68.7170792
  10.9144983  30.5174618  68.8321152  13.0193720  31.1695881  68.3002472
  12.9281988  30.5589046  67.4019928  13.4441633  32.0849113  67.8881378
  14.0384579  30.6923199  69.3196716  14.2541609  31.4851818  70.0358734
  13.4369345  29.4085274  69.9311142  13.3282738  28.6076317  69.1997681
  14.1640491  29.0861664  70.6764221  12.4827595  29.5404663  70.4412537
  15.3310709  30.2515316  68.5938263  15.7852736  31.1070366  68.0939102
  15.8877811  29.8298130  69.4306793  15.0452919  29.5813618  67.7830811
  11.3257780  32.2387047  69.9799347  11.0036612  31.7757530  71.0660095
  11.5805998  33.4325600  69.8072281  36.4160271  27.0808144  32.4221458
  35.8887405  26.5214882  31.6523037  37.2348061  27.7766914  32.2522011
  36.0450897  26.9889202  33.7646370  36.7434120  27.8121338  34.8271217
  36.3059082  27.8747177  35.9403191  37.6532021  28.5356941  34.4871979
  35.1230202  26.0550632  34.2059250  33.7178955  26.2199955  33.7862282
  33.0518379  25.7470264  34.5182533  33.4642563  25.3532791  32.5148125
  34.0392342  24.4298630  32.5300026  32.7079353  25.7200394  31.3887672
  31.9467373  26.9682217  31.6057243  31.1364098  27.1219177  30.8956928
  32.1546211  27.8242741  32.5836372  31.5067749  28.6820145  32.7512627
  33.3011780  27.6961536  33.5727768  34.1434860  28.2862320  33.1913147
  32.8584404  28.3433418  34.7663727  33.2282982  27.8621292  35.5268784
  32.6196518  24.9297485  30.1254673  33.1758308  23.8514538  29.9435635
  32.0162582  25.3239441  29.1309948  45.9861870  26.7039280  56.0455971
  46.8700409  26.0710220  56.0036240  46.1495781  27.7260571  56.3803825
  44.7445984  26.2364674  55.8259773  43.5915909  27.1452255  56.1162148
  43.7059631  28.3628616  56.3914452  42.4677505  26.7022915  56.0211258
  44.5662537  24.9694481  55.2454643  44.4927788  24.8443279  53.7992821
  44.4187775  23.7813625  53.5388412  45.8452225  25.1817360  53.2002983
  46.5859184  24.3910542  53.2988853  46.0824852  26.4137917  52.5893631
  44.9445496  27.2899399  52.5052567  45.0922890  28.3300190  52.2209778
  43.6929703  26.8615894  52.7049942  42.8646469  27.5656548  52.6637726
  43.3142853  25.4923630  53.0766373  42.5117493  25.6408157  53.8095016
  42.9362907  24.7279568  51.8671608  41.9976082  24.8822727  51.6627426
  47.4686012  26.7637005  52.1029663  48.3955498  25.9961262  52.2326698
  47.7462769  27.9098492  51.8397293  19.0269489  26.6816940  53.6903610
  18.3935032  27.5610466  53.7852898  18.8946686  25.9725761  54.5047188
  19.9229870  26.4574547  52.7131157  20.2666473  27.5165119  51.6246223
  19.7434807  28.5580521  51.5398369  21.2253246  27.2780914  50.8580818
  20.7085457  25.3336296  52.7496262  21.3616447  24.8016357  53.9769402
  22.2664032  24.2834911  53.6361656  20.3990345  23.8137207  54.5626030
  19.7161179  23.2937069  53.8942184  20.4360924  23.5087624  55.8772621
  21.2018566  24.2949944  56.7844658  21.1660347  24.0728168  57.8492432
  21.8949242  25.3933582  56.4266853  22.4871502  25.8946953  57.1892204
  21.8468342  25.9371567  55.0124168  21.1292229  26.7667484  55.0155563
  23.1336040  26.4660950  54.6563301  22.9276161  27.3375397  54.2756958
  19.5644264  22.4708138  56.5404129  19.7079391  22.2932243  57.6945610
  18.7769928  21.7326469  55.9433174  74.9863434  69.6194305  11.7951345
  79.9198685  13.0724154  63.8988571  68.7983246  33.7845802  13.6852427
  30.7944660  49.2995186  32.1258316  29.1226635  11.7687330  23.3032589
  75.9919891  30.0162525  65.1158524  73.0254898  48.0142593  43.6233749
  18.8529110  49.7965584  86.6186829  13.6217222  33.9023247  73.9985199
  33.2843132   5.7529659   6.6493902  32.8233871   5.3380890   5.9202418
  33.2826004   6.6856623   6.4342003   4.6005855  15.3118200  13.2799368
   5.1894298  15.2457256  12.5281887   3.7242172  15.2171841  12.9067688
  59.2257614   7.9680791  25.2601357  58.3712006   8.0521965  25.6830769
  59.3722153   8.8180208  24.8449459  19.5985699  35.0423355  66.7731857
  20.1740589  34.5690117  66.1723404  19.5467529  34.4813614  67.5470428
  17.9887333  54.0457458  63.4678841  18.4556160  53.6815414  64.2199478
  18.6773300  54.4117470  62.9128075   2.9261210  48.6419945  14.9783983
   3.0933554  48.1006889  15.7499247   1.9947196  48.5177422  14.7959585
  64.0657883   2.6402264  88.8765411  63.3328743   2.0659828  89.0986023
  63.8480988   3.4765046  89.2882233  60.2531357  23.8444691  64.5598373
  61.0817337  24.1422691  64.9353027  59.6014977  24.0381069  65.2337112
  85.9857941  32.5323944  85.8976288  85.1528168  32.9281731  85.6412354
  86.2509537  32.0174904  85.1355286  22.9408264  66.3660049  42.7016296
  23.8850212  66.3136215  42.5533600  22.8567066  66.7167740  43.5882645
  61.1585274  71.0167770  13.5085192  61.1940689  70.2198563  14.0375643
  60.2275009  71.2350922  13.4665756  54.6935081  32.4699783   5.4941449
  53.8858528  32.5325470   6.0040607  54.4144020  32.1293488   4.6442609
  68.1965561  26.1104412  33.7081413  68.1035843  25.7744503  34.5995979
  68.9027939  25.5881577  33.3277664  85.5369568  28.6745758  75.6488571
  85.1372147  28.6412258  76.5179520  84.7949371  28.6898003  75.0443573
  11.5748768  52.8991241  69.2772369  12.2219620  52.9623260  68.5747299
  10.8139849  52.4892082  68.8658371  61.2128830  28.1797791  41.2484131
  61.8297005  28.8736782  41.0154533  61.4358788  27.4550381  40.6642418
  15.0848217  66.1603165  59.9920654  14.9306536  65.7491760  60.8426132
  14.9685793  67.0965347  60.1540031  48.5684052  59.7429543  41.3789482
  48.2352982  58.9369545  41.7734528  48.5293922  60.3887901  42.0843582
  21.5434628  59.7737160   8.4178839  22.2909946  59.3408737   8.8302851
  20.9358177  59.9404831   9.1384315  57.8455086  56.7515678  46.9838486
  58.2342377  55.8797798  46.9123726  58.5940781  57.3405800  47.0783844
  49.3983002  45.3374176  29.3400345  48.8125954  45.5355034  28.6093197
  49.6727371  44.4329872  29.1886311  80.9081497  28.8931637  28.5312672
  80.4522324  28.8355789  27.6915874  80.4599915  28.2591553  29.0911083
  19.3374939  57.5570717   9.9829178  19.6018448  58.4697037  10.0989056
  19.9927998  57.0545387  10.4669247  41.6940994  14.4583244   7.3231373
  41.4842453  14.2882452   8.2414322  42.1027184  15.3239145   7.3271766
  80.4076309  22.7824993  47.9590836  80.6083298  22.9194717  48.8849297
  80.3970490  21.8310890  47.8545074  27.6967850  69.6656189  35.5313034
  26.8171730  69.5023117  35.8716660  27.6165638  69.5329437  34.5867462
  64.7674255  64.5506516  57.6104012  65.2504501  63.9827232  57.0100899
  64.0797043  63.9899483  57.9694023  33.9669495  30.0613079  21.4415150
  34.7297783  30.6225090  21.3023167  33.8835907  30.0021553  22.3932419
  18.8921413  29.7673283  19.8954487  18.6513500  28.8755798  19.6443748
  19.8378239  29.8090553  19.7534122  67.2340088  17.6899948  24.0813389
  67.6387482  17.7806168  24.9440136  67.4760590  18.4917297  23.6178036
  42.3536415  57.5317650  15.4688072  41.5335312  57.1336861  15.1769485
  42.9214211  56.7885666  15.6725693  65.5646591  47.2165871  39.7915649
  65.3899307  46.8315353  38.9328232  66.2308350  46.6480904  40.1778984
  74.0168762  40.6428413  67.1673965  74.6395111  41.2660179  67.5418396
  74.1374893  39.8450279  67.6823502  25.1945972  55.4318848  82.2152634
  25.5233021  54.8045425  81.5713501  24.2611980  55.5104942  82.0182419
   9.1212330  36.6813583  33.5750809  10.0255766  36.9508591  33.4145699
   8.8216867  37.2556114  34.2798805  14.3215227  60.9626617  38.9588242
  13.8427715  60.1435280  38.8321304  14.8997183  61.0222397  38.1983185
  64.7780991  12.1945162  65.4963684  64.6087799  12.5166349  66.3816986
  64.2518234  11.3980265  65.4265594  62.8212700  36.2542877  65.4044113
  62.1474075  36.2045670  64.7264252  63.6480141  36.2073555  64.9242859
   3.9799941  39.6938171  33.6693993   3.3941901  39.2119942  33.0855217
   4.5270505  40.2157898  33.0824509  19.8283463  47.4434853  71.0428619
  19.8677998  46.8954659  71.8266602  19.9440384  46.8310814  70.3163605
  43.2675056   5.0107956  88.7265625  42.8840523   4.4210258  88.0774307
  42.5144043   5.3979454  89.1728668  85.6097031  66.8172760  70.0716858
  86.0135422  66.7516632  69.2063293  85.6500244  65.9277420  70.4228821
  14.0492678  43.2270012  12.8593254  13.9667425  44.1092949  12.4974174
  13.7818947  43.3173256  13.7739763  86.0651550  36.6562271  22.8304710
  86.5666275  37.3977127  23.1695213  85.4191971  37.0515747  22.2450943
  71.1044083   4.6347346  73.4131775  71.8817825   4.3816476  73.9110260
  70.4083633   4.6905384  74.0678864   1.3956839  44.0986290  79.9415131
   1.4986886  45.0173149  80.1897888   0.8573117  43.7214088  80.6372833
  38.7020111   5.7141409   1.8248347  38.2237358   5.8871121   1.0139310
  38.3429680   6.3408217   2.4529989  72.6211472  67.0954666  62.0086975
  72.0851898  66.6918793  62.6914101  73.2382507  67.6505356  62.4854698
  79.2058945  46.8170776  26.0845757  79.8456039  46.5992584  25.4066696
  78.8039398  47.6313286  25.7818298   5.7710376  30.1012268  29.2630196
   5.2142582  30.8631630  29.1027622   5.4636488  29.4443245  28.6383419
  81.4779739  50.0268250  88.3530426  81.6658859  49.1040154  88.1817474
  80.6968842  50.2129288  87.8319931  14.2678270  61.9490623  72.3485947
  14.5204945  62.0516396  71.4310532  14.7431068  61.1718979  72.6424561
  54.3734055   5.5459986   5.0470195  54.6965065   4.8996105   4.4193106
  54.8434944   6.3500538   4.8262429  17.2795544  32.7905312  60.7057724
  17.7100010  32.7175407  59.8539391  16.6967735  32.0322266  60.7453995
  51.0163803  62.9562759  13.3963747  50.1145439  62.9718552  13.7168093
  50.9658127  63.3379707  12.5200281  69.9656448  65.8248901  54.7410393
  69.0591278  65.6862259  55.0153313  69.9463959  65.7220306  53.7895775
  39.5862045  60.7735023  69.6866226  39.4755630  59.9213638  69.2649002
  38.8519478  61.2968597  69.3653870  22.8772163  23.2616196   9.9941225
  22.6499767  23.3353920  10.9210272  23.5583096  22.5895920   9.9672451
  63.7603073  52.1318321  39.2737770  63.1283836  51.5473862  39.6924973
  64.5944443  51.9237480  39.6946678  85.9979630  71.3330002  35.1729202
  86.2905807  71.6807938  36.0153275  85.0442657  71.4101105  35.2002144
   2.2745256  56.0182419  88.5546188   2.0886862  56.9516640  88.4525604
   2.2967594  55.6792107  87.6597519  30.6906567  58.4542351  65.6482773
  31.3570423  58.1645432  65.0251846  31.0781403  58.2884521  66.5076981
   9.3676414  71.5459442  42.4854240   9.1093464  70.9568939  43.1943245
   9.5764847  70.9640884  41.7546310  43.0887489  19.5333862  12.6438398
  43.9138718  20.0185375  12.6378822  42.6412735  19.8316040  13.4357119
  84.2208557   2.9248166  87.5339203  84.3811569   2.0177679  87.7942963
  85.0168839   3.1852136  87.0704880   1.6334585  27.3011990  28.0402775
   1.1024920  26.5418777  28.2805634   1.3732157  27.9815998  28.6612129
  52.9153061  16.6992149  71.2571793  52.9098587  17.6305885  71.0363922
  52.0369301  16.3940811  71.0300598   6.4983950  66.7925568   7.3783379
   5.8245559  67.1858597   7.9328485   6.5422492  65.8803940   7.6651678
  67.6292267  71.5216141   7.0767460  68.1526413  71.2032318   6.3412824
  66.7372437  71.5697479   6.7328305  45.3521233   5.0236998   7.8645010
  45.1402855   5.8725104   7.4760733  44.7237625   4.4173532   7.4724054
  33.9281311   1.2727025  13.8798809  33.2321930   1.0036378  14.4794693
  33.5239105   1.2382978  13.0129013  47.8927803  25.6807098  75.9644318
  48.1301346  26.0224094  75.1023788  48.1001320  26.3926830  76.5696793
  53.9497490  55.9301605  88.7440491  53.2114182  55.9197769  89.3531342
  53.5860138  55.6033745  87.9211578   8.7697144  22.7943382  19.6585274
   9.5845308  22.6721668  20.1457462   8.0920105  22.8404827  20.3329315
  26.5973549  53.5482941  64.1778259  25.8993740  53.9178200  64.7186584
  27.3860798  54.0161438  64.4521637   9.7514153   5.5796056   1.9898720
   8.8749695   5.2775559   2.2282846   9.7920008   6.4785104   2.3162987
  38.3383522   8.6945171  22.2710686  37.6924324   8.0484419  22.5567303
  37.9238129   9.5399408  22.4432487  52.4646072  52.2649536  10.5311060
  52.7251396  53.1568489  10.3011551  52.6261444  52.2034492  11.4725704
   7.5828328  19.2147236   7.7273555   7.8699851  20.0824013   7.4429059
   6.6842470  19.1423912   7.4055734  81.9031982   4.0120177  36.5208321
  81.1295471   3.5147948  36.7862816  82.2151184   3.5670745  35.7328186
   2.3835254  67.1229630  10.1485081   2.2192605  66.2860336  10.5830145
   1.5372893  67.3690262   9.7749214  28.7033863   7.1873217  14.3600998
  29.5176105   6.8038487  14.6860142  28.9813843   7.7870955  13.6678429
   1.2614975  27.4472294  52.0378456   1.8479989  27.4564743  52.7942581
   0.6874898  26.6962986  52.1890030   9.5060320  50.1230087  73.3075333
  10.1991167  50.7781448  73.2259216   9.6758394  49.6981544  74.1483002
  83.6125946  55.5032196  88.9854660  84.5499344  55.6285629  89.1334839
  83.5049210  55.5970726  88.0389862  66.4860916  67.3517761  82.4861526
  66.0443802  68.2004013  82.4551315  66.9752197  67.3061829  81.6646194
  71.3221054   7.4985461  79.2545013  72.1949005   7.4429083  78.8654404
  71.1669388   6.6276832  79.6202240  85.7651443  71.4144516   3.0207348
  85.4861069  71.5321121   3.9287698  85.1037216  71.8759460   2.5052037
  58.8523445  15.6365776  20.4589729  57.9039001  15.6707907  20.3344231
  59.2041779  16.2098751  19.7779636  22.1391335  52.2948456  41.1371651
  21.2975063  51.8583221  41.2688560  22.7691441  51.5793762  41.0510178
  52.2546730  68.2207260  86.9127197  52.8237877  67.9057465  86.2104797
  51.3789444  67.9275513  86.6609726   0.1827250  10.4126215  39.2390633
  -0.0307232   9.9231739  38.4446373   1.1306551  10.3173151  39.3316765
  -0.2270992  62.3604164  32.8982353   0.7038451  62.5775490  32.9475098
  -0.4448665  62.0396271  33.7733955  21.8873959  51.5905838  79.1343536
  21.6096859  50.7467995  79.4909210  22.6917515  51.7984619  79.6097870
  70.2035446  58.1905479  88.2092133  70.6953735  58.5928802  87.4933472
  70.7688141  58.2921982  88.9749603  65.3182526  28.3926220   5.3243427
  66.1442490  28.2835922   5.7955952  65.5425949  28.9388885   4.5710196
  27.2498760  46.6642265  79.1604919  26.4593163  46.2181664  79.4642563
  27.8478394  45.9558983  78.9218521   8.1613283  12.3516016  77.5433655
   7.2686963  12.0196838  77.6396484   8.5430641  11.8143463  76.8492050
  36.2941017   6.8020725  22.3573990  35.9581146   7.2335448  21.5717926
  35.5941391   6.9007816  23.0027981   5.9826980  45.4946976  87.2142639
   6.3658185  45.0446014  87.9671707   5.8629274  46.3970985  87.5101852
  70.6085052  57.2770424  31.0108871  70.4429932  57.1653709  31.9470310
  69.8690796  56.8446426  30.5836773  26.0828228  16.0592060  24.6391087
  25.3101673  16.6240807  24.6513844  25.7439079  15.1855240  24.8341618
  17.2884007  15.6324749  57.6292839  17.4158211  14.7055054  57.4274826
  18.1645393  15.9538937  57.8421288   1.8182987   4.8343539  75.6001129
   1.1441815   4.1551042  75.6205521   1.4681953   5.5015693  75.0097885
  17.7427521   8.7088909  20.3696308  17.3306389   9.3190355  19.7579803
  18.3811722   8.2323875  19.8389721  66.5709381   0.7634721  67.3769684
  65.6433182   0.9991920  67.3631439  66.5744324  -0.1922061  67.4308090
  27.5780354  33.6866264  70.8753738  26.7927437  33.1650734  71.0412979
  28.2678185  33.2452850  71.3710098  85.3706055  19.2716312  25.9443073
  85.6214523  20.1867027  26.0706024  84.5369873  19.1857738  26.4068356
  38.5008087  64.9083862  76.3521576  39.2255821  64.2838211  76.3814163
  38.9032669  65.7521286  76.5579529  76.3456879  47.5927124  83.5392303
  75.9535904  48.4062767  83.2220459  75.8422928  47.3740578  84.3234634
   3.5941746  45.2126045  61.2520599   4.4541612  44.9856071  60.8983269
   3.6089640  44.8800850  62.1495247  24.1584530  61.9823151  38.3880272
  23.4507084  62.5565071  38.6806564  24.7910099  61.9966736  39.1062889
  27.1027164  31.3382893  75.3671494  27.2676525  32.2174797  75.0264816
  27.9418869  31.0631657  75.7363815  38.5050049  58.6582375  35.7687950
  37.9458542  59.3173256  36.1801186  39.1772194  59.1649971  35.3132133
  79.8843155  47.7038879   6.5320077  80.3974915  48.3631554   6.9991765
  79.4405594  48.1926956   5.8389158  13.0691624   1.6130515  35.8933792
  12.1444263   1.8543882  35.8399925  13.4992418   2.1669066  35.2418365
  85.5097656  69.4769974  22.1396503  84.6238785  69.6496658  21.8208733
  85.3828430  68.9327621  22.9167824  69.7485657  20.7960110  17.7000961
  69.3096619  21.3498554  17.0544586  69.0871964  20.1514835  17.9519005
  70.9714813  17.6931171  52.0214272  70.9125290  16.7378159  52.0339203
  70.0891266  17.9845524  51.7917671  43.3743896  35.5409966  66.2489624
  42.9979172  35.7465706  65.3932495  43.4229927  36.3848190  66.6982193
  60.1120033  13.9075184  76.3770447  60.8136101  13.2629023  76.4689941
  60.5551682  14.7037106  76.0839386  52.2332535  27.8618736  56.9876900
  52.7904930  27.3725414  57.5928879  51.8773155  28.5771217  57.5149117
  18.1331692  49.5964966   2.2564247  17.3184795  50.0309982   2.0039995
  17.8775101  48.9965401   2.9570842  23.8923626   3.6679859  66.5940323
  23.2992249   3.4479201  65.8757095  24.4787674   4.3292093  66.2264175
  64.5497437  33.6696625   1.4983362  63.6581116  33.3482437   1.3644829
  64.5384064  34.0483208   2.3773813  64.1968460   2.9897051  29.7340488
  63.6440201   2.9801853  28.9526901  64.2324524   3.9110723  29.9910450
  59.4691505  53.3334236   6.6539335  60.0257149  53.3175011   7.4325290
  58.5789528  53.4097214   6.9973845  38.8315887  51.1573563   3.0752671
  37.9361267  50.9548111   2.8044298  38.9825821  50.6004601   3.8390069
  78.8017197  29.8446369  13.1925373  79.7033920  29.5687599  13.3572121
  78.6348343  30.5216599  13.8482981  68.5814362  12.8014660  10.9283886
  68.8070450  11.9644938  11.3343525  67.6301422  12.7697773  10.8269987
   3.8065486  41.7182999  30.8410892   3.6355917  42.3596992  31.5307350
   3.2410047  41.9881401  30.1175022  16.4132977   7.5165987  59.7306557
  16.1749115   8.3822384  60.0624275  15.9377365   6.9052353  60.2930679
  30.9932079  22.4699612  29.4787560  31.2771969  21.5558758  29.4842281
  31.7992840  22.9719219  29.5992107  80.9256439  37.3758965   5.2154365
  81.6702042  36.9088173   4.8363566  80.9208298  37.1122589   6.1356010
  39.8932495  54.8676033   0.7208720  40.0998535  53.9562721   0.9282866
  40.4943161  55.0939026   0.0111277  50.2614784  19.7317390  31.0292053
  50.3528900  18.7811699  31.0947227  50.9246368  20.0778561  31.6264095
   0.4665813  68.5648956  18.5254250   0.7635259  67.8443222  19.0811501
  -0.4219752  68.7509308  18.8288898  55.7002831  70.0536041   1.5500174
  55.7877388  69.3592529   2.2030549  56.5969734  70.2275391   1.2637998
  37.6526756  60.0840683  39.3772659  37.2994881  60.4500999  40.1881371
  38.2758942  59.4177208  39.6667786  69.1358185  43.3217239  65.5468674
  69.3580399  42.3979454  65.4307861  68.5614853  43.5245285  64.8084641
  62.5198975  53.2659187  13.9058294  62.7109985  54.1262245  13.5322151
  63.1691780  53.1569595  14.6006613  70.0515823  14.0910015  41.6493988
  70.0059433  13.2356148  42.0765533  69.3548431  14.0686283  40.9934387
  30.8421211  47.4929428  68.3073883  30.4895039  46.6083908  68.2101212
  31.6349239  47.3784637  68.8313980  73.7812805  25.1498299   9.0142546
  73.0871658  24.5181332   8.8261242  73.4781113  25.6133938   9.7949114
  78.6174698   5.0555720  84.2672806  78.6652756   5.6106000  85.0456696
  79.1356659   4.2827706  84.4919662  26.0289650   9.4240427  81.8882294
  26.3018837   8.5151272  82.0132141  25.2344589   9.3647594  81.3576889
  84.4949493  39.0512962  15.9838324  84.8920898  38.3117485  16.4438095
  85.0987854  39.2385445  15.2651196  80.2072067  30.0950356  83.9789047
  81.1421890  30.2409382  83.8348312  79.9023361  29.6804428  83.1718140
  21.4806080  22.8261604  86.3487701  20.9555550  22.1128845  85.9857483
  21.9968624  22.4147701  87.0419312  16.9102669   2.9137244  78.5877838
  15.9992533   3.1546938  78.4198074  17.1424866   2.3343544  77.8620911
  82.3845978  14.4824591  68.1651764  82.3999557  14.8977633  69.0274506
  82.4507675  13.5454884  68.3493958  63.2877769  30.9440708  54.1865082
  62.5508575  30.4936352  54.5991631  64.0434113  30.7109299  54.7258568
  65.7914505  66.0374908   0.5465912  65.9038086  65.2468872   0.0188114
  66.4021530  65.9277115   1.2754409   1.5040488  53.6788292   8.1629467
   1.7108507  54.4192162   8.7332907   2.2411685  53.0782471   8.2733431
  81.7421341  70.7379608  12.0335913  81.1546783  70.3283844  12.6687145
  82.5823822  70.7974854  12.4881945  19.0036621  48.3659210  27.4181919
  19.5097561  47.6791801  27.8523388  18.3315830  47.8937454  26.9266758
  27.3420544  34.0360107   6.5152092  27.8038750  33.2307816   6.2816310
  27.5705643  34.6533585   5.8203030  21.9946899  63.5355911  42.5729904
  21.4373188  63.3153992  43.3193741  22.1965809  64.4638596  42.6904449
  21.1960487  66.6211777  59.5705109  21.2272263  66.2906036  58.6727448
  21.1488667  67.5723267  59.4740105  33.8106575   9.7788725   3.4799221
  34.0581894  10.6254539   3.8517573  33.9516716   9.8802767   2.5386121
  18.7166424  10.8572588  50.5192261  18.0067024  10.3820486  50.9509583
  18.8903503  10.3562212  49.7223434  15.0298710  20.3189964  73.0957260
  15.9730558  20.1747913  73.1721420  14.6392012  19.4764709  73.3275909
  36.9443283  62.4357986  65.9610214  36.6166687  62.4536514  65.0618210
  36.1927032  62.6930695  66.4949722  43.3983994  34.6609116   8.7588329
  43.7513237  35.0553780   7.9612894  42.5007896  34.4198723   8.5298681
  66.7244415  13.5711250  53.6402969  66.4372482  13.5200977  52.7286224
  67.2426529  12.7773428  53.7729530  83.8446198  26.2537498  49.7856140
  83.4450302  25.4992027  49.3529282  84.7101212  26.3295956  49.3838959
  49.1779022  69.5052109  48.7018738  49.7524719  69.9777985  48.0995827
  49.3981361  69.8534317  49.5658569  18.8148956  46.8025284  18.2517948
  18.6136761  47.2868462  19.0525322  18.7964458  47.4643784  17.5605316
  34.1810112  58.4557114  59.4436264  33.3359795  58.2981567  59.0225182
  34.4672165  57.5908089  59.7373199   1.7890204  20.8326626  67.1795273
   1.2330816  21.3393002  67.7715454   2.6812661  21.0962944  67.4045334
  45.6058006  59.6419563  22.4343815  44.7192993  59.2818985  22.4079132
  45.5049095  60.4962387  22.8542080  55.8459511  18.1794529  29.3201790
  55.3386879  18.9869099  29.2369137  55.3035812  17.5115395  28.9007053
   3.7488027  69.3704681  33.3272743   4.0728693  69.4987183  34.2187691
   3.2555184  70.1678543  33.1347122  13.0443277  38.1720963   2.8369913
  12.3199596  37.5896568   2.6083276  13.8174248  37.7523727   2.4596510
  53.2231483  11.4035244  79.1564789  52.5620232  12.0561304  79.3872375
  53.9326248  11.9105377  78.7617493  26.0044556  50.5170822  32.9756355
  26.6590500  51.1484108  33.2742310  25.1869106  50.8118591  33.3768311
  66.6752090  68.4120941  50.8591042  66.0345459  68.6139755  51.5410309
  66.3520508  67.6052170  50.4581680  54.3780022  62.0688858  43.5685310
  54.8075943  62.8794975  43.2954254  53.5316391  62.3513641  43.9151001
   4.7805848  14.0659809  58.6696701   5.4851098  14.2725096  59.2838554
   5.2281170  13.7048588  57.9044647  62.0015945   9.3960638  26.7267361
  61.2158737   8.8528528  26.6651325  61.6711845  10.2943001  26.7419853
  45.8530540  57.0832939   6.1153159  45.5496483  57.4848938   5.3011327
  45.4920387  56.1970329   6.0942807  65.6460419  59.4756088   2.2617080
  66.2149506  59.0318375   1.6327128  65.0429916  58.7951164   2.5608628
  20.1225243  11.0165577  62.8191338  19.7550449  10.4048882  63.4571419
  20.0721874  11.8702116  63.2492218  74.1942368  29.3687840  77.7907791
  73.5085526  29.7708263  77.2574539  73.7326050  29.0269585  78.5564728
   6.8607106  66.9599762  61.0717049   7.5670705  66.4176636  60.7207260
   6.1956043  66.3327942  61.3554420  58.8667564  32.9614716  54.8364334
  58.9650917  32.3061333  54.1457138  58.9785500  33.8000526  54.3886414
  45.3180771  34.6292152  -0.0006949  44.7865906  34.8971825   0.7489364
  45.0670815  35.2325363  -0.7001491   7.2550063  17.5710373  33.0566292
   6.8249049  16.9886665  32.4304619   6.5726323  18.1904144  33.3154144
  24.0871124  32.0818062   5.1548972  24.5699272  32.7173347   4.6264806
  23.8831577  32.5494270   5.9648151   1.1337928  12.1771631   0.7030351
   0.9217547  11.6612062   1.4808912   2.0904779  12.1814766   0.6719478
  36.4920006  56.3970757  32.3257904  36.7733421  56.5729942  31.4279423
  36.7248802  55.4806290  32.4745445  69.2464676  68.8504562  35.6059418
  69.1353302  69.0251770  36.5404778  70.1947556  68.8283386  35.4775352
  45.9683800  64.5606155  68.3446121  46.5782318  64.3214188  67.6466827
  45.4203644  63.7843857  68.4602737  34.7041359  17.4410152  20.3717766
  34.8001823  17.7643375  21.2675838  34.5756073  16.4975967  20.4701385
  78.2358932  49.4064026  20.6084957  77.8627167  48.5520439  20.3916016
  77.8513336  50.0052223  19.9683743  37.5217819  13.6127148  72.6153793
  38.3742447  13.2391529  72.3917923  37.7268944  14.4667330  72.9959183
   5.0447292  34.6380997  46.4379921   5.5048103  34.1792374  45.7351379
   5.6197629  34.5499763  47.1981239  54.4873962   4.7526436  78.8146515
  54.5354729   4.7320905  79.7704163  54.6531410   5.6672645  78.5861130
  81.1782532  57.1347313  22.5436134  81.1267242  56.8919296  23.4680729
  82.0341034  56.8140907  22.2591095  10.6576834  45.1157761  74.9217758
  10.1700277  44.3676567  74.5771866  10.0211592  45.5912437  75.4556274
  56.1695328  24.6376686  65.1968155  55.8940392  24.2010078  64.3908005
  55.5565910  25.3661442  65.2961044  65.8295517  13.1497393   6.6282811
  65.6179428  12.2257671   6.4951267  66.2155457  13.4291010   5.7981029
  73.4612579  56.5219307  87.2360077  72.6815948  56.7869110  86.7480087
  73.1192322  56.1312447  88.0401306  38.8597221  63.4065132  41.2258720
  39.7762184  63.2048492  41.0372047  38.5143356  62.6053200  41.6196098
  35.2324295  10.6032629  10.5808992  35.6910591  10.0740385  11.2334442
  35.6748238  11.4517050  10.6067400   2.9699323   5.0353923  79.6991730
   2.4337070   5.8117752  79.8601837   3.8219728   5.2498040  80.0790253
  79.2336349  44.0279808  30.3788681  80.0948792  43.7574539  30.6971703
  79.4212341  44.6915627  29.7150173  72.1896973  19.7345123  87.9334259
  72.8021469  19.4985275  88.6301651  71.5382080  20.2877121  88.3644257
  40.8253021   6.1645679   6.8967738  40.8353920   5.5181108   7.6026230
  40.9184570   5.6472259   6.0968294  80.3501053  67.8139343  77.9154892
  81.2410736  67.6174393  77.6260147  79.8852615  66.9803696  77.8425827
  74.5684128  63.6077042  46.7716827  73.7570190  64.0243835  46.4814224
  75.2029724  63.8153877  46.0858078  84.7663040   7.6986575  85.4161377
  84.9207230   7.0506244  86.1034775  83.9956436   8.1829863  85.7123566
  21.1624870   3.8870225  50.4425125  21.1628647   4.1473465  49.5213928
  21.4110947   2.9627514  50.4302940  25.4106350  39.0785408  78.3144913
  26.2341347  39.4466896  77.9942627  25.4910698  39.1052017  79.2679291
  71.4785233  42.3838959  53.5360909  71.4304657  41.6909218  52.8775253
  71.3984604  41.9253922  54.3725128  38.1954727  43.2131271  15.3773918
  37.6475105  43.9796219  15.5460768  37.5766640  42.5261726  15.1295986
  81.1625290   2.1422143  82.3436661  81.4472351   2.4631174  81.4879761
  81.3529587   1.2043703  82.3232346  25.5788040  24.2928944  26.2756901
  25.7694721  23.4414463  26.6692810  24.8075352  24.1374321  25.7305222
   2.0623236  46.4651985  39.8083992   2.3420985  45.6476288  40.2201500
   2.6984458  46.6105995  39.1080856  52.1633606  56.9010086  67.5894318
  52.3263817  57.8432770  67.5471039  52.8648109  56.5128479  67.0664291
  69.1747360  16.1304665   5.4982448  69.1381378  15.6719379   6.3376756
  68.2581253  16.2828350   5.2683940  42.0223618  48.8080750   6.5113039
  41.4064369  48.2762337   7.0152988  42.8745995  48.6284370   6.9083595
  16.9383602  61.5625725  48.7803497  16.9147987  62.4591789  49.1146851
  17.6068401  61.1271935  49.3093185  31.8412743  23.2016773  11.3297052
  31.3647346  23.0363274  12.1432161  31.2288513  23.7025948  10.7909565
  59.3671722   7.6607985  46.4291916  59.0702515   8.1829109  47.1744919
  58.8513031   6.8560934  46.4797974  62.6493759  48.4532318  11.7509155
  62.5430679  48.5621147  12.6959419  62.5491600  49.3362579  11.3953066
  39.5774117   1.1558757  40.8404121  38.7165794   1.5488760  40.6963615
  39.7861252   0.7257313  40.0111694   5.1726527  53.9772568  54.0737000
   4.7415276  53.5837631  54.8323326   4.4644876  54.4012680  53.5889816
  16.3699512  22.0640545  79.4635544  16.6558323  22.8210678  78.9522476
  15.7102404  22.4145584  80.0620193   5.9882579  27.8961506  38.9740295
   6.6203356  27.1773357  38.9779587   6.2057900  28.4020939  38.1911278
  79.0149231  14.5050135  29.8364429  78.9190216  13.8617687  30.5387745
  79.5869522  15.1783171  30.2047882  64.8853760   6.5543365  76.2977676
  64.9875259   7.4904127  76.1258469  63.9729500   6.4591765  76.5710068
  48.9901085  42.1790657  72.8779068  49.1612854  41.4938545  72.2318268
  48.6041603  42.8941879  72.3720703  17.3883247  44.8301163  66.4760590
  18.0297527  44.1219063  66.4191589  17.7299957  45.5099525  65.8952713
  29.4361420  56.1614799  62.7615547  29.1851540  55.9050331  61.8741608
  30.2992477  56.5626488  62.6598549  31.7404385  58.9320984  81.4203110
  31.4165878  58.0688171  81.1632156  30.9494553  59.4521942  81.5620117
  22.1065273  65.0277023  48.6319046  22.3327408  65.8350220  49.0937538
  21.6521339  65.3225327  47.8427086  74.2745972  25.0962830  65.2590942
  73.5784378  25.4216385  64.6883621  74.0333786  24.1871738  65.4367676
  73.1518707  64.0098419  62.9433403  72.5734558  63.7479362  62.2270508
  72.6824951  64.7186203  63.3832817  85.0856247  13.3019619   1.4130402
  84.9935303  12.3920898   1.1304052  85.8581696  13.3001842   1.9781985
  17.8754673  17.0341053  87.7551575  18.5322571  17.6972466  87.5427856
  17.0747280  17.5331249  87.9164886  83.8589401  19.8638916  12.5571365
  83.5090256  20.7218113  12.7974682  83.5719376  19.2823715  13.2611904
  49.5950775   3.5827234  26.9801979  48.8109818   3.0871608  26.7438889
  49.4780197   4.4328103  26.5560741  83.4591064  49.3044472  31.0832920
  84.3172684  49.7078705  30.9527473  82.8363419  50.0206223  30.9588108
  32.8395424  19.2190437  72.3845749  32.0289879  19.5579414  72.7645493
  32.5506363  18.5643158  71.7488861   7.2130675  68.1176682  14.0409327
   6.4793515  68.5931396  14.4305735   6.9303946  67.9333344  13.1451941
   0.6986035  53.3150177  28.9458542   1.3251948  54.0383072  28.9242535
   0.9918123  52.7233467  28.2528992   9.6749792  54.3013992  83.6656418
   9.0453901  54.9827080  83.4297028  10.5053988  54.7668648  83.7655182
  55.3729668  22.9480267  67.2608032  54.9689102  23.6832085  67.7217636
  55.6895447  23.3249130  66.4398499  41.9005814  40.8140831  76.1562500
  41.3088646  40.8431625  75.4044189  42.5607338  41.4809990  75.9674225
  85.8641815  25.9813480  37.7742081  86.1797104  26.1811275  38.6555519
  84.9232559  25.8428249  37.8823357  74.4410858  28.2915249  33.8567047
  74.3163376  27.6794147  33.1314545  73.9110260  27.9315434  34.5678177
  60.3561401  48.0411415   4.2392263  60.1526680  48.8342628   4.7350006
  60.9656715  47.5591049   4.7981014  20.3739548  34.2939148  24.8787975
  20.8788910  35.0994072  24.7672100  21.0339851  33.6024780  24.9288502
  16.9797764  12.6090622  84.2273788  17.0192909  13.2374496  84.9483490
  17.3836670  13.0655909  83.4893494  70.8750381   5.9429483  17.4313335
  71.4824829   5.7058263  18.1320610  71.3297653   6.6284795  16.9419460
  33.1693115  70.9289474  42.1319160  33.1688957  71.7306061  41.6088715
  33.5887947  70.2769165  41.5705528  79.6647263  40.7261429  42.9357643
  79.5745316  41.0479584  43.8327217  79.0783997  39.9707947  42.8922157
  16.6437778  24.4828453  78.1758347  17.4813805  24.8058777  78.5079498
  16.3628044  25.1478710  77.5473175  11.6766338   4.4551749  73.2882538
  11.4794693   4.9101300  74.1070175  11.2177763   4.9603243  72.6170578
  30.5945740  51.7752571  13.9400663  29.8650513  51.3068924  14.3458557
  30.3479176  52.6983681  13.9971123  32.0683212  54.6650505  56.3507767
  31.8104610  55.0805130  57.1736603  32.9086914  54.2500076  56.5450592
  76.0542526  41.8048630  22.6029129  77.0059509  41.8386841  22.5061741
  75.8432312  40.8717690  22.5706406  56.9495354   8.1831837  38.9325256
  57.2438965   7.6352487  38.2049599  56.2688713   7.6652746  39.3622894
  67.3332748   2.3063951  53.0571632  68.2823563   2.3019536  53.1815109
  67.1846924   2.9567509  52.3707275  84.6691360  61.7930794  75.0214310
  84.1857224  61.6852455  75.8405304  84.6639099  60.9223785  74.6238327
  86.3386841   7.1130290  52.5608597  86.3026962   7.5083790  51.6898651
  87.2699127   6.9514260  52.7122498  66.0956573  56.6896629  24.2069645
  66.0282211  57.0845566  25.0762997  66.6687241  57.2810745  23.7190533
  73.5756073  17.1387978  25.0666485  72.7127838  16.9301510  25.4247532
  74.1483536  17.1832237  25.8323002  64.3906403  61.4872551   3.6278856
  64.8232880  60.7259369   3.2412992  63.5119781  61.1775284   3.8475392
  27.4987488  41.2290115   5.5169153  27.6064014  40.2784233   5.5488186
  27.9874058  41.5509529   6.2744112  42.3502655  10.1713200  21.3921413
  41.7216835  10.8355951  21.6747303  42.2552795  10.1412983  20.4401398
   9.2839584  28.5838013  37.6838570   9.5907068  28.7980289  36.8028069
   9.3187551  29.4144936  38.1581688  59.3969421  62.7652512  42.4403076
  60.0302887  62.0475655  42.4462585  58.8193436  62.5688553  41.7027168
  49.7883110  67.8038635  37.3029480  50.6062851  67.3075104  37.3310814
  49.2424660  67.4046097  37.9803581  16.8823624   3.1629179   6.9315224
  17.6715050   2.6869383   7.1902261  16.1603928   2.6108923   7.2319555
  49.2625961  51.8328247  79.0606613  50.1501732  52.1750259  79.1671524
  48.7782669  52.5476570  78.6475372  17.6945820  17.7579689  17.0654259
  17.2944183  18.4639378  16.5577755  18.6327915  17.9458027  17.0386887
  52.7817154  47.9846458   6.6763334  52.5001221  47.0700073   6.6956043
  52.5707169  48.3186340   7.5482063  28.3196964  57.1567383  11.1344299
  28.3724613  56.2127876  11.2841101  29.2182217  57.4674530  11.2455168
  32.7596397  14.4958372  79.7903976  32.4225159  14.1868420  80.6312943
  32.2785225  15.3061562  79.6226349  37.3458481  63.7493210   4.0345931
  36.8139153  63.3487206   3.3469901  38.1009140  64.1128922   3.5720737
  10.3139591   6.8869724  23.7471161  10.6517782   7.7234211  23.4270172
   9.3625517   6.9908175  23.7306175  40.4155922  46.2407265  16.4409370
  41.2174072  46.6664162  16.7444420  40.7199135  45.5410385  15.8629608
  16.5571804  52.0519333  17.6312866  16.2288570  51.8067818  18.4963512
  16.5994778  53.0079460  17.6532440   6.3016396  58.5291939  84.5666885
   7.0723701  58.0649185  84.2401047   5.6368470  57.8480263  84.6681442
  82.0694427  46.7982254   8.9060450  81.5842972  47.5739746   9.1872597
  81.3923111  46.1530571   8.7023687  37.6293068  16.3286304  74.1180954
  37.1077347  17.1125927  73.9460526  38.5242424  16.6533833  74.2173615
  67.4747925  11.8408098  50.9867821  66.6330032  12.2135963  50.7247734
  67.2456894  11.0400944  51.4585876  33.7871666  15.8437834   1.8971113
  33.7198906  15.1608381   1.2298093  33.0434074  15.6848593   2.4783118
  66.7471085   1.7350644  49.3850708  66.6791916   2.6258848  49.7286682
  67.1668854   1.8390781  48.5311356  17.3322792  48.4092789  44.2970886
  17.3818150  49.2011719  43.7616577  17.1520557  48.7288208  45.1811943
   6.3733187  55.2143707  59.8568573   6.2956209  54.6318130  59.1013298
   7.1886678  54.9481049  60.2817574  63.9083176  34.1250305  85.7374725
  63.2080269  34.5191345  85.2173691  64.1232147  33.3149376  85.2750854
  56.1513519  43.2867546  16.0229187  56.6914062  44.0760574  16.0626240
  56.6606178  42.6243553  16.4899330  72.5529022  37.5366135  76.5756912
  71.9567261  37.3648720  75.8467789  73.3620758  37.8325195  76.1586761
  38.4782066  71.7852554  27.1687164  39.4198990  71.7498093  27.3366165
  38.1847458  70.8785095  27.2577724   0.5186765  13.0427332   3.6968920
   0.5009567  12.0860443   3.6711133   1.0359094  13.2518339   4.4746957
  58.2649231  60.1579361  74.7708359  58.5136757  59.2425270  74.6428528
  58.7472153  60.6339531  74.0947952  77.7142563  52.0339012  84.3720169
  77.3872986  52.5715675  83.6507339  76.9469986  51.8806725  84.9234467
   5.6770000  28.0951271  41.7930183   5.8412700  27.8705673  40.8771477
   5.0228252  28.7928638  41.7549286  51.8518944   1.0190915  35.1405869
  50.9748459   1.3991928  35.0902138  51.7225761   0.0914049  34.9433403
  49.3516235  56.8575974  14.5078220  49.2494621  57.0546722  13.5767174
  48.4625053  56.8977013  14.8600883  54.8164101  25.1253490  30.1011028
  53.8640213  25.0728893  30.1813240  55.1207085  25.3249416  30.9864273
  63.1475182  54.7660828  45.5612717  63.4741898  53.8666153  45.5829964
  62.7830620  54.9096985  46.4346428  32.9296227  33.2221489   3.6909525
  32.0212135  33.4708328   3.5201209  32.8946838  32.2779579   3.8443048
  30.1458588  59.9138336  50.9871407  30.8172951  59.7810974  51.6563072
  30.4886684  60.6211472  50.4408646  34.7814102   5.5028901  46.4227448
  35.0352936   4.7977881  45.8272552  35.3212547   5.3650761  47.2010803
  21.7790298  69.4029388  62.4778786  22.6959343  69.1307907  62.4397316
  21.4663334  69.3180923  61.5771828  13.5123606  39.8827019  50.9529457
  14.4050369  40.0033913  50.6292229  13.6118870  39.7877960  51.9002151
  21.5619469  63.3537254   6.1019115  20.6892700  63.7440643   6.1499043
  21.6894035  62.9460220   6.9585109  49.6517487   7.1329408  88.8421097
  48.9643707   7.6949301  88.4844589  50.4680710   7.5313249  88.5402145
   6.1301699  47.8355179  57.5975800   5.6784263  47.1255493  57.1413956
   5.5074582  48.1266556  58.2636909  77.3524551  51.1841125  18.6698132
  76.7068481  51.8448524  18.9205132  76.9196930  50.6740799  17.9851131
   6.7405949  65.3944778   2.4216619   6.3741884  65.9706726   3.0924623
   7.6721725  65.6134567   2.4006393   2.6723337  69.1123734  40.1914978
   3.3017054  69.6007538  40.7221642   3.0799549  68.2556686  40.0644722
  37.8714142  56.1118164  78.6099014  37.2536469  55.5459061  79.0728683
  38.0921974  56.7943687  79.2436295  84.4749451   7.7624941  23.3523998
  84.8752823   6.8950119  23.4110584  83.5976105   7.5985107  23.0065441
  13.5311222  49.0280571  38.1206322  13.4232302  49.9785690  38.0871468
  14.4123421  48.8748779  37.7797241  51.7491188  21.6231918  77.2583542
  50.9704742  21.1144524  77.4844666  52.2300720  21.7038040  78.0820160
  15.7243080  46.2829552   4.9690623  15.9294825  45.9103088   5.8265414
  15.1071997  46.9902000   5.1567135  25.8580532  54.2269554  76.2455292
  25.6125774  55.1350021  76.4228134  25.0583954  53.8244438  75.9067612
  10.7550774  34.5886765  19.3886433  10.8521471  34.1591759  20.2385464
  11.3999758  34.1579437  18.8275661  54.4506836  67.2831345  80.3100586
  53.8423882  67.6831665  79.6886215  54.2965202  66.3423309  80.2242661
   6.9435530  52.9089813  83.8889160   7.7027793  53.2343140  83.4052124
   6.3260550  52.6363106  83.2102585   3.9158490  48.7785263   2.3006091
   4.7031889  49.2244568   1.9884032   4.1104813  48.5585976   3.2116427
  73.0960159  48.3915291  60.2556496  72.6051254  47.5851479  60.4137726
  72.4617844  48.9822845  59.8494568  70.3120117  13.8287048  12.9571352
  70.2846603  13.1108541  12.3245420  69.6367493  13.6083603  13.5987797
  14.2579918  42.7163544  59.0196495  14.6322498  41.8375664  59.0820656
  14.5832071  43.0565376  58.1861382  18.5860558  33.2580414  74.7519150
  18.6838570  33.0368843  75.6780624  19.3834591  33.7413406  74.5355759
  70.2893143  28.7661400  80.5908585  69.5447235  28.4449139  80.0823059
  71.0552902  28.5388832  80.0637283  27.2373638  26.4402523  77.7860031
  26.5157547  26.9947395  77.4892654  27.1872616  26.4728432  78.7413406
  12.4825850  42.5102577  67.2335510  13.1020079  41.9550362  66.7599640
  12.8967981  43.3730736  67.2478638  84.2891083  63.9527321  46.3316994
  84.8835678  63.2094460  46.2298203  83.4219131  63.5932465  46.1446953
  11.4881554  57.4413414  56.5798836  10.8043089  57.0367432  56.0461349
  12.2998009  57.2626305  56.1049881  41.7197037  19.5811462  21.3921986
  41.2336578  19.6737366  22.2115993  42.3969650  18.9334793  21.5873260
  55.9113235  40.4253883  21.0328884  56.7712402  40.6619453  21.3804760
  55.5241737  39.8696823  21.7093029  57.5508499  62.5605278   0.9159546
  57.1486092  63.3323555   0.5175670  56.8228340  62.0987854   1.3319108
  71.2574234  24.6585464  67.5618439  71.4191589  23.9164753  66.9792557
  72.1244583  25.0316525  67.7208252   4.4646564  68.0436554  21.2399864
   4.3550243  67.0981522  21.1388168   4.4009190  68.3888016  20.3494568
  55.6081505  19.5687160  12.9823570  56.5461845  19.7194710  12.8657455
  55.5433121  18.6482430  13.2368288  55.0788345  16.1213779  86.6881866
  55.5380020  16.4063034  87.4782562  54.2222633  16.5450630  86.7430344
  75.7354965  20.0808487   8.0416079  75.4376297  19.1712532   8.0537481
  74.9568787  20.5908489   8.2649584  51.9006271  25.5974464  66.9857635
  52.3340569  25.6155186  66.1325073  52.5561256  25.9377861  67.5946350
   3.0554070  45.4859848  48.1128502   2.1047828  45.3750877  48.0971336
   3.2341332  45.9017067  48.9563370   9.9530029  21.1866856  80.6106644
  10.6486578  21.8257732  80.4561844   9.1448698  21.6595383  80.4117661
  17.9335976  10.5859442  47.5793839  18.0670433   9.6850004  47.8738747
  18.4659081  10.6603603  46.7873344  31.4942360  30.7689877  20.9378338
  32.4509621  30.7769337  20.9087715  31.2834644  30.3547134  21.7746029
  81.5222244  19.6992893  10.0316782  82.2574158  20.3078671   9.9584570
  81.9295959  18.8522339  10.2127275   2.6567833  62.8173790  47.5071449
   2.2503753  62.3511734  48.2377014   2.9168611  63.6612663  47.8765335
  53.3395386  44.9895973  54.7832146  53.0108032  45.5780563  55.4628334
  52.5906296  44.8513298  54.2033463  78.4786072   1.9042660  51.3382645
  78.3203659   2.6220801  51.9513969  79.1641312   2.2328422  50.7565994
  50.6019287  25.4653263  76.8037567  49.6675873  25.3764553  76.6157761
  50.9825020  24.6322441  76.5256042  61.7911072  21.8706627  41.1314049
  60.9928322  21.9986382  41.6438599  61.7840805  22.5852852  40.4946175
   2.9184430  30.7957287   2.0461984   2.1317761  31.3087158   1.8611789
   2.6007798  30.0397930   2.5400434  79.3360291  60.5493736  88.8605881
  78.4141388  60.2984619  88.8023300  79.3337860  61.3492508  89.3863525
  83.8483429  11.5178137  62.7448235  83.8546219  12.0111704  61.9245834
  84.5496750  11.9095488  63.2653160  14.4994678  67.4804306  15.9400253
  15.0953999  66.8765030  16.3831596  14.2584410  68.1164246  16.6135616
  81.0854797  22.4195843  56.7950096  80.9728317  22.3699226  55.8457603
  81.5886459  21.6363716  57.0177917  36.3457489  57.6799927  63.7234688
  36.8735428  57.2040749  64.3646927  36.9563026  58.2986145  63.3225212
  47.6575928  34.1130333  69.1846619  47.0200653  34.5486298  68.6189346
  48.3526611  33.8314667  68.5898285  65.0961990  46.3836288  59.8532562
  65.2096863  45.6123085  59.2979012  65.1311722  47.1229897  59.2463379
  76.6105728  67.6420059  29.5608139  77.5405807  67.7608337  29.3679447
  76.4769897  68.1026764  30.3891716  22.2086735   9.7733545  59.4292488
  22.0047741  10.4320240  58.7653160  22.8875847   9.2309122  59.0279198
  16.8646908   9.4927025  40.8746758  16.1988297   9.0098896  40.3850327
  17.6699238   8.9927931  40.7408066   0.7338967   1.7698859  50.9352264
   1.0301071   1.2239517  51.6635437   0.0072532   1.2807184  50.5493011
  73.5953522   1.8241903  41.9736862  73.2452011   1.5653342  41.1212654
  74.3079834   1.2064869  42.1374893  61.3456535  24.5986576  49.0563164
  61.2178497  24.3998966  48.1287422  61.8892021  25.3865509  49.0597572
   1.3261592  29.5493813  42.9785767   1.3831645  30.1671638  43.7074966
   0.6158125  28.9559803  43.2225342  87.1320572  30.6785870  80.0298386
  86.3281174  30.7284641  80.5469666  86.8418655  30.7903976  79.1245651
  49.9594078  55.5730171  49.3849945  50.4209366  55.1116600  48.6847305
  49.9486351  54.9527359  50.1139488  26.9594250   3.3406596   6.3168473
  26.0070801   3.2903388   6.2347589  27.2898750   2.9962652   5.4871316
  51.7339439  68.7524109  61.3200836  51.9590836  67.8225403  61.2903137
  52.5367470  69.1839752  61.6124802   6.9352293  28.6524582  19.1821938
   7.1226516  28.4926872  20.1071682   6.6879978  27.7948647  18.8362999
  60.6353607  59.5446472  19.1100101  61.0273705  59.1110420  19.8679981
  59.6927719  59.5034218  19.2714481  76.4867706  22.4336300  16.5604687
  77.0628204  22.8870258  17.1759605  75.9551849  21.8575821  17.1098461
  79.4304886  41.6972122  53.8827171  79.3026352  42.1406822  54.7212944
  80.3809204  41.6482544  53.7801247  81.8050613   3.1849706  58.5609093
  81.6177292   2.2593241  58.7168465  82.7485580   3.2149863  58.4023361
  79.6640701  51.5441818  21.0587940  80.3798676  51.3532372  20.4526615
  79.1863480  50.7180519  21.1331196  35.0226250  61.6521568  52.4619789
  35.9496574  61.7425613  52.6825867  34.6323128  62.4869614  52.7208099
  75.2766647  47.5849419  55.2668190  74.8578339  47.9902916  56.0261002
  75.8541183  48.2651482  54.9202728   9.6136646  51.2068710  68.5581284
   9.4108086  50.5041122  69.1755524   8.7980270  51.7020988  68.4825058
  45.2126579  12.6754017  59.6939926  44.8380737  11.9884224  59.1426506
  45.7384491  12.2038918  60.3400993  42.2185364  64.4313736  19.5739079
  42.3174362  65.2413101  19.0734539  41.5689011  63.9258156  19.0854282
  85.9082489  15.3565292  31.4475117  86.2792130  14.4741688  31.4401417
  85.2845688  15.3602085  30.7213974  53.8253021  49.9964294  26.5374737
  54.3961792  50.4828033  27.1322632  53.0318756  49.8328400  27.0473213
  62.2300224   7.5110054  46.7835312  61.4650459   8.0729361  46.6599274
  62.8440247   7.7894192  46.1040306  28.0276928  62.5884285  88.6600037
  27.1781063  62.6334534  88.2213593  27.8135777  62.5230217  89.5906525
  64.2513275  65.6448898  54.8121719  63.4733849  65.5328140  54.2658424
  64.0324173  65.2051849  55.6337357  54.4319572  44.1521149   7.3228879
  53.5050697  44.2279778   7.5495100  54.5648232  43.2169685   7.1677146
  77.3135834  20.9445171   5.9914603  76.7977448  20.5914192   6.7163467
  77.2258072  21.8939972   6.0752249  24.6916122  16.5115032  73.7987747
  24.2663536  16.6003075  74.6517105  24.8427563  17.4120083  73.5115814
  43.4289856  25.6706905  69.9444733  44.3231468  25.8346081  70.2442093
  43.5290375  25.3891449  69.0351028  34.5044785   7.0075617  28.9691544
  33.6733742   6.8043704  28.5399590  35.0676880   7.3240733  28.2628613
  78.3307571  12.3808050  53.7896156  78.3967361  12.8698826  54.6097870
  79.1894913  11.9709883  53.6853828  45.4981728  20.0833931  74.2588348
  45.5538330  20.8625355  74.8120728  45.9258690  19.3959885  74.7695084
  13.9970150  38.4045105  84.5224762  14.0174103  38.7162628  83.6176987
  13.7101183  39.1631508  85.0307999  51.5779877  49.6868172  41.8223610
  52.4034271  49.4557266  42.2483635  51.3739929  48.9321098  41.2700615
   7.9632177  51.7102737  81.0663147   7.3347168  50.9914284  80.9993973
   8.7832766  51.2883453  81.3226624  34.5820656  24.0856991  11.3154221
  34.5399551  24.6437588  12.0919695  33.7578850  23.5990200  11.3252430
  36.4850044  67.7539139  19.4162731  35.7873878  67.1199493  19.5825500
  36.0460854  68.4840546  18.9798298  11.0828247   8.0568171  37.1895943
  10.6575451   8.9039211  37.0562401  10.8975344   7.5670195  36.3883438
  44.8030624   7.7482467  31.3954391  44.2799416   7.6166887  30.6047020
  45.0926056   6.8692927  31.6400566  73.3618240  53.5191498  75.8466721
  72.7231140  53.6634483  75.1484833  73.0617065  54.0764008  76.5647507
  47.8002243  53.3883667  36.8660240  47.8275604  52.4565201  37.0831604
  46.8805313  53.5603371  36.6639862  56.0846825  42.0006561  37.8906326
  55.7598839  41.4702644  37.1630173  56.7095909  41.4324150  38.3409882
  77.9217072  31.8683205  68.4932861  78.7759628  32.2664871  68.6604462
  77.3082657  32.3924675  69.0082550  29.2144146   3.1689856  69.9554367
  29.7350903   2.3663907  69.9242859  29.6621208   3.7201669  70.5972977
  76.7909470  62.3945427  56.7706261  75.9981995  62.5657082  56.2622185
  76.4702301  62.1370125  57.6349487  80.0079803  52.7177582  49.0362129
  80.7574387  52.2130775  49.3521881  80.0876160  53.5648499  49.4747620
  37.9335022  41.6286011  85.0728836  38.1684036  40.9282684  85.6816406
  38.6615410  42.2476387  85.1275101  66.0100708  26.2523174  85.4170456
  66.5345612  26.0151215  84.6522751  66.5858078  26.0856628  86.1633606
  47.7231369  47.0355988   0.7072401  47.1407661  46.2772751   0.6622698
  48.2104073  46.9153786   1.5223134  25.0071831  49.7751617  82.6980743
  25.1534557  49.9976540  83.6174927  25.2392654  48.8485985  82.6360168
  59.0835381  34.5672264  86.4986954  59.5443878  33.7282715  86.4980545
  59.5687485  35.1075058  85.8750763  75.2414017  36.4287453  28.1684628
  74.8646469  36.5002365  29.0454903  74.8954849  37.1863861  27.6967010
  79.4351959  39.3119888  11.4000816  78.5337296  39.0686684  11.1894007
  79.9491882  38.9917755  10.6587963  66.2181320   4.3362846  74.8623657
  65.8991394   3.9162402  74.0635910  65.6157913   5.0661898  75.0060959
  70.3344727  15.7373152  31.1639538  70.2964478  14.8936853  30.7133160
  70.1353683  15.5303020  32.0770454  34.5376015  12.8996220   1.6504679
  33.8496933  13.1374407   1.0288132  35.2136726  12.4867334   1.1131779
  32.2754211  61.8841705  30.7204590  33.0794754  62.3626595  30.5185223
  32.1808662  61.9644890  31.6695862  43.6132011  68.3128891  19.8394775
  43.2471008  67.6756134  19.2262211  42.9531174  69.0043182  19.8888664
   1.3842183  40.7108650   1.4791659   0.7486391  40.6912041   2.1946268
   1.2307693  41.5502739   1.0454829  78.5120010  41.4890976  27.3168564
  77.9635239  40.7229576  27.1482468  78.3333206  42.0776634  26.5834427
  28.0561562  50.8505211  81.4323578  27.4300117  50.2094383  81.0959320
  27.7064304  51.1009750  82.2874603  51.3537064   9.1961107  81.0457993
  52.2077713   8.8522835  81.3076935  50.8136787   8.4176388  80.9094772
  73.0129929   7.7710338  23.7201920  72.3239822   7.2516084  23.3058300
  73.6973190   7.1360226  23.9315834  13.3765488  40.9255028  85.2516937
  13.9945393  41.6490021  85.1474457  12.6617594  41.1324234  84.6496201
  78.6146164  65.7080841  11.4782038  77.6725998  65.5776901  11.5869761
  78.7687531  65.5728302  10.5432262  39.6233749  68.0740967   6.0338831
  40.4325180  67.9862061   6.5376625  39.3292770  67.1739807   5.8941283
  28.6262016   6.5267978  80.9730530  27.7689133   6.4319119  81.3881302
  28.7613773   7.4726944  80.9161377  58.1611214  42.5284729  77.8611679
  58.6263542  41.8918114  77.3185349  57.9114304  42.0384064  78.6445694
  68.6570282  34.1183815   1.5010457  68.1114655  34.7904205   1.0924397
  68.3856735  33.3019066   1.0815593  13.4652081  45.4935646   7.6302595
  13.3871574  46.4228935   7.4146581  14.3794508  45.2803040   7.4434104
  26.8869133  15.7926102  11.6816196  27.7585106  15.4646244  11.9029236
  26.9473782  16.0275078  10.7556610  16.5479450  52.4136696  61.5199585
  17.0357704  52.9704552  62.1267929  17.0814877  52.4004822  60.7253571
  67.0743179  59.0661621  14.3831596  66.3207703  59.6515808  14.3077888
  67.7451248  59.5938072  14.8165693  66.4930420  14.5051422  41.8488693
  66.8957977  15.3724403  41.8915024  66.4459076  14.2178688  42.7607269
  34.5081787  26.7786884  22.8324261  34.8936539  25.9071674  22.9223919
  35.2381821  27.3798962  22.9803352  50.7736626  51.2383385  71.4991150
  51.4497795  50.7807922  71.9988632  50.2645264  50.5391579  71.0890427
  16.7112026  26.3592529   9.5412645  16.3011189  27.1674767   9.2333088
  16.6739941  25.7697258   8.7880688  58.1028748  55.8161812  25.6378078
  57.5624313  55.3074760  26.2422676  58.8465576  56.1051521  26.1666431
  86.5922241  70.7868652  26.6896133  86.5192871  69.8468704  26.5243111
  86.0588913  71.1923676  26.0059795  81.2025070  23.6561451   0.8431897
  82.0969925  23.9233818   0.6317592  81.2922821  22.7650776   1.1810802
   0.1901852  23.2281399  79.7095337   0.1242109  24.1795578  79.7912750
   0.3637194  22.9227028  80.5999374   3.4356368  30.5236340  60.5935059
   3.1531186  30.3975830  61.4993324   3.5910654  31.4652596  60.5199203
   9.2693090  38.3792915  21.2927952  10.1595898  38.5933228  21.5717640
   8.8820887  37.9354095  22.0472889  55.6085281  38.5209122   1.4417768
  56.5245819  38.4038620   1.6935278  55.5083427  39.4669037   1.3354920
  55.8742599   9.4900599  79.5626297  56.1881332   9.9453411  78.7813263
  55.2594337  10.1027775  79.9661102  59.3624992  22.5080547  68.8143692
  59.0545120  22.9932442  68.0488892  59.4113235  23.1638660  69.5099030
  25.2595272  18.0515404  18.5425854  24.4858322  17.8458595  18.0178719
  25.3400517  19.0037575  18.4875221   3.3007269  29.9784069  63.2155380
   3.8610740  30.5346088  63.7567215   2.5279443  29.8178444  63.7570686
   1.4671037  23.5814686  64.0801926   0.7292925  23.8239613  64.6397095
   1.0849816  23.0097561  63.4143372  28.6002712  41.1494713  66.0286484
  29.2166786  41.6012764  65.4523315  28.3626652  41.8039970  66.6854401
  72.4603043  34.1074791  74.4343567  73.3948288  34.3135757  74.4136353
  72.0282135  34.9598618  74.4889145  36.4180565  58.0561371  74.6928864
  35.8169518  58.2343636  75.4161682  36.0718651  58.5682106  73.9620209
  49.3252220  28.6014595   7.4727006  50.1723404  28.2028103   7.2734561
  48.9245796  28.7530308   6.6166959  28.2691994  48.9559059  69.0491714
  28.5540276  49.6186409  69.6783676  29.0746689  48.6776772  68.6132431
  62.5781631   4.2368736  26.9342117  61.6346283   4.2472267  26.7733784
  62.8195229   5.1605730  27.0031796  62.8568115  15.0614786   1.5745429
  63.0606575  15.9772577   1.3847398  63.4773102  14.5628405   1.0429668
  55.6139336  28.8040485  52.5765877  55.8236351  27.9293098  52.9038277
  55.3320847  28.6605930  51.6731415  65.0021286   7.9933991  42.6269188
  65.7396851   8.2099094  43.1973190  64.7778625   7.0917878  42.8572083
  76.9016342  27.1344433  84.1282959  76.9331665  27.9243736  84.6679688
  76.1140289  27.2402020  83.5947037  78.4967422  37.3865967  78.8812866
  79.0320587  38.1792107  78.9190674  77.9304504  37.4431267  79.6509247
  57.9693756  56.4177208  56.2125397  57.7458916  55.5929565  55.7812042
  57.1695518  56.6715775  56.6730537  75.5884705  64.8254623  83.8159943
  76.4951553  64.5457611  83.6898117  75.0649490  64.1171570  83.4412079
  69.1608047  23.7684021  74.9696350  69.5906906  23.1011772  75.5046539
  69.5669250  23.6820908  74.1071701  85.7921143  29.3173141  54.4240532
  86.6031265  29.5170765  53.9565125  85.6928024  28.3692627  54.3370667
  26.9102440  26.3935165  80.5909576  27.0492573  25.4683418  80.7933350
  26.9433556  26.8322506  81.4410400  85.2741547   4.6251187  76.9967422
  86.0034027   4.7213435  77.6092529  85.4503021   3.8013885  76.5421371
  80.6215363  33.8267403  23.8403587  81.3648453  33.4013443  23.4128590
  80.0596619  34.1091118  23.1186981  71.0426331  24.7679253   8.8058882
  70.9748459  25.0117435   7.8827472  70.1356583  24.6610928   9.0926208
  71.3068695  23.2356071  76.3282166  70.7146835  23.9871445  76.3011398
  71.5788574  23.1778679  77.2441483  24.5230980   0.8224311   8.0965347
  24.4785957   1.7782854   8.1209068  24.3476219   0.5977114   7.1827831
  29.4055996  61.0505943  48.5613213  29.3162804  60.6667252  47.6890259
  28.7960205  61.7885933  48.5617905  78.9026871  12.0376682  37.3035431
  79.5125961  11.4455900  36.8634491  79.4642792  12.6663370  37.7569962
  68.0342712  13.5313501  68.4779816  68.9038696  13.7353354  68.8221054
  68.1993942  13.1786280  67.6035919  53.8887711  52.8581734  72.6164093
  53.6424332  52.1097031  72.0729523  53.1684456  52.9485855  73.2402573
  56.3301430  20.2954121  57.0958290  57.2614212  20.3909378  56.8962593
  55.9011269  20.9650879  56.5631828  77.7805099  18.6375046  65.9266434
  77.9949646  18.1168613  66.7007065  78.6298676  18.8983250  65.5705795
  80.0337906  70.6937561  65.2646408  80.2359314  69.7619171  65.3486328
  80.0284119  70.8535538  64.3208847  85.4056396  56.4545517  73.3650970
  86.0678711  56.5487976  72.6804123  85.7772369  55.8135567  73.9711227
  30.3036385   7.9766064  78.4742737  29.7210140   8.7324171  78.5486450
  31.0533009   8.1967487  79.0272446  33.8872108  33.1269455  31.8115616
  34.3029442  33.9838753  31.9067993  32.9514198  33.3024406  31.9101982
  12.8116817  28.0123463  36.6285896  12.6755371  27.6616745  35.7484055
  12.2552900  28.7903728  36.6651459  69.5077438   9.6366529  40.7583961
  70.4349823   9.4307413  40.6397896  69.1228485   8.8255758  41.0904160
  19.2459869  61.9692345  68.5363388  20.1675549  61.7184486  68.5999832
  18.7890568  61.1529045  68.3337402  73.1017685  22.2950459  29.6787796
  72.6052094  22.6488438  28.9408855  73.5909653  23.0439873  30.0193691
  76.2344437  45.3631897  70.6373825  75.6561966  45.6955757  69.9508133
  75.6407013  45.0221062  71.3062363  55.7619629  42.9442520  50.4957123
  56.2697220  42.1362877  50.5705833  55.3334770  43.0375710  51.3465500
  79.7996368  12.1108303  67.5383911  79.9921951  11.1932211  67.3456650
  79.7523651  12.1501255  68.4936142  58.3545074  29.4458122  61.3699265
  57.6696739  28.8661690  61.0363846  59.1105156  29.2705612  60.8095970
  69.2326355   5.9025235  10.2139177  70.1402206   5.8142633   9.9228334
  68.9284897   5.0019126  10.3262835  24.1772556  28.8408947  15.9191055
  24.5517750  28.1104374  16.4114456  24.8227062  29.5426636  16.0036373
   3.9705689  21.9420567  43.0342026   4.5500011  22.5677319  42.5994377
   4.4945149  21.1448231  43.1125031  62.9204292  27.2650795   5.9116073
  63.7116661  27.8037415   5.9162669  62.6277390  27.2772827   5.0003362
  43.2537270  68.5900726  42.2831154  43.8580551  68.6981506  43.0175133
  43.5707474  69.2030945  41.6198463  60.0663910  62.3316231  36.6511040
  60.0511398  62.7837639  35.8075600  60.5337296  62.9292526  37.2347717
  78.9082413  57.4307251  49.0071640  79.7497330  57.8449326  48.8159904
  78.5124588  57.2847214  48.1479340   7.8138437  16.7376461  70.0850296
   8.5301523  17.2433395  69.7010880   7.7110982  17.0984287  70.9656601
   2.5911348  37.5882912  78.8110046   2.3155806  38.4985924  78.9189606
   3.2280056  37.6139107  78.0968857  26.7519035  37.9460182  87.2519760
  26.1643696  38.3299637  86.6011124  27.5819874  38.4057388  87.1260910
  18.3985596  10.3577147  60.7882843  17.5667038  10.0294209  61.1295624
  18.9122849  10.5656443  61.5687218   8.2599449  46.4965019  25.8147736
   7.3676305  46.6499748  26.1253414   8.1858702  46.5031357  24.8604660
  54.4509201  68.6306610  27.7653370  54.9117241  67.8098984  27.5914345
  54.9363937  69.2881241  27.2670517  77.4543762  54.0288429  15.8397989
  78.1776123  53.8430901  15.2409220  77.4080353  54.9844322  15.8702564
  77.3807755  14.8601656  59.0319748  76.4249878  14.9121952  59.0313110
  77.5695496  13.9219780  59.0519485  70.5052185  47.3976097  39.0750008
  71.0708313  47.6969299  38.3631554  70.0504761  46.6359215  38.7154579
  57.5290718  61.1009636  16.9984455  57.5456543  62.0268974  17.2405319
  56.6001015  60.8702240  16.9975967  74.2870560  24.7708111  59.1047325
  73.7438736  24.3059826  59.7412186  75.1324844  24.8741875  59.5415344
  83.3487549  13.1463108  32.3356018  83.1980057  14.0315447  32.0041389
  83.9189682  13.2686386  33.0946274  56.3504143   6.5728579  58.8845673
  55.5211639   6.1233473  58.7217369  56.1102028   7.3352919  59.4110909
  44.3067780  12.5327587  52.5594788  44.7674141  13.0476904  53.2219696
  44.5424385  11.6257610  52.7545433  80.4873123  14.1535969  74.0083160
  81.1294174  13.9476109  74.6876602  80.4836502  13.3829184  73.4406281
  26.4168015   0.9491932  22.8705540  26.2268143   1.8739022  23.0288258
  27.3310833   0.9375783  22.5873833  47.7511520   4.2679605  84.8680725
  47.0090485   4.7517123  84.5054474  48.4757347   4.4591823  84.2725525
  78.3225708  23.9778118  62.3961754  78.1250229  23.6460133  63.2720261
  78.7387390  23.2408237  61.9490929  70.8126678  43.2507019  72.4464417
  70.5411606  43.3668404  73.3569565  70.0214233  42.9545631  71.9964828
  11.7733822  44.9377861  14.7586374  11.9768896  45.8658714  14.6425591
  11.2528048  44.7086220  13.9887581  48.7776260  32.4265060   9.2995014
  49.4425964  32.0402298   9.8694458  48.2676163  31.6795902   8.9860744
  38.1956329  58.5400925  79.6018906  38.7894592  58.8986168  80.2614822
  38.1182060  59.2338295  78.9469376  39.9544373   4.9708943  13.5462599
  40.2295952   4.0599399  13.6496153  40.6593742   5.3783989  13.0430346
  78.1136551  28.2845783  52.2777023  78.4076767  28.8067017  53.0241394
  78.8618851  27.7262592  52.0663719  23.4723835  65.6220627   0.3508023
  23.0839748  64.8697357   0.7973171  23.8764458  66.1340179   1.0514221
  20.6397038  17.1491756  16.9974594  20.8608513  16.2907391  17.3585873
  20.3194294  17.6494846  17.7480240  10.5451527  42.3961830   0.0289910
  10.1418257  43.0416374   0.6094641  11.1451387  41.9084625   0.5932400
  45.7273140   2.7510777  65.0208435  45.7287407   1.8065584  64.8655548
  46.3619270   2.8788393  65.7259445   6.9301620  19.3159046  27.0556774
   7.0867934  20.2559319  26.9659729   7.3103151  18.9332161  26.2649403
  83.3123322   5.8283520  16.7591114  83.7287598   5.6719260  17.6066685
  83.4420319   6.7628288  16.5973587  71.1313248  31.6257629  64.6181259
  71.0885773  31.9448662  63.7166977  71.4585114  30.7296410  64.5397186
  14.5032320  36.0152626  74.8467102  13.8931341  36.6712761  75.1838455
  15.0767031  36.5029488  74.2555084  11.8115606  13.2846680  71.6923752
  12.4676723  12.9772129  71.0669022  12.3218718  13.6665297  72.4065170
  17.5240345   5.4674621  54.6386833  17.8365593   5.9109626  55.4272690
  18.3184204   5.2795777  54.1388016  23.3933506   3.5481780  58.9260101
  23.8888302   3.1751981  58.1968880  22.4806118   3.5086801  58.6403923
  72.3024979  10.6075258  79.1037674  72.7555389   9.8069601  79.3684998
  71.6309433  10.3107786  78.4896164   8.9193850  60.3808556  67.7966919
   8.0324831  60.7385063  67.8382034   9.3806467  60.9546700  67.1849670
  27.5289860  25.3539238  14.9185047  26.6244869  25.0948830  15.0946045
  27.5990276  25.3454437  13.9639082  67.5704346  69.9688034  21.1369648
  68.3206406  70.3672028  20.6957169  66.8133850  70.4516678  20.8053894
  73.5021667  58.2685928  36.5061836  73.0980148  58.3690529  37.3680420
  73.4247513  57.3343391  36.3127708   9.7167158  40.0605164  85.4764099
  10.3896770  39.4019318  85.6485214  10.0171194  40.5090141  84.6859436
  32.3454704  30.6920052   4.0831213  32.1933327  30.0337543   4.7612004
  32.3747902  30.1927643   3.2669535  58.7046738   1.8732978  10.4570465
  59.3163261   1.3151016   9.9769096  57.8562698   1.7081430  10.0457506
  86.2298126  10.7528772  41.8892593  85.9880066  10.4762182  41.0053940
  85.4945602  10.4765081  42.4363022  53.7431335  21.0888100  21.2301197
  54.0953484  21.8545723  20.7764835  52.7994614  21.2450027  21.2664700
  57.8740387  50.5275803  57.8063087  58.3149643  50.7742958  58.6192932
  57.1956367  49.9100876  58.0796356  24.8288727  56.8547363  76.6530685
  25.2534885  57.1326027  77.4646835  23.9976387  56.4736061  76.9359589
  78.6132507   6.3121333  21.3840008  79.2595901   6.8587260  21.8308868
  77.7873230   6.7847557  21.4874706  31.2354794   6.6834302  58.0369263
  31.1467133   7.4990973  58.5299149  31.7103310   6.9331503  57.2442169
  19.1254673  34.8721352  71.1435776  18.1832848  34.7383766  71.0404587
  19.5206833  34.3263512  70.4637527  80.4784393  35.8443947  64.4911804
  79.6911163  36.2313995  64.8740311  80.2550888  35.7085495  63.5703659
  72.8308716  20.2685184  10.2546024  73.0054855  20.4820862  11.1711884
  72.2810898  20.9869518   9.9418192  86.1867676  11.5146503  44.7970467
  86.1995697  11.9790926  43.9601707  85.4718018  10.8841648  44.7101517
  71.2534180  47.1648407  87.9035034  71.5950546  47.8652496  88.4593277
  71.9046631  46.4665565  87.9706726  15.3654547  55.9405441   3.6197677
  15.9288816  55.2223358   3.3317387  15.7881393  56.2739372   4.4112325
  84.0649719  28.6366844  73.1187820  84.2952271  28.8792439  72.2219086
  83.3745270  27.9811516  73.0198593   1.6571454  50.3199348   4.8895063
   1.0664868  49.8864326   5.5054865   2.4371746  50.5208092   5.4066482
  10.8462620   8.7128477  49.9277306  11.5002146   9.2633648  50.3584404
  11.0873108   8.7346115  49.0016365  65.5769806  57.8644562  34.4833755
  65.6932907  58.6175194  33.9040642  66.1533966  57.1918869  34.1205673
  43.4613228  56.9103012  33.3814278  43.1497269  56.0441971  33.1187515
  43.2443390  56.9709206  34.3117371  32.0757599   9.7995548  84.2737045
  31.4283695  10.3770342  83.8691864  32.6719780   9.5713501  83.5604858
  29.3362541   1.1183627   4.6811457  30.0086002   1.4917239   4.1112485
  28.5092888   1.3405800   4.2533841   0.4618037  18.1867104  86.0652847
   0.2365330  17.3429108  86.4570541  -0.3799235  18.6248684  85.9398041
  86.5085068  44.2472992  39.2255478  86.3592529  43.3141594  39.3778954
  85.6574173  44.5832214  38.9444199  53.0858421  18.6137371  61.1262093
  52.3210373  18.3939705  61.6581917  53.0494843  19.5660172  61.0363770
  45.3845711  33.6753693  75.7597656  44.5547829  33.3079071  76.0641556
  45.3143997  34.6117210  75.9456558  69.7646332  35.3901482   6.8844523
  70.1806107  35.5031128   6.0297976  70.4759445  35.5066109   7.5143018
  44.7004585  51.0685844  45.1337471  45.2631683  50.9424133  44.3697624
  44.7014198  50.2190742  45.5748367  56.8903885  61.0661469  76.8851395
  57.5317268  60.6139297  76.3370285  56.2012825  61.3331490  76.2768021
  64.9947281  70.1466827  55.2897263  65.4074631  69.3873138  54.8783417
  65.4868088  70.8968353  54.9560204   7.7018323  41.7204475  26.6327209
   7.5173120  41.1961365  27.4120064   8.5130606  42.1833839  26.8420792
  32.3978577  51.7308083  71.6755524  32.5828247  52.5007935  72.2132721
  33.0089264  51.7986031  70.9419174  78.8159332   9.1956444  52.8683014
  78.2263794   9.9462118  52.7954216  79.6828690   9.5829115  52.9894218
  28.7602711  70.7594986  60.2296562  28.5705967  71.2383728  59.4228516
  28.8695946  69.8509674  59.9488602  57.5282097  40.1559334   4.3126316
  57.2091026  41.0057602   4.0089998  58.0116692  40.3542328   5.1146135
   7.2103152  33.0170555  69.6999893   7.6753640  32.4096985  69.1245880
   7.8049741  33.7612801  69.7934799  81.1859131  50.2196426   2.1540804
  81.0467072  51.1508331   2.3265150  81.5312042  50.1902847   1.2618090
  57.8628654  29.7568417  77.9697876  58.5745201  30.3840122  78.0979843
  58.2864723  28.9890747  77.5859680  10.2372932  52.3009453  18.6638451
  10.6299801  52.3376923  17.7916756  10.8936491  52.6944542  19.2388058
  64.6166458  10.1814594  47.5895309  65.1415558  10.9663324  47.7466087
  64.1446381  10.3674726  46.7778397  81.1460648  43.7584419  55.5544853
  80.2326965  43.6725655  55.8276596  81.1090164  43.7803535  54.5982513
  66.9891663  38.2254562  36.4967842  67.6017532  38.7736931  36.9871025
  67.3658066  38.1719894  35.6184235  75.7438126  33.9384727  37.2088699
  75.9824600  33.2891426  37.8704224  75.1921234  33.4590607  36.5907822
  80.8269348  11.4766817  72.8160477  80.1540909  11.1144152  73.3924866
  81.5223770  10.8189707  72.8167419  74.2562408   2.8823631  82.6444778
  75.0607376   2.3663816  82.6972198  74.4328156   3.6566107  83.1788864
  71.6264725  65.7196350  64.4229889  71.9543991  65.7542572  65.3215942
  70.6741791  65.7523117  64.5141144  73.6550293  14.4230318   7.7472396
  74.5395126  14.4653902   8.1107378  73.7560272  13.9399643   6.9270706
  85.9513931  29.9747086  66.8315582  85.7368698  29.5830936  65.9848862
  85.1637115  29.8480892  67.3604813   3.9520953  47.4749908   5.6157289
   3.9239700  48.4195747   5.4633904   3.9440796  47.3857384   6.5687246
  58.1874924  28.3534374  72.0934067  58.4178429  29.2787666  72.0101242
  58.1357956  28.2035027  73.0373764  11.1529684  68.0512695  62.5011749
  11.4590483  68.5776672  61.7626228  10.8960810  67.2162704  62.1099968
  21.2834454  67.4271545  51.6386719  20.3379726  67.5763016  51.6470108
  21.5229492  67.4600601  50.7125053  12.8784609   9.7455015  82.3269196
  13.4525871  10.4297581  81.9828186  13.0703268   8.9782848  81.7876587
  21.7772083  52.4904709  15.7454386  20.9778671  52.5289841  16.2706070
  22.2567806  53.2847939  15.9805841  62.0508041  18.7534599  70.9924850
  61.7786064  17.8395119  71.0752029  61.3194809  19.1818542  70.5476532
  15.9115648  14.1658792   7.9135418  15.5825605  13.2800903   8.0664015
  15.5688858  14.6783419   8.6457882   9.8740225  42.2633896  10.3402271
   9.6624842  41.3782005  10.6367455   9.6998730  42.2487526   9.3991165
  61.7424355  55.5130272   6.0785761  61.6145248  55.2041817   5.1816454
  61.2102661  56.3065186   6.1368480  51.0079460  60.1273041  81.6030273
  50.3198509  60.7445183  81.3544159  51.6418152  60.6572189  82.0863800
  34.8663330  45.1861916  22.8354073  34.8649826  45.4788055  21.9240322
  34.0868874  45.5894623  23.2175961  19.0433197   3.0169427   4.0628438
  18.1464481   2.6831443   4.0421200  19.2731113   3.1435015   3.1422944
  22.9966240  57.5944443  62.6191330  23.6761646  57.1135864  63.0916061
  22.6493969  56.9622345  61.9898682  28.0933018  64.8941879  41.0235672
  28.9106178  64.8566437  40.5267639  27.4159985  65.0283966  40.3606339
  83.8065109  38.8027878  24.9412079  83.9389648  38.4177742  24.0749207
  83.8763885  39.7464981  24.7971172   3.2761512  22.1152554  24.0981674
   3.0244439  22.7824421  23.4596233   4.2301455  22.1772594  24.1459351
  41.3543816   8.1533470  68.7915268  42.0144501   8.8422670  68.8685379
  40.5287476   8.6242657  68.6784210  21.7726498  20.4755898  57.6697998
  21.2905254  21.2830410  57.8481560  21.0935478  19.8275738  57.4823723
  82.5836487  31.8088207  38.6065674  82.4688797  32.7057610  38.2926216
  83.2484436  31.8781128  39.2917557  12.6796865  70.7732773  49.9816513
  12.4964504  70.2072906  50.7315292  11.8769979  71.2810745  49.8630524
  45.7797050  -0.0750458   7.4271402  46.2353554   0.5944362   6.9168372
  46.3935928  -0.3031970   8.1252251  28.7259407  20.3522835  22.3840656
  27.8750668  20.4725857  22.8056946  29.1671524  19.6924171  22.9189873
  34.3176346   2.6821833  34.8957176  34.3092918   3.3828909  35.5477676
  34.1136475   1.8900110  35.3927917  62.3303947  41.8390274   7.8832994
  62.3516998  42.0387077   6.9474006  62.2479897  42.6926308   8.3085079
  80.3454514   8.8843918  50.1927795  80.7534943   8.3806801  50.8970566
  80.9907608   8.8739367  49.4858894  34.9370232   1.0324678  59.7036819
  35.7943649   1.0456313  60.1291542  34.3307838   1.3415139  60.3768806
  50.4822960  50.6036072  33.7636986  50.8429337  49.9159660  33.2039413
  49.5565910  50.6466331  33.5240097  54.7289276  44.2304459  78.7651749
  54.6723595  44.8839226  78.0680389  53.8745766  43.7988472  78.7587967
   3.9205480  32.3205986  11.5729294   4.2394652  33.0637512  12.0850306
   4.3722920  32.3973541  10.7325315   7.8976998   6.4300342  29.6942616
   8.0479984   7.0780144  30.3825684   8.7150230   6.4156432  29.1962585
  18.4676323  55.1045265  87.0067444  19.3881359  55.0145340  86.7601547
  17.9985256  55.1381569  86.1730499  86.3301620  35.5384560  34.5259514
  86.9348145  36.0172997  33.9590912  85.6467972  36.1741409  34.7384453
  70.7047272  59.5931969  25.0957241  70.0553894  59.9042358  24.4649696
  70.8820343  60.3524132  25.6510487  80.2688751  26.8429890  16.5386620
  80.5822296  26.0833855  16.0477009  79.7706909  27.3524132  15.8994942
  37.1143456  64.2737732  19.9230900  36.7746964  64.4638977  19.0486050
  36.8540993  63.3677597  20.0893555   9.1393433   5.4807453  36.4226151
   9.2552977   6.1415119  35.7398453   8.2080832   5.2620506  36.3885918
  14.2571983  17.2366924  55.0727615  14.5928488  17.6718979  55.8564491
  14.6113901  16.3487778  55.1216087  54.3751373  24.1771641  54.1050835
  53.4955330  24.5410786  54.0046158  54.6004219  24.3443546  55.0202484
  -0.1627300  35.4401398  76.1158829   0.0964422  35.0265961  76.9393158
   0.5600321  36.0320091  75.9072266  80.2419662  22.5346088  54.0699615
  79.7004623  21.7655602  53.8922729  79.6774521  23.2786465  53.8602867
  82.7022934  45.7879295  32.3004379  83.0749893  46.5031738  31.7849197
  82.0680923  46.2136459  32.8773117  20.4196262  45.2134056  14.6495361
  20.6895428  46.0502777  15.0277205  19.7341728  44.8950806  15.2369499
  19.5472717  62.3541870  27.2752075  20.4373016  62.0035744  27.2413273
  19.2704124  62.3937225  26.3597736  10.8626966  17.1497650  24.8076782
  11.7663975  17.3872566  24.5999413  10.5444689  17.8706570  25.3510742
  80.2488251  39.8312531  70.5004730  79.3153992  39.7746620  70.2961502
  80.4669952  38.9728851  70.8635712  80.3182678   3.1983514  71.9504242
  80.0071106   4.0775046  71.7347794  81.0762024   3.0661511  71.3809509
  60.6744652  21.6654034  62.4378242  61.3066025  22.1520195  61.9088249
  60.3340721  22.3104057  63.0577736  24.2275677  24.2233829  16.4865246
  24.6254997  24.6888161  15.7508259  24.8327656  24.3642635  17.2146187
  10.2514715  22.7979679  86.7924194   9.5613403  22.8789368  87.4507523
  11.0643549  22.7866745  87.2977219  30.8826141  51.5238533  81.2603455
  31.1420727  51.1846809  82.1170120  29.9399796  51.3638420  81.2148666
  86.8501587  45.7468452  43.5695686  87.3377304  46.5249367  43.8399048
  86.1565857  45.6596260  44.2234573  79.6620560  56.8907509  20.2746601
  79.6668320  55.9336395  20.2865982  80.0455399  57.1426773  21.1147213
  23.7043018  17.2138081  16.3888302  23.0288925  17.8614159  16.1871891
  23.2504063  16.3722916  16.3434772  77.5225220  69.7944565  19.1012974
  76.9540329  70.2793808  18.5030575  77.3407516  68.8740921  18.9112167
  70.0708008   2.1153464  53.4045258  70.7226486   1.8376654  52.7609253
  70.5464401   2.7076333  53.9869308  26.8329391  53.0527992  16.5171776
  27.1348553  52.4669838  15.8229866  26.3339348  53.7293587  16.0594711
  10.0172529   7.8221369  89.0232925  10.9435530   7.6468349  88.8575592
   9.6483450   6.9679942  89.2481918  85.4864578  38.2918968  32.9970703
  84.9629288  38.0563011  32.2311401  84.9685059  37.9900246  33.7432785
  85.6713257   2.4785447  83.4595261  85.7888794   2.0438538  82.6148605
  84.7826767   2.8325927  83.4250641  36.9190826  63.2272606  15.5201988
  36.3735008  63.3896103  16.2897549  36.4853363  63.7058983  14.8137999
  59.0031319  37.5766716   5.6081696  58.2925377  37.3925934   6.2225018
  58.9434776  36.8779831   4.9566278  82.5361786  13.6407776  76.9838867
  83.0698242  14.3172150  77.4008789  83.0489807  12.8382292  77.0797119
  54.6088638   8.1654158  32.0217857  55.2105103   7.4322438  31.8925095
  54.4602585   8.1894884  32.9670753  60.8413658   5.1665411  82.3992615
  61.2370644   4.7062731  83.1394043  60.9696045   4.5782776  81.6551285
  13.2539377  54.7419167  77.4495010  13.1311903  54.4690895  76.5402527
  13.8154001  55.5151520  77.3938293  11.2934999  61.3318062  77.5417862
  10.7851305  62.1236496  77.7172165  11.7790508  61.5313301  76.7413712
  67.7856064  20.2297897  33.5687828  67.9181290  21.1579876  33.3761253
  68.2854691  20.0779018  34.3708420  70.0533218  12.6359949  23.2654057
  69.2726974  12.9652815  23.7108498  70.5234451  12.1438055  23.9384365
  53.2075195  58.2174034  71.6194763  52.3084106  58.2079430  71.2912292
  53.3251266  57.3562965  72.0205917  66.2378235  54.7422447  58.7405128
  65.4409561  55.1281891  58.3768044  66.7474747  54.4785309  57.9743919
  50.8323593  49.4239845  56.5706329  51.4805794  49.2840385  57.2608910
  50.6322746  50.3589439  56.6159515  33.0663071  64.2552261  40.0087929
  33.8298759  63.7003746  39.8496208  33.4340477  65.1086121  40.2384300
   8.6931572  33.3294411   0.9311268   8.8555880  33.4586563  -0.0032984
   8.8676014  34.1842270   1.3250053  27.4227753   0.9742199  57.0256729
  28.1419983   1.5936923  57.1489754  26.8326912   1.4114283  56.4117661
  62.9257469  29.7611599  19.3053207  63.6897926  29.2693558  19.6063137
  62.6157036  30.2225590  20.0845604  34.8807945  69.9855728  18.4245243
  34.6565094  70.7854004  17.9489136  34.9792633  70.2673569  19.3339920
   1.6061568  20.1656361  20.7830410   0.7359368  19.9728947  21.1320381
   2.2062826  19.9212570  21.4875698  70.9748459  13.0252848  68.7995605
  70.5842972  12.3737116  69.3819351  71.8067322  12.6366940  68.5290070
  82.4343872  66.7186966  12.3016672  82.8309174  67.3473892  12.9047794
  82.1087799  66.0177155  12.8663263  16.9386902  13.7878923  21.4354420
  17.6853981  13.8730946  22.0282326  17.0693111  14.4778738  20.7849846
  63.1357994  -0.0997455  37.4748459  63.6239357   0.6662724  37.7767906
  62.3835220  -0.1520424  38.0644035  56.5138626  45.4836159  80.7685242
  55.9551277  44.9085388  80.2457123  57.0769882  45.9177361  80.1276932
  58.3832321  69.5032196   1.9352087  58.3278999  68.5478134   1.9544034
  59.1908989  69.7058868   2.4072568  20.2665291  67.6171875  18.6565514
  19.6785526  68.2960129  18.9877739  19.7366447  67.1273499  18.0276527
  58.4975014  32.2023201   7.0119925  59.3738441  32.0287704   6.6682858
  57.9636078  31.4792233   6.6828766  15.3877373  13.7412233   3.7643201
  16.1546364  13.3218374   4.1544652  15.3993216  13.4584227   2.8499236
  70.2929611  12.1908798  27.8267593  70.1773529  11.2749720  28.0797024
  71.1123276  12.2011404  27.3320217  35.1704597  31.1596775   5.5158691
  35.1588516  30.2200546   5.6980944  35.3569412  31.2196617   4.5789285
  60.0254021  19.1563053  66.3794556  59.2635269  19.6105366  66.7392578
  59.8209114  19.0439358  65.4511261  24.8788586  25.6458778  14.1315985
  23.9284477  25.5660858  14.0504608  25.0920486  26.4540844  13.6651392
  63.4959908  65.1528015  12.0083094  62.8782997  64.6659241  12.5538759
  63.6700821  64.5724640  11.2672796   1.1786268  49.3817177  29.4829502
   2.0955489  49.5898514  29.6622982   0.6874061  50.0988083  29.8838444
  22.1430626  69.3648682  32.2315712  22.8264294  68.7668915  31.9287987
  22.4402561  70.2302399  31.9504395  48.4480820  61.3174400  21.2229462
  49.1788750  60.7162552  21.0789013  48.7292519  61.8649292  21.9560432
   6.8486986  18.0258160  24.5559959   7.2592258  17.1896210  24.3358173
   6.2520413  18.1988087  23.8277760  52.3505783  30.2739372  86.7027664
  51.9325943  30.3620720  85.8461685  52.9897499  30.9858685  86.7317657
  85.3187103  46.3272400  48.1261711  86.0350342  45.7075615  48.2644043
  84.5918884  45.9710007  48.6371002   9.4782171  61.8916473  57.2357864
   8.6935530  61.5000534  56.8521347  10.1961975  61.3365288  56.9315186
  25.1972980  59.7421684  46.3024788  25.7562923  59.0426826  46.6408195
  24.4061089  59.6973343  46.8393631  49.2581558  68.2736893  28.8122215
  49.8240585  68.4002991  29.5737686  49.8159752  67.8355179  28.1695118
  77.1615753  25.9218750  65.2318115  77.7591324  25.2237244  65.4996643
  76.3006668  25.5041637  65.2077484  76.4655457  16.0899944  72.5696869
  77.2447205  16.6075821  72.7727051  76.3604813  16.1768322  71.6222382
  79.0207901  14.0443630  33.2376366  78.1483383  13.7155581  33.4543114
  79.3367844  13.4529924  32.5545120  13.5956869  16.3378258  60.8542366
  13.0839958  16.4722462  60.0565300  14.3638735  15.8449364  60.5658264
  79.2474213  24.6944828  69.6131973  79.4881897  24.1092854  68.8950043
  80.0841064  24.9831848  69.9776764  73.1495667  38.6913414  73.0716858
  72.8178101  39.3809319  73.6466904  74.0160065  38.4839020  73.4216461
  84.5232849  68.2617874   4.9887605  84.8187332  69.1709290   4.9397531
  85.3298340  67.7513962   5.0609217  14.0370054  64.2675781   9.3085909
  14.2103615  63.7245102   8.5396576  13.0871115  64.2286987   9.4200459
  10.6726675  11.0341854  73.0478287  10.9415474  11.7846222  72.5179443
  10.7420321  10.2855320  72.4554291  61.1377754   1.5694406  86.9648056
  61.1911392   0.9645340  87.7047195  60.2658997   1.4228259  86.5979691
  84.6470108  65.8813705  15.4084702  84.1758575  66.6230469  15.0287828
  84.1923447  65.1100922  15.0698853   3.7239621  16.0500393  46.6189308
   2.9010463  16.5363178  46.5681839   4.3442283  16.6685200  47.0049133
  48.2380753  37.3677101  59.4755478  48.9698792  37.9591980  59.6511612
  47.4577026  37.8935699  59.6508255  21.4639778  37.9166641   3.0692077
  20.5468636  37.7023849   2.8982806  21.4281597  38.6500664   3.6832657
  79.5651398  62.8569565   0.9973574  80.5012131  62.6646309   1.0521064
  79.4220886  63.5394287   1.6531042  67.5243835  35.1132393  40.1571350
  66.7271881  35.5127716  40.5051117  68.2238617  35.4446030  40.7203026
  40.6958389  16.7151985  55.1224060  41.0733795  17.0461426  55.9373741
  41.4042397  16.2163906  54.7154770  84.4891357   8.3570967  40.8038864
  85.0622253   8.0214357  40.1145897  83.6246719   8.4029570  40.3954277
  85.5576859  36.7966385   0.9494814  85.2669601  37.6530533   0.6360061
  85.6419830  36.2672768   0.1564467  66.5417709  66.2932587   6.5489936
  66.2480545  66.4550018   5.6524425  66.7477646  65.3586960   6.5686207
  42.4776001  24.4646282   7.2071471  42.3315163  24.6296196   8.1386347
  43.4294777  24.4158669   7.1189423  82.5038223   9.0907784  39.3144913
  81.7438660   8.5120211  39.3756256  82.7154617   9.1104145  38.3811913
  20.2812824  61.4786453  58.2698479  19.7143192  62.2471352  58.3347282
  21.1287117  61.7776871  58.5994911  68.4446335  15.6186819  61.4928894
  68.3079834  15.5294971  62.4360771  67.5621262  15.6854992  61.1282768
  56.9653893   1.8633645  20.2123985  57.8885689   1.6183277  20.2750416
  56.9765701   2.7472041  19.8450642  53.0587196   9.3148918   3.3335183
  53.1745682   9.7120581   4.1966929  52.9765511  10.0587196   2.7366924
  83.2147598  70.8116913  34.9694443  82.8709106  70.4084854  35.7665825
  83.5998154  70.0846481  34.4801865  41.6526413  70.9926147  54.8455887
  41.1298409  71.7920456  54.9074554  41.1953316  70.4569321  54.1974068
  54.6592941  69.2693558  19.0690479  54.5207405  70.0237198  19.6417313
  53.8050728  69.1146927  18.6657867  84.1018372  40.5187302  57.1182556
  83.4195328  40.6003761  57.7846031  84.6233292  39.7672272  57.4002609
  61.7236176  32.5298729  13.9437876  62.2601624  32.0167542  14.5479898
  60.9699097  31.9698277  13.7580347  28.2259178  47.0946579  89.0994263
  28.7018623  46.3858719  88.6666107  28.8709049  47.7961464  89.1896057
  58.4776993   1.3700008  76.0468216  58.7100410   0.4451360  75.9639130
  58.5821838   1.7233316  75.1633835  52.2657814  10.0958061  49.8176460
  52.8331032   9.9117432  49.0689774  51.8775597   9.2490377  50.0378685
  53.3919258  38.0420837  21.3236675  52.6550026  37.7209892  21.8433552
  53.1740875  37.7994690  20.4237156  46.5118675  69.0246277   0.1055073
  46.5773239  68.8015747   1.0340520  47.4200592  69.0997925  -0.1873630
   7.8067465  27.4142170  12.8366337   7.7811179  26.7527084  12.1452723
   7.1854138  27.0989189  13.4929590  75.0748367  42.4582901  52.4031258
  75.6491623  43.0272522  51.8906174  75.6322174  41.7235069  52.6593513
  15.5505972  57.7318878  25.9315987  15.2707405  57.9290123  25.0377007
  14.7484694  57.4643364  26.3801975  84.8229675  32.4292297  66.6465607
  84.5873642  32.4523582  65.7191010  85.3681030  31.6475010  66.7357712
  47.1004105   2.9078376  41.1838608  47.3824348   1.9997470  41.2937012
  46.5296173   3.0737793  41.9341202  73.6311951  55.9517212  58.8016205
  73.5033951  55.0804672  59.1768684  74.5789642  56.0285072  58.6917305
  45.6175766  12.9715176  80.6286087  45.6466103  12.3059130  79.9413223
  46.2692299  13.6198912  80.3617859  30.4799557  24.5058899  22.2358646
  31.2214966  23.9311752  22.0459881  30.4124355  24.5022278  23.1906738
  38.6938705   6.4808784  50.9354820  38.7061462   5.8984489  51.6949959
  38.0328445   7.1393447  51.1492577  86.9278793  20.3540916  46.4607468
  86.0208511  20.2763176  46.1649628  87.2317886  21.1810036  46.0864677
  15.7588005   8.9045048  49.0107651  15.2172899   8.1618605  48.7434120
  15.6419458   9.5495272  48.3132553  16.0829735   9.9985304  15.6692438
  15.3679514   9.7230110  16.2428856  15.8240814  10.8682461  15.3646107
   5.7276535  44.6568108  48.2490692   4.8272357  44.9799423  48.2817039
   6.0594106  44.7819672  49.1381721  31.2205009  66.5088730  40.7839622
  31.2804222  67.3897552  41.1536903  31.3690014  66.6320267  39.8464050
  16.7370720  64.4926834  10.6193333  17.3800144  65.0745850  10.2140484
  15.9114380  64.7092209  10.1861181  55.7628021  47.1941643  54.0155258
  54.9383240  47.6585236  54.1598969  56.0334435  46.9095879  54.8884544
  64.2375412  61.6217537  42.7407608  63.9718513  61.0409622  42.0277939
  63.7030907  61.3465652  43.4856567  31.0006409  68.0006180  77.0945206
  31.5642223  67.4504013  76.5505829  31.5147419  68.1617279  77.8857040
  68.9414062  49.8306198  66.0769119  68.9481506  50.3639755  65.2821045
  69.7939606  49.9921646  66.4809952  41.2650681  41.5518188  79.1912231
  40.4007111  41.7381859  78.8246307  41.8589096  42.1271019  78.7089005
  73.3856201  29.5883541  30.0206413  73.3311539  28.6360664  30.1007175
  73.0308609  29.7763290  29.1517124  75.3881378  60.3764534  62.3665695
  75.7581253  59.7453804  62.9838982  76.1363068  60.9029579  62.0850220
  38.7743416  20.1928349  88.1841965  39.2745781  20.5720520  88.9068222
  38.0029793  19.8097763  88.6019363  66.2546539  11.5970650  71.0149689
  66.6792145  12.2165203  70.4214630  66.0125275  10.8581142  70.4567871
  38.6126328  43.2977142   7.1769423  39.1973457  42.7793312   7.7297702
  38.8966446  43.1069603   6.2829728  64.7131348  10.3735771  10.1959715
  64.1962433   9.8570471   9.5777063  65.6141129  10.2893467   9.8839073
  58.8781204  21.9503384   8.1803913  59.6545334  21.4836445   8.4896002
  58.8881569  22.7774353   8.6620989  75.2619324   7.9426384  84.9026947
  74.3507538   7.8821878  85.1896515  75.2453537   8.5750513  84.1843567
  81.0698776  39.6206932  64.1068802  82.0032883  39.7446938  64.2789154
  80.6915207  40.4953499  64.1966400  15.0317144  56.5010452  43.3831329
  15.8660374  56.9517899  43.5133781  14.8275270  56.1231842  44.2385635
  68.1542358   9.3054323  56.2828560  67.7582321   8.4800882  56.5625420
  68.2944946   9.7913103  57.0955582  76.3595276  37.7862015  14.3351564
  76.5088806  37.4784431  15.2291422  75.8009949  37.1160126  13.9413080
  45.0037994  14.0293045  14.4447336  45.1530342  13.0879116  14.5327206
  44.9440994  14.3475628  15.3454990  82.3198166  47.5000725  87.5345383
  82.3911285  47.3374557  86.5939560  81.8766251  46.7246132  87.8787460
  51.7958031  34.8888283  80.0325928  52.2209358  35.3672943  79.3208618
  50.9271088  34.6750832  79.6921310  68.3762360  36.3284492  20.3984184
  68.0238266  35.6808357  21.0088558  68.8231964  35.8091698  19.7299824
  86.1278839  62.1407547  61.8869476  87.0506439  62.1030846  61.6353035
  86.0059586  63.0306854  62.2176819  51.5578384   4.4035139  23.9361382
  51.8644753   3.6907630  24.4966679  51.6778831   4.0758500  23.0448151
  25.2272720  60.3307571  17.9096470  24.4904346  59.7647400  17.6795845
  25.9086342  59.7278824  18.2071629  40.3249969  59.6783409  41.5524826
  40.1479607  59.3961105  40.6551323  40.4604454  60.6234283  41.4840012
   3.4091430   8.1165533  76.9194641   3.1680732   7.7871046  77.7852478
   2.6255641   8.5703745  76.6091690  35.2573242  50.5405273  47.8113861
  34.9312668  51.0831184  47.0933914  36.1128273  50.2341118  47.5106316
  40.9730492   9.3913145  13.6488142  41.7411232   9.9621658  13.6692448
  40.2280655   9.9923077  13.6421576   8.9798717  28.1780262  28.1358299
   8.1958008  27.7551880  27.7855835   9.0204468  29.0202484  27.6827869
  58.5980721  39.7582741  46.5494347  58.0757942  39.8306732  45.7505493
  58.8497620  38.8355751  46.5882492  53.4409599  18.4153614  78.6845169
  53.4292755  17.6050777  79.1939697  52.5375633  18.5246372  78.3875885
  86.1118698  63.8684235  73.9640884  85.6070480  63.3024902  74.5481339
  86.4592361  64.5533295  74.5354614  42.3932381   1.5489134  62.9129181
  41.4420166   1.5129874  63.0135384  42.7250824   0.9095792  63.5432854
  76.4987488  54.9009933  31.9225693  76.0001907  54.1020470  32.0939217
  76.7121887  54.8548775  30.9906101  85.9647446  36.9753876  43.3061905
  86.0786209  36.0296135  43.3998795  86.5466919  37.3531837  43.9656143
  54.4658318   8.9888563  47.7285080  55.2019272   9.5983591  47.7823830
  53.9434814   9.3085785  46.9928741  69.4865646  43.3018494  60.4123955
  69.1308060  43.2159271  61.2968636  70.4268341  43.4243164  60.5432854
  46.1653938  17.9179897   8.8093891  46.7682419  17.8736763   9.5515757
  45.3090172  18.0786304   9.2056818  54.0577126  63.3546524  68.0846100
  53.7592773  64.2218933  67.8106308  53.3119392  62.9823227  68.5551758
  25.9598904  58.5782127  29.5619984  25.5176487  58.0098534  30.1925716
  26.1696472  58.0024910  28.8266182  70.7773132  37.2473488  48.9781876
  69.9421310  36.7827835  49.0318108  70.5536118  38.0999336  48.6049690
  19.7658730  37.5946732  11.0884686  20.4710579  36.9781113  11.2854443
  19.4302349  37.8565254  11.9457970  47.9137802  41.6947670  10.5517044
  48.6798630  41.3438950  11.0058432  47.4842720  42.2512665  11.2013674
  41.8051224  71.0551071  29.5243053  42.6447906  70.7666397  29.8820419
  41.5514221  70.3593292  28.9178753  60.2032890  62.0580864  85.8722458
  61.0237808  61.6869125  85.5478134  59.9057999  61.4370270  86.5370865
  46.8808441  66.2170715  70.6321487  46.7191124  65.7671204  69.8029175
  46.8246880  65.5275650  71.2937088  59.8023148  17.1830845  23.2165947
  60.0581055  17.3493023  22.3093052  59.3577728  16.3358307  23.1887360
  35.8521080  36.1797791  75.9446259  35.1522293  35.5338707  76.0405350
  35.8872070  36.3571205  75.0046539  55.4702759  39.0046082  15.6202507
  54.5404510  38.7777138  15.6070690  55.7843323  38.6790237  16.4638119
  68.8300629  33.0887833  11.3999271  69.6889343  33.0207291  10.9828672
  68.4603348  33.9017792  11.0555754  51.5117874   6.9997401  28.7831287
  52.4266205   7.2388039  28.6342678  51.2478104   6.5508204  27.9799976
  22.6512775  60.3746758  52.8871536  22.4072952  59.8682327  52.1124153
  22.7636948  59.7195511  53.5759239  34.5240211  14.6676722  20.1734772
  34.0753708  14.4396582  20.9876976  34.0808868  14.1485662  19.5023632
  65.3211975  61.3639107  72.6252823  65.8610840  60.9331207  71.9625778
  64.4788284  61.5051079  72.1931915   2.8572891  44.3430977  42.6283646
   2.8857315  44.1729050  41.6868477   2.8040516  43.4746017  43.0272522
  76.9377899   8.3813858  41.1112289  77.4498062   8.7675543  40.4006348
  77.5752869   8.2240210  41.8076935  10.5672760  52.8316879  16.0844479
  11.3374863  52.3509827  15.7812462  10.3569708  53.4259720  15.3641529
  22.0205784  28.2733078  14.1324511  22.7790318  28.4859829  14.6762791
  22.0809078  27.3277302  13.9965324  47.9978256  35.6644211   7.0322995
  47.2452469  35.3868599   7.5546198  48.7443733  35.5831566   7.6258426
  44.4871674  48.0211983  39.3324127  44.4700737  47.8098297  40.2658272
  45.3904343  47.8515244  39.0649147   8.5747137  25.5529175  88.8774033
   7.6589127  25.7816353  89.0362396   8.6654739  24.6681862  89.2313080
   1.2289703  56.9575462  68.2515030   1.8500988  57.0541840  67.5296402
   1.5941656  56.2549248  68.7892685   0.3571411  20.2746868  54.5694351
   0.3528355  20.7181721  55.4176903   0.4007611  19.3433952  54.7862816
  62.8040581  62.8995819   0.9935158  63.0950623  63.6866493   1.4540297
  62.0866928  62.5603333   1.5287997  25.5701141  10.9317656  66.4974365
  25.0396748  11.5513411  65.9964447  25.2412643  10.0708981  66.2385941
  16.9562569  70.2519073  27.1589813  17.2341423  70.6394196  27.9889488
  16.7087307  69.3551483  27.3843288  36.7527466  62.4702606  11.9176149
  36.0165100  62.1001816  11.4305496  36.6620789  63.4166336  11.8062954
  49.4003029  43.7886353   4.8860717  48.4437752  43.8083115   4.8560429
  49.6685181  43.7736702   3.9673400  82.6873093  14.7730780  47.6319046
  82.2257690  15.3128357  46.9901276  83.3590775  15.3517008  47.9926720
  43.9557076  16.4754391  75.1492920  43.2795181  16.8239422  75.7302780
  43.5616150  16.5062580  74.2775269   1.6038531  11.7272568  30.2987862
   1.8471701  11.2298794  29.5179882   0.8195025  12.2109718  30.0398521
  56.3867035  16.9721947  89.0012817  57.2240181  17.1858425  88.5895844
  56.4554710  17.3329563  89.8852234  73.3599243  19.6858482  29.9763298
  72.7833405  19.2717838  30.6184673  72.9845123  20.5562859  29.8435020
  64.6636887  58.6338844  54.7655144  65.2337341  59.0939941  55.3816185
  64.8098907  57.7062569  54.9508858  64.0404968  22.7271233  83.9977112
  64.2703629  23.4578457  83.4237442  63.5665245  23.1327286  84.7237015
  71.8458710  35.4260254   5.1555371  72.6172104  35.5312996   5.7124815
  71.9731598  36.0581665   4.4481268  21.0656242  65.5591888  11.2966785
  20.3848572  65.7196579  10.6431980  20.7754078  66.0444794  12.0690136
  38.1630859  36.8951683  14.9275169  37.7044373  36.8048744  14.0922213
  37.5342369  36.5879097  15.5804901  37.9142952  70.9835434  64.8019333
  38.1044998  71.1278381  65.7288895  38.6729126  71.3440399  64.3428345
   2.2329426  69.9991455   5.6236672   1.3028799  70.0665131   5.8397145
   2.2812352  70.2343216   4.6970658  34.3056297   4.3576169  24.0604153
  34.3018875   4.6230178  23.1407528  33.8486862   5.0648546  24.5156593
  65.3532791  26.3999920  58.3685188  65.8960571  27.1177502  58.0422592
  65.1786957  26.6276970  59.2817039  64.3216782  36.2323074  15.1028700
  65.1469193  36.0518417  15.5530281  64.5817871  36.4764481  14.2146282
  47.0328331  58.7323723  30.3996754  47.8833961  58.6070213  30.8204632
  47.1136398  58.2839012  29.5579052  24.3499584  10.0857868  51.2330513
  24.6978474  10.9211321  51.5451431  23.5781612  10.3245602  50.7196846
  75.2895737  16.5450840  77.6245270  75.2107544  16.4328079  76.6772079
  75.1506195  15.6680946  77.9820328  80.0239029  48.6380577  75.3069077
  80.7956696  48.9829788  75.7559433  80.1475296  48.8886375  74.3913956
  72.9930954  27.1292858  10.7927055  73.1294403  27.5795307  11.6263237
  72.4468842  26.3751259  11.0143557  27.6627769  61.1506310  75.3060989
  27.5574074  61.4594917  74.4062424  27.5576134  60.2010460  75.2472534
  56.8105354   0.8182939  65.6741714  57.1368179  -0.0383628  65.3986511
  56.2805252   1.1211730  64.9368896  31.1614361   6.4840331  49.1272316
  31.7830162   7.1986995  49.2655182  30.3146152   6.8504930  49.3818550
  50.3097115  63.1787949  66.4833527  50.9832687  62.5258598  66.2930374
  50.7680016  64.0175934  66.4321899   8.5706091  46.2761421  57.2004433
   8.0753288  46.6952248  56.4966698   9.4871550  46.4427032  56.9803696
  39.4405518   1.5329280  36.6374092  39.9784088   2.2798228  36.9002533
  39.7131653   1.3457739  35.7391396  51.3373833  33.9066124  -0.1981027
  50.4261780  34.1645622  -0.3373809  51.4542885  33.9433784   0.7512196
  45.8712921  70.8087769  71.7871323  46.4591103  70.3725815  71.1703339
  46.1207275  70.4602432  72.6430206   8.3162899  68.0163193  58.2636528
   8.6536331  67.4795837  57.5464783   8.9298382  67.8676834  58.9831657
  76.4364548  69.1867371   9.9499865  76.3794174  68.5873566   9.2058620
  77.0044937  69.8941193   9.6447515  63.3495636  27.4495239  45.0003662
  63.4252586  26.6468601  44.4843864  63.5857658  28.1490364  44.3911667
  45.0440674   3.3708868  19.8386593  45.4833145   4.1573620  19.5150089
  44.1125336   3.5897503  19.8146133  74.7395096  18.6828690  56.8935814
  74.8276367  17.8006763  56.5327492  73.8807602  18.6840153  57.3164139
  36.9085388  51.1985130  70.0343857  36.4412155  51.4098396  69.2261887
  37.8293800  51.1609917  69.7757874  17.9798775  53.3229446  34.7958069
  17.2156277  53.1150208  34.2582932  18.6435757  52.6890831  34.5238647
  42.4474945  67.3418121  12.3350935  42.3373909  67.8745804  11.5475235
  42.6365967  66.4632874  12.0054560  63.0491562  68.4715958   9.8671589
  63.7788239  67.8727112   9.7085505  62.5296288  68.0415344  10.5464001
  56.0644455  32.5513153  32.8525238  56.9798279  32.4972191  32.5779724
  55.6736717  31.7330799  32.5459023  64.2802200  38.6072845  17.1260719
  64.3263321  38.0475311  16.3509693  63.3843079  38.5004616  17.4456940
  15.5970068   8.9857063  68.9812317  15.5109978   8.0634928  68.7396622
  15.0627346   9.4524593  68.3386383  18.3582287  59.2965622  68.8126831
  18.2606983  58.3751869  69.0530701  17.9308071  59.3679581  67.9591980
  30.1201992  69.8802567  30.8017120  30.1390266  70.8237076  30.9622917
  30.9402599  69.5573273  31.1751423  52.0559082  56.9937706  15.1684809
  51.1439590  57.2771759  15.2337484  52.0521088  56.0960770  15.5006943
  82.6334686  28.9543457  41.5000648  83.3466339  28.3346729  41.3463287
  82.0594406  28.8520069  40.7409554  69.5249634  71.1937256  19.2726727
  69.9280090  72.0289459  19.0356350  69.2041855  70.8387451  18.4436226
  64.9887009  50.4005775   0.6164494  65.1844254  49.5007973   0.3550608
  64.0594025  50.5115623   0.4156386  71.1362915  66.7559738  73.2333298
  71.8310165  66.1105194  73.3636093  71.5302048  67.5880585  73.4954453
  59.5726776  54.5154953   9.8372040  59.8581505  54.0615730  10.6301031
  60.3758316  54.6443253   9.3326473  64.9320374   5.3892131  38.4631538
  64.7408905   6.0255380  37.7741089  65.8804092   5.2669535  38.4198837
  13.2907295   6.7691488  81.1326752  13.5980940   6.4573622  81.9838791
  13.7639046   6.2332306  80.4961700  82.3807755  31.7290154  28.1748314
  81.8193207  31.4196987  28.8856964  82.9135513  30.9685707  27.9422283
   8.3730764   2.1396770   2.0425730   7.6501145   1.5135818   2.0030460
   8.3271627   2.6113727   1.2109318  39.0096741   8.4730835  76.6909409
  39.1788063   9.0566025  77.4306259  38.0685272   8.5510120  76.5347214
  58.8313599  66.3076630  49.1274834  58.5437775  65.6094208  48.5392761
  59.6363945  66.6393967  48.7298584  13.1896210  40.9161072  70.2981796
  13.2893133  41.7410393  70.7733459  13.2299490  41.1651688  69.3748322
  50.4265823  55.3781357  78.5923233  50.9968224  54.7648468  79.0559311
  50.6014061  56.2249260  79.0029526  61.2079124  49.4010849  54.2902756
  60.8152199  49.8253212  53.5273514  61.9219894  49.9843025  54.5475349
  51.0931168  61.5575066  35.2500305  51.7759895  60.9230728  35.4677734
  50.6899414  61.2116280  34.4537621  62.6730003   9.0026531  61.3703461
  61.9080582   8.4384451  61.4833107  62.4679298   9.5328388  60.6002274
  67.9877090  20.7633839  71.2066422  67.8128204  21.6157761  71.6054840
  68.4161148  20.2587891  71.8980789  68.3607788  38.6494331  29.9161091
  67.9358597  37.8291779  30.1668282  67.7433701  39.3303986  30.1831760
  20.6886330  51.0770950  85.8910980  21.1621170  51.3474922  86.6778183
  21.3123970  51.2124138  85.1777649  48.7664948  45.7597771  54.6736031
  48.9179688  45.6887169  55.6160660  49.5546951  46.1849861  54.3357239
  22.4626331   5.4567008  16.8581295  22.1753025   5.4271350  17.7707081
  21.7317848   5.8602123  16.3898659  76.5173492  55.0883675  47.6452599
  75.9914017  55.5163612  46.9696617  76.6254044  55.7555008  48.3231163
  36.3655930  47.1851845  75.1149216  36.8974724  46.8346672  74.4004517
  35.9700508  47.9778938  74.7524414  69.8846817  34.5230103  63.6339874
  69.3258972  35.2799492  63.4578133  69.7411423  34.3297920  64.5604324
  71.1129913  37.4958763  67.5206375  71.0853882  37.4027634  66.5683746
  71.9741211  37.8736267  67.6994858  57.1784439  32.6874771  15.8317509
  57.2526855  33.3653221  15.1599989  57.2661285  33.1600151  16.6595497
  63.9677811  22.9766197  36.5559998  63.2327194  22.5919437  37.0334282
  64.3392639  22.2471142  36.0599594  78.1642151  43.6619415  47.4781303
  77.5413589  43.6778793  46.7514687  77.9281769  42.8810234  47.9788132
  19.7469559   9.4296179  76.8798981  19.3799763   8.5810909  76.6317902
  20.3971062   9.6166277  76.2027283  77.9611435  15.8619280  79.9552002
  77.8367615  15.1419058  79.3368683  78.9107285  15.9692822  80.0099487
  10.0101023  51.6098213  85.3509293   9.6136665  50.8180199  84.9874420
   9.9013052  52.2686653  84.6651306  51.0349312  60.3341446  17.0274143
  50.5905113  60.3132248  16.1798954  51.3234100  61.2416878  17.1242466
  56.4913788  19.7396526  19.0926094  56.1742859  19.0215511  19.6403427
  55.7044945  20.2379150  18.8717461  21.3671246   5.1577392  19.1557159
  21.3895588   4.2080708  19.2734375  21.5916595   5.5111556  20.0164795
  23.3641491  52.9970055  31.5182152  23.2868156  53.5394821  30.7333775
  22.5981140  52.4237671  31.4895878  47.5277672  71.1918182  27.6729355
  47.0074120  70.4334869  27.9382629  48.4298897  70.9473801  27.8794594
  35.6085129  10.3402662  86.2031708  36.4180183  10.2738504  85.6966858
  35.2844200   9.4411373  86.2557373  18.3944683  50.7036705  77.1262054
  18.3273354  51.4805107  76.5710068  19.3348656  50.5387535  77.1946793
  49.2535858  28.1707401  13.4539890  50.1676941  28.3920765  13.6318855
  49.0043907  28.7456760  12.7304001  61.1135368  40.3297386  67.2116547
  60.3082390  40.3859100  66.6972809  61.1676292  39.4102898  67.4722672
  79.8287125  66.6917191  59.5449104  80.5653381  66.5460815  58.9512749
  79.0709610  66.3410034  59.0768852  69.2539215  36.6515388  52.6912231
  69.0200348  37.1830902  51.9303131  70.1918793  36.4891281  52.5907593
  81.5740280   2.4692543  46.0704498  81.8941650   2.3750975  46.9675980
  81.6980057   1.6042012  45.6798782  35.3310776  58.4114914  77.6245193
  36.1299171  58.7919617  77.9896622  34.6241455  58.7952690  78.1433563
  33.5431976   7.9465704  15.0762987  34.4396133   7.6435485  14.9319124
  33.4133415   8.6315317  14.4204044  56.1694145   6.0744839  32.3875237
  57.0871239   6.3400736  32.3283348  56.1210327   5.5576839  33.1917686
  28.1973419  29.9372406  82.2792053  28.7473259  30.3017025  82.9726868
  27.3186893  30.2630939  82.4741974  45.0062523  69.2799759  45.0083771
  45.8422508  69.2889862  45.4744797  44.3515434  69.4417343  45.6876564
  58.4027481  55.6880760  34.7271805  58.1728020  56.2407188  35.4741364
  57.5764427  55.2808189  34.4671936  64.0732040   8.5078630  85.9797897
  64.2228012   7.5861144  85.7694702  64.6660995   8.6862497  86.7097778
  77.4749146  58.5376434  25.2304783  78.2394638  57.9746399  25.1091328
  76.7492981  58.0410080  24.8522263  18.5402222  14.0358648   7.9344406
  18.6100044  14.8266964   8.4691811  17.5984859  13.8917551   7.8417273
  51.3208618   2.2544668  28.4717770  51.5645943   1.5268273  27.8996162
  50.7634010   2.8106854  27.9276333   5.8473253  18.4511700  49.2557259
   6.5274100  19.1084290  49.4031296   6.0272570  18.1129017  48.3785515
  83.4567947  58.9247894  56.7012215  84.0520782  59.3561172  56.0881767
  82.5836868  59.1977692  56.4194374  40.5945625  46.9771385   3.5508111
  41.1741028  47.3816147   4.1963830  40.6860886  46.0365295   3.7028465
  48.7835693  60.4560051  57.1391602  48.3076515  60.5351295  56.3124352
  49.5788689  59.9739685  56.9125137   6.1183786   0.2291760  43.4348907
   6.3143725  -0.6197965  43.8312073   6.5071087   0.8679281  44.0324860
  57.2227058  30.3448906  85.7231750  57.6309433  31.1919556  85.9022141
  56.4878998  30.5505219  85.1452484  18.4363289   3.7295337  38.7791939
  18.3528862   3.5067453  39.7063599  19.3793697   3.7232594  38.6152878
  64.1865845  10.8253069  35.5871277  63.5743523  11.2294235  34.9722366
  63.8294868  11.0313940  36.4509811  12.4727554  51.7117233  28.7125778
  11.8624249  52.4182014  28.9238033  11.9233351  50.9301033  28.6539173
  20.7573490  40.1670761   5.5959558  21.7076588  40.0720215   5.6600361
  20.4107399  39.3409500   5.9330158  58.5098228  68.3762283  50.9759712
  58.5823021  67.7021408  50.3002625  57.6025429  68.3184891  51.2755394
   2.9297228  19.7481232  75.7735291   2.0681925  19.4716740  75.4611588
   3.0270395  20.6427441  75.4473114  10.3116913  22.5115623  76.7951965
   9.7823887  21.9417305  77.3531952   9.8429995  22.5322304  75.9608536
  34.1190529  46.2386131  15.6073828  34.1132469  46.2774925  14.6509905
  33.2138557  46.4203987  15.8599806  28.8023167  19.2368088  17.7654381
  29.4024353  19.2784595  17.0208874  28.9222584  20.0723572  18.2167740
  83.2513580  41.3047714  23.4065228  82.5298538  40.9211998  23.9050484
  83.5366211  42.0510597  23.9336987   9.7252598  65.7507782  56.8559036
   9.5153923  64.9167557  56.4356728  10.4947739  66.0696487  56.3843117
   3.9651492  38.9641571  29.9299259   4.0097060  39.8095169  30.3767071
   4.0528865  39.1791191  29.0013103  51.3058243  38.5178719  26.9248981
  50.8990097  38.3803520  26.0694313  50.5859833  38.4289093  27.5495129
  84.0063095  18.1786041  61.4803467  83.3785477  18.6317978  60.9175262
  84.1625366  18.7865696  62.2029800  79.0492935  71.1816101  84.1753693
  78.9271469  70.7808151  83.3147430  79.8507767  70.7825165  84.5138626
  71.2490387  23.5509834  72.5288086  71.6762924  22.7921238  72.9260635
  70.8477173  23.2089424  71.7299423  11.0834894  65.0388336  83.0397491
  10.8094330  64.4229431  82.3601913  11.1544685  65.8791504  82.5869064
  10.0988045  66.7728271  69.4624481   9.8081646  65.9863129  69.9241333
  10.1847935  66.4968872  68.5499268  51.6300545  53.4179115  80.2634659
  52.3837166  52.9003143  80.5468750  51.1076698  53.5347061  81.0569992
  49.4668198  52.7692261  10.3722820  50.4087029  52.7528725  10.5420456
  49.2560120  53.6984444  10.2809181  70.0756912  52.0041885  50.1094055
  70.5913467  52.2929153  50.8623734  69.9599991  51.0637016  50.2447891
  84.9580612   6.8846231   9.1814156  85.4929123   6.2502246   8.7042294
  84.7339935   6.4415412   9.9997692  75.2653198  52.1943245  61.7972145
  75.6062469  52.2317085  62.6908607  74.5412216  52.8203201  61.7907295
  81.2096024  10.7921305  29.7282238  80.5143890  10.2336941  29.3802967
  81.8295059  10.8818922  29.0044193  17.4920826  17.3435192  66.3649445
  17.5844116  18.1975021  66.7873383  17.3590984  16.7314262  67.0887451
   5.5787458  39.0018082  80.5097046   5.7924652  39.1968079  79.5972748
   5.9387941  38.1274681  80.6584473  60.7996292  71.4866638  57.5778008
  61.6853065  71.7668839  57.8086395  60.9149857  70.6143799  57.2009201
  60.7122154  34.1712494  78.3582382  61.1344223  34.6615028  77.6528168
  60.1570320  34.8149452  78.7983017  23.8053970  40.7008018  51.5761375
  23.9619217  39.9660416  50.9829636  22.9277954  40.5443764  51.9248199
   8.8244362  25.0273342  17.4864655   8.7645578  24.3955326  18.2030354
   7.9242625  25.3241692  17.3530235   9.9019337  64.7545242  54.0767860
   9.4973946  65.5788116  53.8063583   9.1801710  64.2413254  54.4399948
  19.3765259  34.2847710   1.3479878  18.4301281  34.2167892   1.2217199
  19.4746227  34.7710571   2.1666043   1.4397664  43.8084145   0.4283660
   2.1147745  44.4617538   0.2446798   0.6175978  44.2974167   0.3944758
  77.4940033  27.0258789  34.7895737  78.1924515  26.9162560  35.4348526
  77.5189285  26.2218838  34.2707253  60.7901764  66.0024567  27.5549755
  61.1823845  66.8756104  27.5569592  60.1054649  66.0459366  28.2224445
  86.1848984   6.7140574  33.0302048  86.4264145   6.7457442  32.1045151
  85.4313736   6.1245837  33.0611000  26.8503017  50.2599564  87.4154434
  26.7515278  50.1751251  88.3637466  27.7948685  50.2126312  87.2678375
  82.4328613  31.5179787  42.4997787  82.4047928  30.6768513  42.0437622
  81.5667496  31.8985138  42.3539352  84.8656998  55.7293015   5.7709780
  85.4212418  56.2413063   6.3587313  85.2388535  54.8481827   5.7957616
   1.7773563  43.9208450  45.2500114   1.6926718  43.7817879  44.3067589
   2.5095167  44.5312119  45.3373528  86.0478134  61.9149628  46.1178474
  86.4869995  62.2437057  45.3334541  86.6771240  61.3085670  46.5083389
  68.5913162  13.1026945  84.6314545  67.9236832  13.2362213  85.3042603
  69.3204651  13.6599092  84.9036560  84.9846802  46.8458481  16.8873482
  85.3905029  46.2780571  16.2322521  84.0721512  46.9197655  16.6079464
  55.0350876   6.0563970  22.8087006  55.9585190   6.2586131  22.9590855
  54.6032906   6.2816606  23.6327400  22.9418850   7.2618484  13.3666592
  22.2550030   6.6220803  13.1792517  22.4948750   8.1078501  13.3402929
  33.7184105  42.2472992   0.0458866  34.5355759  41.9496193  -0.3539379
  33.7849350  41.9719925   0.9602247  80.0444870  28.9567699  78.4062042
  80.8699417  29.3249416  78.0910797  79.5132599  28.8497505  77.6171646
  77.7639389  62.0175247  62.4699249  77.3274612  62.8557816  62.3180885
  78.4827576  62.2263718  63.0665054  42.4692383  13.6714754  70.2209396
  41.8079643  13.1242218  69.7973099  42.8437347  13.1114931  70.9009476
  17.8816090  45.2132492  80.9635773  17.4875011  44.7863922  80.2028503
  18.7364540  44.7930336  81.0578690  11.5604963  37.3419533   5.4916611
  11.6230898  36.6193924   6.1163378  12.4695692  37.5635681   5.2899060
  86.4014282  48.1755486  58.2001839  87.2757568  47.9740028  58.5335922
  86.2613678  49.0930061  58.4344597  58.9801331   6.1664848   5.5084972
  59.9171677   6.0451899   5.6617398  58.5570908   5.5757866   6.1316686
   3.9840493  12.2678900  84.2384109   4.4118028  11.4187174  84.3487091
   4.6938138  12.8645296  84.0007401   5.2692776  66.8520660  83.8329010
   5.9355283  66.2382355  84.1419983   5.3002939  66.7788773  82.8790054
  79.1142654  60.8191757  40.0789452  79.9050903  61.2507095  40.4023819
  78.6446075  61.5046921  39.6038437  34.8734932   2.8078499  87.5094070
  35.2679291   2.0450072  87.9321594  33.9503250   2.5755537  87.4092636
  45.5199928  61.5813065  13.5408773  44.6696815  61.9834328  13.7183418
  45.3743477  61.0480919  12.7594042  44.5805702  46.8478584  22.2453957
  45.3678017  47.2856865  21.9216595  44.7892952  45.9148293  22.1992779
  80.0987701  20.0000687   1.9204841  79.2841949  19.8394737   2.3968318
  80.0119629  19.4862957   1.1175320  81.7190323  61.6484528  73.5106812
  82.1571884  61.4766121  74.3441772  80.9228134  61.1182594  73.5448761
  30.9677372  58.4832573  10.9762983  31.8648186  58.6039696  11.2875938
  30.5940323  59.3644943  10.9750309  76.6583862  66.4958267  51.3762131
  75.7441406  66.7022705  51.5705605  76.6293869  66.0575104  50.5257607
  72.6238174  11.3207550  39.0827866  72.4711075  10.4689341  39.4918251
  73.5661240  11.4635925  39.1715546  16.8066349  55.8061523  15.2263918
  15.9560499  56.1082916  15.5449028  16.5996532  55.2759857  14.4567719
  48.2693100  51.2580414  73.2640076  47.6193161  51.2918930  72.5621567
  48.3116531  50.3331223  73.5068283  28.1624985  69.9467697  68.1973953
  27.9175701  69.4455261  68.9752121  28.9025822  69.4664612  67.8261719
  71.3487320  46.3451843  44.1187859  71.4450607  45.8147087  43.3278694
  70.4413681  46.2072830  44.3906403  19.0137005  51.0386124  39.0526390
  19.3352051  50.9446335  39.9493179  18.6652241  50.1749916  38.8313904
  25.4921761  61.6266174  69.3890152  24.9920483  62.3563232  69.0234604
  24.8924866  61.2122040  70.0093918  15.9618835  55.6616402  64.7907791
  16.5478783  54.9627228  64.5003357  16.3571892  56.4633675  64.4484253
  17.2804356  56.8283958  69.9876633  16.7277603  57.6005440  70.1083679
  17.1826420  56.6062317  69.0617523  60.0519943  16.7123661  18.2191963
  59.2471695  16.6493320  17.7048874  60.4991188  15.8797522  18.0673218
  79.6820297  34.7728424  21.2690125  79.5222855  35.6252174  21.6741867
  80.5204697  34.8750763  20.8186741  75.8050766  56.3893700  64.5756073
  76.7117462  56.0827179  64.5630417  75.4398117  56.0911598  63.7426147
  78.0102158  32.2258682   5.4642959  77.3389511  32.5553246   4.8667259
  77.5180664  31.7969398   6.1643214  55.1953964  50.0049553  69.2202072
  54.7935448  49.2075768  68.8753433  55.7979469  49.6961708  69.8968277
  13.3498821  37.4944458  49.3415794  13.4265203  38.2787247  49.8849640
  12.4069366  37.3610535  49.2451859  30.8286171  41.1634750  88.2945251
  31.5842819  41.7509041  88.3059692  31.0344410  40.4956818  88.9486847
   8.2321701  66.3606110   5.2466130   7.3416820  66.6271667   5.4751115
   8.3700008  65.5462570   5.7304082  61.3119431  26.9553566  73.6818466
  61.9453392  26.2818985  73.4338608  60.5117950  26.7153015  73.2145462
  48.9908066  56.1869087  41.6410904  48.6852074  55.3833771  42.0620193
  48.3116570  56.3942757  40.9992256  33.2285500  64.0481415  82.0038376
  34.0938148  63.6604233  81.8726196  33.1263428  64.0895615  82.9546661
  81.2323685  57.4080734  40.6376381  81.6879730  56.8560638  40.0020714
  81.3571167  58.2999229  40.3131828  57.5195541  22.8992157  44.5066223
  56.6942673  22.4434128  44.3411636  58.0197144  22.2967510  45.0571747
  61.5401917  60.0011063  37.6256523  61.0153885  60.7876930  37.4770012
  62.0001564  59.8601379  36.7981339  48.5391235  12.7027483  19.0065632
  48.0459709  11.9318457  18.7259560  49.4552650  12.4676104  18.8594894
  77.2076416  46.1511726  48.6323166  77.8979034  46.8125305  48.6809883
  77.5535583  45.4873886  48.0356865  61.1942558  11.7881241  52.9031868
  62.1221733  11.8912802  53.1142960  60.9042244  12.6678991  52.6621323
  54.7094765  67.9209824  74.0124130  53.9261246  67.6562119  74.4945831
  55.2105217  67.1122513  73.9068680  57.8915253  60.3383827  19.6034336
  57.8240089  60.6729393  18.7091484  58.4832115  60.9487228  20.0434589
  10.1958761  48.4691086  10.2461033  10.3932114  47.8676147  10.9640837
  10.9051485  49.1114426  10.2699709   8.3013735  44.1059570  46.6174889
   7.7352090  43.3566856  46.8026466   8.2951288  44.6166992  47.4270172
  41.8974190  61.8035507  65.1500244  41.2072830  62.0822601  65.7519150
  41.6307449  60.9283829  64.8686066  71.3664169  12.5643091  88.7428360
  72.3165665  12.4483833  88.7467728  71.0946121  12.3444510  89.6339111
  70.9687805   4.0560908  43.8244171  71.3992233   3.2964976  44.2168083
  71.6835251   4.5659580  43.4430962  18.2427273  57.7000198  60.8379135
  19.0432816  57.4968872  60.3540955  17.6338120  57.0017319  60.5974083
  29.2363319  14.5941839  12.4087086  30.1158485  14.9714861  12.3906641
  29.2729359  13.9343452  13.1011715  10.7256804  13.1455421  88.4416199
  10.8097296  13.8612700  87.8116150  10.5073671  12.3813257  87.9081879
  77.3849640  68.8666916  48.3580246  77.8336639  69.6485596  48.0361938
  77.9355240  68.5527878  49.0753670  57.1361580  62.2111931  60.0186462
  56.6425056  61.4038353  60.1625748  57.7768478  62.2301445  60.7295532
  23.0080223  13.5553427  61.0923729  22.6100941  14.3307419  61.4881516
  22.2718468  13.0757399  60.7125587  81.8135223  71.0767288  81.8212051
  82.7549515  71.0528412  81.6498108  81.4200821  71.2715149  80.9706192
  65.2081909  70.5224609  42.9565964  64.2765732  70.7126846  43.0668106
  65.5334167  70.3937912  43.8476105  13.7275705  12.3873129  10.9616699
  13.8336010  12.0160027  10.0858173  14.5443268  12.8600368  11.1218958
   8.7060776  65.6100235  79.2530823   7.9642601  66.1689453  79.0216827
   8.4579544  65.2169495  80.0898361  66.5547714  30.2937145  79.5335083
  65.9885101  31.0616665  79.4571686  67.3848267  30.6398163  79.8613205
   3.8407683  34.2364044  22.3784695   4.4923110  33.7263641  22.8597012
   4.2669396  34.4462318  21.5474567  37.5565834  70.5615158   5.9144106
  37.3265839  71.1887360   6.5999207  36.8976860  69.8713608   5.9903779
   7.4585328  50.0364609   5.5578804   8.3063278  50.3036575   5.2027998
   7.1490579  49.3599472   4.9555597  63.4264145  45.8465462  41.0954437
  64.1303711  46.3705559  40.7132263  62.6690369  46.4318275  41.1027603
  61.1277122  16.5264626  14.5173874  61.4717484  17.4098396  14.6497364
  60.2145004  16.6605778  14.2638388  40.2760162  13.2606564  72.4288635
  40.6123734  13.6604862  73.2308807  40.9835167  13.3674746  71.7930450
  17.7984352  17.4977589  61.1757774  18.5913715  17.8857918  61.5457954
  17.2069874  18.2391262  61.0461769  51.3565979   6.3805718  39.4824219
  51.4664383   6.4194593  40.4325027  50.6328468   6.9799314  39.3002586
  57.0088654  43.3523521  23.9321346  57.5155525  42.7607727  23.3757801
  57.6641312  43.7901878  24.4754238  17.6425724   7.8384457  52.6771240
  18.3375015   7.8984799  53.3326416  17.2586365   6.9723248  52.8137283
  83.7503967  26.2591839  80.0312424  84.5287094  26.8111420  80.1073990
  83.9289322  25.5130882  80.6036911  36.7274437   1.6438812  12.8412151
  36.5409698   2.4269907  12.3233366  35.8681145   1.3393565  13.1328421
  70.5987396  20.8463631  71.1673584  70.8024902  19.9226761  71.3140411
  69.6745834  20.8511162  70.9180450  73.4423752  34.8147087  16.4779091
  74.2977295  35.1353416  16.1919079  72.8123627  35.3502884  15.9957514
  21.8600845  60.0895805  62.1414986  22.4304657  59.3212509  62.1653023
  22.1935997  60.6129837  61.4127693  36.3124962  15.0680218  47.1424332
  36.3203049  15.8883257  47.6356583  36.7507744  14.4394579  47.7160645
  25.0150051  51.9632034  52.5846405  24.2048035  52.1775818  53.0470772
  25.5984955  52.6989975  52.7700653  66.3577042   7.9161606  72.7917328
  65.6508942   8.5613708  72.8104858  66.4514389   7.6904197  71.8662643
   6.5575032  70.6044388  19.7505569   5.9761925  70.9207077  19.0589771
   7.3039675  71.2032166  19.7284431   4.8864512  12.1239853  25.1947670
   4.2470546  11.4216785  25.0757294   4.5406690  12.6420383  25.9216003
  59.8789101  16.2324390   0.5009807  60.6104126  15.7085619   0.8276101
  59.6939888  16.8519497   1.2068439  77.6704712  18.1579285  40.5697136
  77.2176590  18.4638882  39.7838516  78.5018463  17.8101921  40.2470169
  72.5953827  61.0130615  65.7529831  72.4497757  60.3409729  66.4188156
  71.8734665  61.6299438  65.8734741  45.4388580  49.2315331  27.0642109
  45.0257034  49.8473930  26.4590244  44.9812050  49.3675117  27.8938484
  60.3358231   4.8811207  87.7697906  59.7112274   4.9791160  87.0511093
  59.8296204   4.4749017  88.4733353  75.5910187  11.7739449  61.0388794
  76.1939774  12.0273724  60.3399887  75.2276764  10.9368572  60.7499123
   8.7067928  34.2214355  34.6404724   7.8974824  34.5643501  35.0194969
   9.0451965  34.9408035  34.1073456  36.4418716  49.9603920  63.7506981
  37.1837616  50.0239563  63.1492081  36.1987305  50.8690605  63.9279900
  78.6764832  11.5114527  27.3662968  79.1799011  10.7179470  27.5483589
  78.3883896  11.4094734  26.4591942  31.9369545  21.7250557   6.3772182
  32.0420837  22.3362675   5.6481104  32.4845009  20.9758263   6.1425285
  50.1120300  60.0162125  63.0586395  50.3839569  59.5364189  62.2762794
  49.7634544  60.8424301  62.7238350  59.0181923  61.7742004  56.7589607
  58.2150993  61.5210457  56.3037834  58.9429855  61.3668404  57.6218796
  30.6272640  71.9092407  87.9917221  30.3449383  71.1998291  87.4144363
  30.1215210  71.7806854  88.7941742  71.5757675  67.3394089   1.5933197
  70.7782898  67.8303528   1.7914059  71.5417175  67.1988983   0.6471010
  72.9281158  26.5795879   0.7422644  73.6560745  26.4124832   0.1436134
  72.5737076  25.7118835   0.9364649  32.8505440   6.4812732  11.9145298
  32.9438400   5.5704002  12.1935244  32.9138718   6.4470983  10.9600382
  84.2193985  11.1502075  12.5047989  84.4075928  11.9841948  12.0743580
  84.3923492  10.4899225  11.8337240  51.9375687  47.7293739  67.1104126
  51.1412163  47.9441605  67.5961380  51.7377510  46.8991508  66.6779404
  54.2978783  52.9402237  32.9109955  53.4988708  53.4601402  32.8243866
  54.0929642  52.1120529  32.4769745  82.9039230  54.6068306   9.3867674
  83.1495972  53.8137245   8.9104662  82.2888336  54.3041649  10.0548210
   5.0952077  48.3675804  85.1951828   5.4085212  47.8190460  84.4760361
   5.7945619  49.0068588  85.3310471  60.1826439  21.9682827  78.4381104
  59.8117409  22.6979408  77.9418640  59.9739456  22.1685600  79.3505630
  85.8785400  35.7034721  63.9848366  86.0488586  35.9375381  64.8972168
  84.9319534  35.5668945  63.9453049   0.5700392  33.0897484  21.1343670
   0.5069976  33.0044746  20.1830597   0.5456481  34.0335007  21.2923813
  87.1320190  38.6479263  87.2750702  87.0371323  39.1585274  86.4710083
  86.2583618  38.6524048  87.6661453  12.2039118  21.1796589  54.8787041
  12.1053905  21.7435322  55.6458893  11.5328722  20.5060043  54.9888229
   4.8962960  56.7525940  72.9454651   4.3776841  56.3102951  73.6175079
   5.7446284  56.3097916  72.9675446  21.4177437  35.7364578  11.8005342
  21.2848625  35.1247673  11.0763741  21.8223648  35.2084961  12.4888420
  74.6868362  50.6869202  49.9816895  75.3522949  50.1905022  50.4580917
  73.9544449  50.7548180  50.5942459  30.7464752  42.2270393  75.9110184
  29.8682194  41.9042702  75.7092285  30.8065948  42.1773262  76.8650284
  40.6387100  47.5754852   0.8702714  40.3615837  47.3408165   1.7559143
  40.8897247  46.7432823   0.4694463  24.6008511   0.6812187   5.1637249
  23.6970406   0.9323361   4.9732013  25.0490341   0.7412485   4.3200660
  73.0233612  29.0620670  82.5554657  72.4027252  28.3997726  82.8594513
  72.7270508  29.8743687  82.9660721  50.4223404  60.4184494  39.2628784
  50.9403763  60.3589821  40.0655823  49.5196724  60.5134087  39.5668564
  53.6461906  54.3973732   9.0140209  53.1347122  54.7925949   8.3080320
  54.0200348  55.1422005   9.4848785  83.3130417   4.6081791  65.1632004
  84.1301270   4.1133575  65.2245178  82.9866257   4.6439056  66.0623169
  37.5315895  55.1738701  30.0651093  36.8798447  55.7093544  29.6126556
  38.2868385  55.7527046  30.1689568  83.2520294  32.5150909  64.2832642
  82.9028931  33.4053574  64.3251648  82.4809799  31.9608631  64.1626434
  86.7601852  16.1515541  66.0469589  85.9003143  16.1110649  65.6283722
  86.6505890  15.6692038  66.8664474   3.4067092  28.3109398  39.7412758
   3.1603105  27.3984814  39.8927269   4.3615518  28.2935886  39.6764259
  20.1977692   7.4718122  46.2504425  19.7898502   8.2552986  46.6192017
  21.0457153   7.4134698  46.6906891   7.5588098  55.7697449  82.6216736
   7.7213020  55.8472061  81.6815567   6.6132703  55.6380463  82.6912613
  42.7998390  33.4831772  78.6501694  42.2798805  34.2862587  78.6807785
  42.6278534  33.0544014  79.4885101  73.3068390  28.9355183  21.8254242
  72.9527359  28.8105297  22.7058887  74.2445145  28.7670441  21.9182358
   5.5887280  44.7106705  42.9205780   5.9881635  44.4266129  43.7427635
   4.7347221  45.0588074  43.1769066  33.6614838   7.3457804  17.7549782
  33.8766747   6.4130955  17.7598991  33.6522141   7.5845599  16.8280869
   4.8405528  50.3398018  49.1143150   5.2755585  50.3228989  49.9667931
   3.9695115  50.6922226  49.2968445  74.6246109  28.0420437  43.0517921
  74.2924805  27.6916695  43.8783264  75.5298386  28.2879238  43.2424049
  58.7264404  45.9500237  11.8474979  58.1173668  46.6746941  11.7056761
  59.5813255  46.3042679  11.6027222  35.0674171   4.0941119  21.1648788
  35.7191963   3.9623768  21.8533993  34.7090149   3.2212131  21.0041656
  14.1972084   4.1775317  33.8102531  13.4716253   3.6231747  33.5231094
  13.7762146   4.9718356  34.1390038  63.3963051  47.9688530  44.2032013
  64.2010117  48.0197296  43.6873665  63.6828613  48.0976105  45.1073799
  42.2569313  65.8380814  62.2977028  41.6501884  65.5171432  62.9648514
  43.1239014  65.7206497  62.6860390  46.4371147  54.7519073  73.0362473
  46.0049553  55.4008598  73.5915222  47.3701706  54.9485703  73.1197052
  12.7813063  19.0308170  28.5087414  13.5586462  19.5842113  28.4330597
  12.5214329  19.1071301  29.4268227  26.4388752  71.3425064  28.2685204
  26.9657345  70.9766998  28.9790382  26.8609333  72.1765137  28.0622749
  81.0571747  15.3363390  35.1679268  80.6390457  14.9908905  34.3792191
  80.5082169  15.0231543  35.8868065  54.3563194  45.4354591  82.7054825
  54.8986130  45.8481598  82.0333099  54.5423012  44.5001869  82.6223679
  76.2801819  61.5318260  11.8323641  75.7342834  61.9404449  11.1606102
  75.7483063  61.5672150  12.6274052   8.8039560  63.7124863  40.4119225
   9.2976351  63.1025505  39.8637543   8.5494967  64.4174805  39.8165550
  84.6989136  59.6418266  71.2809372  83.8717346  59.5189934  70.8151855
  85.3000031  59.9790306  70.6167068  80.0744171  54.2616081   7.8217039
  79.9904480  55.2005005   7.9880233  79.2132645  53.9025345   8.0355320
  31.4609871  66.6800919  53.4211998  30.5795364  66.9902954  53.2137222
  32.0308075  67.4201660  53.2118568  38.0526619  31.0659103  17.1274567
  37.4908943  30.6353626  17.7718773  37.8814545  32.0001068  17.2465973
  86.1874771  38.5014725  82.2751007  86.0104980  39.3908043  81.9684982
  85.3298874  38.1606522  82.5292816  21.5327091  67.8932190  80.3677597
  21.9777699  68.5993423  80.8363113  22.2382412  67.3112106  80.0854111
  70.0306854  38.4378471   6.6346684  70.1674194  37.5041466   6.7951035
  69.3240356  38.6825676   7.2321529  55.1921463  67.1369400  14.5869780
  54.4896393  66.5255280  14.3658800  54.8608780  67.6183929  15.3450651
  31.6149940  59.7956543  76.0490875  31.3667431  58.9020882  76.2860413
  32.0274582  59.7097168  75.1895981  15.1950874   0.1364774  81.1026459
  15.9392853   0.3696802  80.5476532  14.7144547   0.9564885  81.2158127
  72.6531296  58.6608009  17.7222881  71.9240417  58.9092903  18.2905464
  72.7309494  59.3854828  17.1017971  74.8248520  57.9302254  55.3149643
  75.3203583  57.6686554  54.5388908  73.9746552  57.5027809  55.2116089
  74.4495239  24.4443264  70.0176697  74.3093185  24.9426365  69.2125244
  73.7878571  23.7531967  69.9898911  62.7805367  29.1232719  59.1281090
  63.0719490  28.9698238  60.0268669  61.8258324  29.1570988  59.1883545
  76.1020889  43.9865112  88.8466034  75.7268906  43.1163254  88.9816437
  76.2110748  44.3399849  89.7294464  61.5725441  35.1912193  43.8899269
  61.2114105  34.6108360  44.5599785  60.9373703  35.9041748  43.8229828
  64.5671539  21.7078972   7.0205641  64.0008774  22.4354591   7.2778716
  65.3087158  21.7566147   7.6238427  76.6981125  10.4005404  55.4767380
  75.9224625   9.9011955  55.2212944  76.7319870  11.1260118  54.8532219
  24.0846481  51.4046555  64.3765106  23.7192421  50.6188126  64.7829208
  24.5271988  51.8607826  65.0922852  81.8782959  58.2056236  82.9438553
  82.3084335  57.3621140  83.0842361  81.4707031  58.1260376  82.0814362
  50.2263756  42.1690903  26.0428848  50.5584755  43.0665436  26.0201035
  50.7983589  41.6868134  25.4458294  29.5620136  39.2928619   4.5347028
  30.4650345  38.9780083   4.4940286  29.1398888  38.9096565   3.7658088
   9.4397726  11.0402765  75.6037903   9.7489567  11.1949453  74.7112045
   9.7568445  10.1629982  75.8184509  57.6848183  13.3687553  40.4344215
  57.9617157  13.3174067  41.3492584  57.5687408  12.4568062  40.1677628
  75.6137543  32.2000580   0.9809114  75.3945999  32.5008659   0.0990270
  76.4287186  31.7101173   0.8712426  33.3978691  54.6267014  87.8237381
  33.7527695  54.5153999  88.7057190  33.0826950  55.5303230  87.8046494
  23.7977924  46.8038483   1.1913962  22.9365597  46.7169456   0.7827911
  24.3945293  46.3593903   0.5892382  65.4858856  61.2896767  26.9051056
  64.8307800  61.5839310  27.5379429  65.9418793  62.0894318  26.6430054
  18.0485897   5.9874058   7.1130490  17.3079681   5.6572161   6.6044378
  18.3232784   5.2423382   7.6475139  25.8297520  45.4469719   0.0354259
  26.1037140  44.6470566   0.4841035  26.6051407  46.0080032   0.0512231
  71.3066483  15.6086988  10.5493488  72.0700073  16.1857491  10.5264282
  71.4506302  15.0513048  11.3140783  18.5528240  24.3495312  73.8327713
  17.7633801  24.7358894  73.4536438  18.2352123  23.8359642  74.5754776
  15.6879454   5.7043390  36.4212532  15.9106627   6.6132717  36.2200851
  14.8533440   5.5580592  35.9759750  23.1671162  12.7950821   4.3309708
  22.5636482  12.2203836   4.8019042  22.7576122  12.9228115   3.4752700
  73.7732086  63.7705536  65.6906586  73.8640137  63.6901360  64.7411728
  73.0593262  63.1734428  65.9144135  54.6032677  26.8448277  65.6878128
  55.2713585  27.2961197  65.1718521  54.3703079  27.4682503  66.3757858
  73.8764191  14.6710787  12.6234770  73.5557861  15.5471888  12.8376217
  73.9740601  14.2378702  13.4714327  24.7024040  41.5233536   5.0071826
  25.5216694  41.3309097   5.4632564  24.1527634  41.9430962   5.6689558
  16.5551682  27.0034008  88.1325302  15.9172840  26.8905907  88.8372421
  16.2017632  27.7171345  87.6015701  13.6755209   7.3840408  47.8809929
  13.6462708   7.1028247  46.9664993  12.7895737   7.6969471  48.0638046
  86.1377945  61.6552429  30.4093876  86.2882614  61.8956947  31.3235950
  86.7628860  62.1863670  29.9160347  25.6141586  21.4914074   1.1243496
  25.3886471  21.5230446   0.1946314  26.2922153  22.1588516   1.2291842
  64.7513504  17.3372383   0.8931008  64.1674652  18.0140018   0.5506088
  65.5551376  17.4334679   0.3823246  83.1200104  63.9817390  14.1975374
  82.6163254  64.4140854  14.8871813  82.4594498  63.6630630  13.5824451
   4.5583177   2.3615661  31.3758907   4.7831569   2.9546776  32.0927582
   5.3881187   1.9479319  31.1380482  13.9588032  26.9958267  59.3416634
  13.4313173  27.7929649  59.2910614  14.1791477  26.7962742  58.4317932
  81.4853058  42.9428940   2.7143478  81.7528610  42.2246170   2.1410053
  81.7578201  42.6654396   3.5889819  66.7644577   2.3421478  19.8526268
  66.1316071   3.0391405  19.6796131  66.2426300   1.5396999  19.8537903
  50.2223206  70.1516037  32.7047615  49.2992439  69.9220276  32.8117752
  50.2081261  71.0276871  32.3194008  71.9902344  61.0355339  55.2862396
  71.6853638  60.1565475  55.0611267  71.1977921  61.5724182  55.2815132
  49.2291756  54.3399773  24.0801067  49.9875717  53.8788986  23.7216702
  48.8773575  54.8341370  23.3396587  46.4046936  41.4263916  63.1048126
  46.2994614  41.4226837  64.0562057  45.6685028  41.9475632  62.7844429
  56.3894958  52.6563530  39.3235168  55.5680618  52.3878517  38.9119530
  56.1298599  52.9855118  40.1840248  58.1754112  13.7003584  74.4597549
  57.2861481  13.8358183  74.7870102  58.7096786  13.6091776  75.2487259
  49.8656883  69.8487778  71.7080383  50.4995613  69.1324081  71.7434387
  49.2878723  69.6215286  70.9795303   2.7088456  11.5121984  33.8053894
   2.5491724  11.0046959  33.0096626   2.6334019  12.4247885  33.5266037
  71.1552200  25.8961353  45.9332199  71.9922714  26.3212051  45.7464561
  71.3889160  25.1208534  46.4436646  46.8829689  16.0382500  59.6112900
  47.7261925  15.7064953  59.9197350  47.0909119  16.8791294  59.2039642
   9.4956112  64.5289459  64.5046921   9.7814560  65.4408340  64.4500656
   9.6748676  64.1693039  63.6359215  13.0573502  66.8810577  46.3141708
  13.2442617  67.8193130  46.2829704  12.1164608  66.8297424  46.4824753
  43.1769371  32.4482689  54.2491760  43.8503036  31.7694550  54.2941322
  43.5498848  33.1877441  54.7290955  84.3847580  66.9021378  63.0437927
  83.9572525  67.6623230  62.6493607  85.0789413  67.2734528  63.5882759
  41.1366463   6.2812366  86.2325745  40.5109863   6.7693257  85.6972733
  41.4062309   6.9007454  86.9106369   5.2023005  18.1489906  21.6382008
   5.1270795  18.8886375  21.0352955   4.9527140  17.3872337  21.1150723
  13.6790743  62.6907921  28.4404716  14.1333771  61.9723015  28.8804836
  13.4381247  63.2901268  29.1468544  76.0999451  30.7880802   6.8325377
  76.6955261  30.3049736   7.4053578  75.2487946  30.7275772   7.2662535
  52.3504486  34.2027283  27.0799274  53.2382469  34.2239304  26.7227173
  51.8241959  34.6853256  26.4424419   1.6091413  17.9495182  46.4931335
   1.0926598  18.7162914  46.2450676   1.0142049  17.4222927  47.0263443
   0.3964685  20.6135387  58.7531471   0.9819475  20.1141682  58.1838722
   0.7025648  20.4211464  59.6394463  80.4391479  22.3680038  68.4226608
  81.0944214  22.3132401  69.1182480  80.9492188  22.4931145  67.6224060
  63.3227272  39.5036125  31.4705658  63.5058594  39.3909531  30.5378265
  62.3701630  39.5838737  31.5196400  57.1591377  66.3289566  72.6575317
  57.8088341  65.6410904  72.5127411  57.1697540  66.8423157  71.8497086
  70.8485489  34.5676956  21.3417091  70.2617035  33.8115005  21.3458958
  70.7188263  34.9667816  20.4813957  16.3960800  42.9027634   5.2039456
  17.1867657  42.6317940   4.7374449  16.4565849  43.8572273   5.2435398
  58.6850586   0.4346499  85.8304291  58.7943306  -0.4455893  85.4706116
  58.0573158   0.3251954  86.5447083  24.2275848  66.5360489   8.5440760
  24.6310081  66.4006805   7.6866627  24.8885059  66.2387085   9.1693783
  33.6834259  57.5461578  50.2895279  34.2104225  58.3423576  50.3571129
  32.9373131  57.7029305  50.8682976  51.0563812  49.4828110  36.3473358
  50.5225334  49.8801422  35.6593246  50.9943619  50.0938187  37.0815430
  77.0380859  18.6206837  69.1279907  76.5644150  17.9160347  69.5699615
  76.4567261  19.3782425  69.1940155  37.0713043  16.4190006  12.9310179
  37.5095558  16.8608475  13.6582994  37.2321968  16.9842129  12.1754513
  36.5128059  20.9083652  17.4159889  37.3525696  20.6609116  17.0289555
  36.7089233  21.6881599  17.9353027  38.7830048  52.1614265  52.0101814
  38.1962395  52.9102440  52.1160583  39.6356506  52.4817772  52.3044701
  39.7214584  34.5798988  88.9868622  39.2326431  35.3931274  89.1131668
  39.8010941  34.4933853  88.0369110  74.5974808   8.2021961  77.6146774
  74.6617661   7.6330733  78.3816147  74.2858887   7.6275511  76.9154434
  10.3252468  48.1684952  60.2119026  10.7598209  47.6989670  60.9238892
   9.4644728  47.7555237  60.1429520  30.5048618  68.8360596  49.1410980
  30.7540970  69.7167282  48.8608551  31.1054745  68.2565994  48.6723557
   8.2158003  31.0220051  26.4462280   8.4903383  31.7310200  27.0277424
   8.7044687  31.1730289  25.6371384  13.8659363  43.4621658  19.5758801
  14.7982903  43.6017113  19.4101276  13.5079002  43.2029419  18.7268543
   1.0951737  61.7048378  82.8032532   0.6844977  62.0911560  82.0297318
   0.9703887  62.3577690  83.4919815  68.6392975  66.1724396  73.8453751
  69.4762344  66.5973969  73.6578064  68.8324585  65.5693207  74.5631256
   1.6994612   0.3385790  76.5280685   1.3540559   1.1374022  76.1295624
   0.9262405  -0.1160309  76.8622742   4.1506596  23.9341908  34.2157135
   5.0547042  24.1022396  34.4815979   4.1700869  23.9779987  33.2597160
   4.4385862  19.4682293  52.7551842   4.8827996  18.6415901  52.5665779
   4.1581655  19.7903347  51.8985367  44.4131279   1.0371104  44.8213272
  44.9247093   0.4320288  44.2843056  43.5553780   1.0669320  44.3975258
  18.5742130  41.3697624  82.5852661  18.5296192  40.4723663  82.9152985
  18.0906696  41.3455887  81.7595367  51.1177979   0.3064838  64.5005875
  51.8228683   0.8921462  64.2247086  51.3483391   0.0593302  65.3961258
  82.8103790  60.3989754  39.5849609  83.4113922  60.9614334  40.0734825
  82.3341064  60.9988708  39.0109253  45.9272461  67.3620834   9.4147196
  46.5006447  67.9082413   8.8769875  45.0523872  67.7252655   9.2770548
  73.7861023  40.5946922  30.5907726  73.7472229  41.5438385  30.4731178
  72.9078979  40.3537140  30.8855896  81.8637543   8.8031778  76.8530273
  82.3163681   8.0522032  76.4690857  80.9578323   8.7137289  76.5571594
  22.1089268  62.2705650   8.5718641  21.9887142  61.3451042   8.3590097
  23.0305119  62.4429398   8.3789921  23.0585842  59.6081085  55.9820251
  22.1750069  59.3846130  56.2745514  23.2296562  60.4660454  56.3704910
   3.4031348  59.5553131  58.0593376   4.1431875  59.0893326  58.4484558
   3.5675671  59.5215263  57.1169739   7.7889342  19.7310467  65.6499863
   8.0554371  19.6479301  64.7343979   7.1227498  20.4183559  65.6440811
  33.8593407  13.8829861  45.1054726  34.7606354  13.9505415  44.7902870
  33.9454575  13.7320967  46.0467720  83.1068878  27.1626663  11.4385109
  83.9838104  27.0791721  11.0639925  82.5826035  27.5489120  10.7369585
  10.7674170  69.8491287  66.7723618  11.5703564  70.0333099  67.2598038
  10.0648680  70.1684875  67.3386383  17.7626705  28.4108143   3.3249445
  17.2834339  28.8362923   2.6139367  18.6840839  28.5083733   3.0847123
  22.5207291  22.2773380  20.6053410  22.5019054  22.8072701  21.4022427
  21.6022301  22.2003536  20.3471489  49.0374374  51.6726456  21.1198730
  49.2376823  51.5088959  22.0414600  49.5486374  52.4509926  20.8983288
  75.0390091  12.3496017  43.8284683  75.9037628  12.7591801  43.8025246
  74.4780655  13.0008688  44.2496872  60.3360100   5.9258709  37.7318687
  60.4236870   4.9746542  37.7929497  59.4020996   6.0710773  37.5803528
  38.3974800  31.8427010   4.8099656  38.7639542  31.1035633   4.3245745
  38.2449837  32.5140152   4.1448979  19.5374012   9.3722687   9.1069012
  18.7722950   9.2140036   8.5539141  19.4674950  10.2942915   9.3543253
  18.6319885  11.0584555  54.0547714  17.8835354  11.5310698  54.4190369
  18.2532597  10.4912310  53.3831673   3.6919386   9.5022125  16.9484138
   3.9533546  10.4189568  16.8619671   3.4364274   9.2415514  16.0635395
  69.8360977  57.8445129  37.3684196  69.0859070  57.5688705  37.8951721
  69.4553299  58.3748093  36.6683960  21.6279716  61.9597740  25.7001991
  21.2923279  61.2631454  25.1360283  21.5142555  62.7595329  25.1866951
  45.5649109  62.7495270  40.9853363  45.6583099  61.8425217  40.6940422
  45.7422981  62.7186317  41.9254494   9.4623222  13.5910158  19.2759190
  10.3160992  13.1788187  19.1440468   9.2177954  13.3544846  20.1706219
  59.6951561  29.8822689  81.0811386  59.6858711  30.4788380  80.3326416
  58.9421120  30.1482601  81.6087723  72.0145264  36.5410042  11.0773973
  71.0586090  36.5018272  11.1077766  72.2502747  37.1697464  11.7595530
  42.5373344  18.2623043  18.9202576  42.1265297  18.4000568  18.0667381
  42.1490440  18.9315701  19.4837685  18.2439308  58.6032829  35.7402153
  18.1434059  58.9767723  34.8646393  17.4444580  58.8563271  36.2017822
  70.1479874  10.7747326   7.2469683  70.8840637  11.1134586   7.7565656
  69.7253265  10.1422653   7.8279815  42.2793694  55.7848816  12.3811932
  42.0611877  54.8958778  12.6610117  41.4455147  56.2543793  12.4033308
  61.3563347  27.1342411  14.5191746  61.8711929  27.7313271  15.0619831
  61.3273735  27.5559769  13.6603785  72.1881332  38.2979050  42.2091217
  72.1852722  38.8913422  41.4580879  71.7146988  37.5237656  41.9044876
   3.2858531  34.9598579  82.8057861   3.5541024  34.7800789  81.9047012
   3.4270620  35.9003067  82.9146194  82.7941284  26.2869740  62.9507065
  81.8449173  26.3669720  62.8567009  83.0138626  25.4804230  62.4844170
  33.1781693  68.0494766  81.9887314  34.0706329  68.2706833  81.7226334
  33.1747551  68.1692352  82.9384003   5.8703146  50.3322563  66.7144165
   5.7046251  50.5820351  65.8053589   5.0158362  50.0572586  67.0467911
  37.8526001   2.2566118  48.3661842  37.3519592   1.8678380  49.0834312
  37.6403008   1.7160002  47.6053276  78.1294861  58.2965965  39.5779991
  78.6220398  58.0028343  38.8116302  78.4376907  59.1894646  39.7329903
  39.0326500  49.8471756  21.1734390  39.5681229  50.2868805  20.5130138
  39.3335533  50.2103767  22.0063686  16.0145245  54.2980347  52.8736343
  15.1355915  54.0112114  53.1215134  16.2356396  53.7617416  52.1122322
  36.5570793  25.4056358  24.7985382  36.5645294  24.4688282  24.9949284
  37.2821350  25.7635231  25.3108330  41.6809807   7.4709187  41.8171082
  41.5518532   7.9004822  42.6627045  42.0638733   8.1487141  41.2601318
  44.7105141  54.0802917  62.9458771  44.8478432  54.4901886  63.7999001
  45.2618256  53.2980194  62.9642334  45.1609268  62.4774132  59.3363914
  44.4601898  62.4245300  58.6864700  45.1642418  61.6168938  59.7555923
  25.3212852  32.7422218  11.2151041  25.0639820  32.4591942  10.3376522
  25.2007332  33.6917496  11.2054577  71.3836365  20.7096252  82.1124268
  71.6693497  21.3166409  81.4296875  70.6698074  20.2150803  81.7098083
  21.2786102  54.7410469  83.7603683  21.8211346  55.0510712  83.0352554
  20.4903393  55.2824211  83.7182236  61.7490501   6.6350088  69.2178421
  61.2399635   5.8413143  69.0531921  61.1607132   7.1965151  69.7226181
  74.9134827  44.0820847  84.9694672  74.6590042  43.3438835  85.5231171
  75.5710983  43.7203865  84.3753815  57.9161415  58.1548805  23.9850426
  58.0320740  57.3553276  24.4983692  58.6210976  58.7321472  24.2783585
  44.0734825  68.9654999  58.3177834  44.9817581  69.1220703  58.5761490
  43.8646736  69.6885605  57.7263260  55.6705627  48.7058449  78.7769470
  56.1728096  48.1183739  78.2122726  55.6895561  49.5484581  78.3232193
  -0.0872438  32.1076012  42.1624031   0.3125939  32.6019707  41.4468880
   0.2047414  31.2066650  42.0234985  63.2338066  49.7408218  28.5209160
  62.3297691  49.9275780  28.7740345  63.2087631  48.8439255  28.1874771
   7.6563392  23.0410709  41.2446938   8.0611610  22.6795807  40.4562302
   7.1681209  23.8039513  40.9350357  60.4129639  70.3314438  47.9765244
  60.5703316  70.9708633  47.2818260  60.8916435  70.6747742  48.7309875
  15.8309479  39.2935066   3.6952777  15.4576159  39.7761154   2.9577510
  15.4151421  39.6769257   4.4675002  18.8786850  25.5550365  25.3474503
  18.3443699  25.6737938  26.1327133  18.7057629  26.3347988  24.8199100
   3.6946423  29.7669106  52.9284096   3.1880693  29.9743958  53.7136269
   4.0459108  28.8920689  53.0942230  17.5303612  50.5027084  84.8384399
  16.9658890  51.2458458  85.0513916  17.0724449  50.0491791  84.1307220
  76.5339355  14.7525692  74.8909378  76.6369781  15.2292681  74.0673065
  75.5872879  14.7096176  75.0260010  84.7844543  39.2826576  21.8440113
  84.3341980  39.9749489  22.3279896  85.0852737  39.7083855  21.0412045
  82.8237000  49.2384529  64.9963989  82.4745483  50.0784569  65.2942505
  82.6756058  49.2392883  64.0507278  14.4929628  38.9047813  16.1553497
  14.6234970  38.6279106  17.0622883  14.0431471  39.7468834  16.2243843
  83.6740036  39.6722527  84.4276505  83.6355286  39.3960609  85.3433304
  83.1729889  39.0071259  83.9556046  55.9258652  32.1274452  83.9719696
  56.3492317  32.0173531  83.1205750  55.4561920  32.9584045  83.9002457
  71.5031891  16.9650364  86.9090271  71.3368073  16.7718182  87.8316422
  71.6341095  17.9128742  86.8826447  32.4541283  58.0184250  42.6112022
  31.6755600  57.5765343  42.9500198  32.2369881  58.9498482  42.6503677
  39.4398155  58.9314232  20.6724930  40.1198769  58.3223457  20.3847904
  39.4955902  59.6613884  20.0558300  64.9811020  19.0424976  43.8394775
  64.0642700  19.0078869  44.1123543  65.0710602  19.8929100  43.4094353
  21.2641544  49.2242508  80.3171997  21.1795750  48.2794113  80.4450836
  20.9065514  49.6073227  81.1182098  32.9374123  55.3271255  45.5556946
  33.7403717  55.7876282  45.7994728  32.3480110  55.4643974  46.2973099
  73.5417557  59.8982887  68.2450409  73.2702103  60.2201653  69.1046219
  73.7208023  58.9681854  68.3831711  19.9872036  13.2013369  86.6182861
  19.8150597  13.0455666  85.6896667  19.2713413  13.7696419  86.9025421
  62.8613281  64.9674377  43.0778389  63.0939751  64.9802399  42.1494293
  63.5742378  64.4852753  43.4967728  39.3600578  32.0625763   1.1021037
  39.5622063  32.7915611   0.5156280  38.9910698  32.4776230   1.8817302
  25.7327881  21.2116623  17.8255424  25.1554794  21.6105881  17.1745396
  25.9032497  21.9118156  18.4555893  45.7573891  28.6468048  21.1554184
  45.6877098  27.8650532  20.6074753  46.6089249  28.5633774  21.5845566
  22.8920631  31.8815651  27.7061672  23.2383347  31.1595631  27.1817226
  23.4255714  31.8777027  28.5008907  32.4265366   0.0717826  66.1098938
  31.9183712   0.5437618  65.4501648  32.9701843  -0.5335082  65.6056061
  46.1961098  52.0246811  11.5883436  46.8425407  52.6574364  11.2753220
  45.3694153  52.3170280  11.2044888   6.4776440  32.2219505  52.5766411
   5.5333862  32.1715240  52.4280930   6.5629978  32.6251678  53.4405632
  53.0248260  65.7658615  29.3062210  53.9060020  65.5876999  28.9775620
  52.8628464  65.0721512  29.9455585  42.4941711   8.1959887  71.8609848
  41.5429726   8.1712074  71.7568741  42.7010193   7.4064960  72.3611298
  82.7188263  65.9524765  35.0570793  83.4572220  65.3503952  35.1492310
  81.9821625  65.4911804  35.4580383  -0.1738361  54.7106476  75.0989151
   0.7296559  54.5848770  74.8088913  -0.1141910  54.7621422  76.0528641
  75.2072220  39.2673264  22.1133595  75.5136795  38.6510162  22.7785473
  74.4716187  38.8209305  21.6940041  85.9464798  25.9396687  28.7053108
  85.7923660  25.0285797  28.9551067  85.0720215  26.2966099  28.5499020
  63.8964882  48.2198143  65.9412308  64.5349960  48.3752975  65.2452698
  63.3051033  48.9711113  65.8959274  11.1588020  52.2286835  73.2424011
  11.9167738  52.5965195  72.7880783  10.6250639  52.9892578  73.4723511
  40.2498093  54.3257484  65.6611862  41.1981735  54.2205620  65.7371597
  39.9159126  54.1266632  66.5358963  75.4192810  47.9617805  43.0912437
  75.2927246  47.1040115  42.6857224  76.3056412  47.9281693  43.4510651
  76.2765427   1.2231030  82.5063858  77.0378418   1.7133447  82.1960220
  76.0558701   0.6388950  81.7809601  62.9431915  11.4621525  33.0688171
  63.0290451  10.8235588  32.3609619  62.6196060  12.2539282  32.6391487
  85.3322372  44.1642723  69.8869400  85.3641663  45.1139679  70.0022354
  85.8784790  43.9977722  69.1187363  58.0615005   9.0927305  61.4714851
  57.1286163   8.8916664  61.3971024  58.3073616   9.4132633  60.6037025
  41.7684288  40.6349258  22.6818218  41.5345688  41.2021179  23.4165535
  41.1794205  40.9019852  21.9761448  84.0992279   6.6792321  81.1907043
  83.4190521   7.0531511  80.6305466  83.9594345   5.7337303  81.1385803
  10.6629677   6.5272632  45.7829018  10.4070663   6.0571189  44.9893570
  10.4390144   5.9309063  46.4973488  26.4900360  29.4283218  46.2104797
  27.3568668  29.0686798  46.3988724  26.3815060  29.3099003  45.2668533
  62.1518021  20.0297871   2.9055214  61.3699493  19.4974976   3.0525026
  62.8608475  19.5311184   3.3114984  71.2940598  43.7221642  38.2949028
  72.1353149  44.0832748  38.5744171  71.4264297  42.7741814  38.3010406
  51.5751343  42.7747574  73.4824066  52.1785126  42.5772743  72.7660522
  50.8367157  42.1816216  73.3439941  29.1176052  54.0412521  14.1515331
  29.0308037  54.7194099  14.8214588  28.2827396  54.0585480  13.6836338
  16.0744419  67.8075867  28.0986118  16.1826534  66.8568954  28.0720100
  16.6763668  68.0980835  28.7838383  68.6732254  21.4156437   4.1732430
  67.8768921  21.7562180   4.5807891  68.5825500  21.6389866   3.2468908
  72.4509964  53.3965607  40.0321198  72.6714630  53.9248734  40.7992668
  72.8756104  53.8462486  39.3015594  75.1097565  41.3002052  78.4954834
  74.9947968  40.8314781  77.6688614  75.9606705  41.0065727  78.8209915
  35.0778999  62.2321358  74.0977859  34.5651970  62.6159592  73.3864212
  35.5305405  62.9760399  74.4952164  60.6761665  18.7495155  29.4926586
  60.8629036  19.2309093  28.6866684  60.1563072  17.9979668  29.2077847
  21.3443241  55.5952568  29.5627346  20.8710403  55.6854782  28.7356358
  20.7036114  55.2176895  30.1653652  66.4637833  45.7316818  31.2553291
  66.5648804  44.8526726  30.8901539  65.5317383  45.7991943  31.4626064
  38.7991104  54.9599266  59.7654648  38.8228645  54.0340843  59.5236397
  38.0369873  55.0381165  60.3392982   7.4927807  68.3148727  33.1757812
   7.2483163  69.2050400  33.4289207   8.2208471  68.4308777  32.5652962
  74.1815033  21.9283447   1.9232373  74.4537506  22.8319168   2.0834520
  74.5344772  21.7217121   1.0578235  77.5954361  17.5279770  50.9867783
  77.3216248  17.1373920  50.1568947  78.0225601  16.8130131  51.4586067
  45.1788292  50.8398285  35.1187859  44.7366829  51.6380615  35.4078636
  45.9638824  50.7899590  35.6641655   7.8892784  58.3870773  71.8389130
   7.8934355  57.4566727  72.0637817   6.9848523  58.6646385  71.9845352
  55.9931946  10.4884892  15.2494345  55.6251640  10.6897421  14.3890381
  55.2435112  10.1972246  15.7684412  58.7492104  17.4831333  77.7547073
  58.8107910  16.5578537  77.9919739  59.4758186  17.8983974  78.2192841
  36.5198135   7.3340778  79.9236069  37.0498734   6.5572939  79.7450714
  35.8016701   7.2841725  79.2927246  43.3833427  44.6750298  29.3099003
  42.7847290  44.1785088  29.8678989  43.0005188  45.5513458  29.2681141
  70.7737427  47.2495041  66.5567093  70.3234253  47.9131432  66.0341797
  70.2820587  47.2165337  67.3773193  10.7072029   1.1144018  84.9735184
  10.2805090   0.2655141  84.8571014  11.6429510   0.9225942  84.9117279
  85.8623123  51.0648766  75.9461670  85.5073700  50.7401314  76.7736893
  86.0537262  51.9877167  76.1133728  33.0602875  66.5913849  21.5080891
  33.4406433  67.1716003  22.1675663  32.3203354  66.1769333  21.9518566
  40.1400070   1.4449238  33.9709206  40.8126373   1.5836127  33.3041611
  39.4658966   0.9298844  33.5275879  64.1132355  21.6012936  68.2179947
  63.4107018  22.2348919  68.3636856  63.8320465  20.8186741  68.6919861
   1.9118313  15.0616045  30.1631031   2.5785332  15.7406139  30.0597267
   1.4480238  15.0518942  29.3258324   6.3409734  52.2679100  48.0576973
   5.6611919  52.8239708  48.4383888   6.0364003  51.3744812  48.2166100
  48.8771172   9.7835970   9.8865824  48.7474442   8.8755617   9.6129255
  49.4611511   9.7248068  10.6426783  22.2299919  61.5309944  73.1181564
  21.7485275  62.2007904  73.6037445  23.1423225  61.6546249  73.3800812
  19.0749969  20.3034668   0.1339195  18.3161316  20.1004047   0.6808392
  19.0914516  21.2596321   0.0925755   7.6725154  63.2688408  30.4124603
   8.0624113  62.4095383  30.5731163   6.7994976  63.0756416  30.0707798
  64.0225067  46.3610916  13.5733299  64.4585114  45.6523247  14.0463915
  63.1409607  46.3904305  13.9451447  82.7291031   6.3082070  56.9636116
  83.0081024   5.3970594  57.0541801  83.4751282   6.7476935  56.5555229
  86.2348633  32.5407829  35.1910172  86.8747864  32.9292412  34.5945053
  85.7041931  31.9705620  34.6347160  66.7807465  52.5038223  89.3764801
  66.2984085  51.6773796  89.4004593  66.6080856  52.8566666  88.5035934
  13.0346823  14.7420301  23.0971184  12.6502848  13.8777380  22.9505939
  12.2858515  15.3381109  23.1102390  63.4922523  69.5812454  46.6107521
  62.6996193  70.0089951  46.2867203  63.3577232  69.5119705  47.5559120
  75.5827026  70.8335876  55.0485764  75.2577820  70.8036652  54.1487083
  75.4121323  71.7308350  55.3350983  70.6565399  49.4405060  28.3546677
  69.8952408  49.4355621  27.7744694  71.4060516  49.5270233  27.7656155
  79.6215515  25.9203606   1.4999150  80.3863220  25.3871937   1.2829093
  79.5002289  25.7933540   2.4408622  52.7753792  60.0460739  67.4604492
  52.6222763  60.5902634  66.6880188  53.7271805  60.0359077  67.5614319
  78.7359390  18.6826534  75.2291718  79.0651779  17.8422909  75.5479584
  77.9916229  18.8795986  75.7978897  64.8029709  26.6338215  14.6306419
  64.2906570  26.4878235  15.4259081  64.8185043  25.7812157  14.1958408
  63.9162560  61.9098854  37.2224846  63.5713387  61.7735786  36.3400536
  64.7238693  62.4062958  37.0899353  63.4076042  18.1684456  30.2682247
  63.3251190  18.5952911  29.4154472  62.9072304  18.7256470  30.8643646
  62.0539131   2.0686448  64.1439972  61.5368538   2.4765246  63.4493637
  61.9077644   2.6246643  64.9093170  45.3904953   2.0985479  23.8100910
  45.1026192   1.8101200  24.6762123  44.5847969   2.3613780  23.3651218
  77.6783905  21.5481567  54.4391937  77.1588669  21.3688183  55.2228775
  77.4875412  20.8162041  53.8526306  30.5125713  52.3448639   4.9709058
  29.7575893  52.4699326   5.5458765  31.2116928  52.0498199   5.5543518
  27.2486992  11.7896347  77.9970169  26.4998035  12.2465630  77.6141281
  28.0091534  12.1561508  77.5457916  61.3340187  21.6671791  35.2271309
  61.8488312  20.8787308  35.0552368  60.7696075  21.7568340  34.4592552
  44.2012634  32.8994980  27.9368572  43.5721512  33.2249489  27.2930164
  44.7632103  32.3029518  27.4423046  24.9083424  60.6221237   0.3563061
  25.1832161  60.1707535  -0.4417792  24.9699955  61.5522346   0.1387632
  85.1533737  23.7341042  17.0231304  84.9591293  22.8543301  17.3463955
  85.7835770  24.0864620  17.6515522  18.0607948  60.5320244   3.2632973
  18.7337551  61.0413361   3.7149153  17.9263191  60.9935455   2.4355614
  78.1008682  24.0835648  58.5522957  78.8062363  24.3158798  57.9483795
  77.5000229  23.5552101  58.0268860   7.8741007  29.8781910  77.2413940
   8.4721956  30.6236744  77.1887817   7.6535282  29.8131981  78.1705704
  25.4649601  17.2015381  82.8211670  25.2460613  18.1329498  82.8492126
  25.4607792  16.9268017  83.7380829  13.0662804  51.9727402   1.5165814
  12.6024790  52.7392921   1.8535140  13.1852083  52.1553040   0.5845091
  15.9300747  52.3207397  85.8292847  15.6529427  52.8696251  85.0956955
  15.5152082  52.7173843  86.5953064  75.5077286  54.1683197  17.9091015
  75.8710480  53.8851051  18.7481594  76.1778412  53.9345818  17.2668018
  34.0782547  65.5888977  37.1072922  34.7484779  66.0858002  37.5764618
  34.3703232  65.5942230  36.1957588  67.8777695  66.5601425  34.8670464
  67.4233856  66.6854401  34.0339355  68.2810822  67.4087524  35.0498848
  13.7489157   5.1913986  41.2467155  14.4068012   5.0379701  40.5685730
  13.3714209   6.0428576  41.0259285  22.7776737  32.5775185  24.4694977
  23.5961933  33.0140457  24.7055187  23.0463829  31.7066040  24.1770344
  66.0960159  64.6464539  87.2748260  66.1186981  63.7870331  86.8539810
  66.4874115  65.2381973  86.6322632  32.7224197  50.2234650  83.3546524
  32.7878075  49.8420105  84.2301254  32.3096313  49.5405235  82.8260422
  15.3685646  55.6064377  10.1838598  15.9684086  54.8717842  10.3131027
  14.4970636  55.2113686  10.2091312  61.5022545  31.2769337  37.2322388
  61.4123802  31.2119484  38.1829910  61.9159546  30.4533138  36.9739113
  79.9454193  70.3802185  77.6187210  79.8861237  70.2804260  76.6685867
  79.9804230  69.4835968  77.9520035  36.5524445   1.2451648  42.9247322
  37.2648811   1.7380522  43.3318291  36.8199539   0.3293758  43.0022011
  68.7889328  26.4409008  74.3787842  68.0525589  26.7495766  73.8508530
  68.8245621  25.4989147  74.2125854  60.8077660   3.0538039   8.5318050
  61.0825806   2.1676397   8.7672215  60.7856712   3.5266767   9.3637514
  86.4572220  36.5965118  66.6374969  86.7035446  37.4368324  67.0240479
  86.2760391  36.0313377  67.3884888  49.4866829  49.6464500  54.0476456
  49.2853470  48.9769669  53.3938217  50.0682602  49.2076607  54.6685028
  25.9340534  15.9614763  71.3364105  25.2111301  16.0634022  71.9554596
  25.5477467  15.5025425  70.5904999  21.0639458  17.5729198  22.8795643
  21.4098721  17.8690300  23.7215176  20.7818489  16.6723900  23.0398808
  70.5142822   7.7236896   3.4869232  69.7993469   7.5335178   4.0943217
  70.8397980   8.5810814   3.7610636  76.4466095  29.3973026  45.5378456
  77.0596085  28.7492294  45.1907692  76.9285049  30.2237511  45.5063362
  66.4184189  60.2840233  88.2693405  67.0397339  60.7230911  87.6884613
  65.5960770  60.7570572  88.1419754  71.4669952  52.5943527  52.8704033
  71.9020462  53.2847137  52.3700371  71.8301773  51.7804146  52.5213547
  68.3271713  54.1953278  21.7862873  68.4887466  53.8090134  22.6470356
  69.1805038  54.5292549  21.5096226  84.3484116  41.6127701  87.8644943
  85.0925827  41.9821320  87.3890762  83.5844803  41.8613586  87.3440704
  12.6878843  64.7511978  41.2112350  12.9561205  65.2394562  41.9896164
  13.4878540  64.3189545  40.9121628  78.5481720  26.3590946  26.2422256
  78.8406525  25.4868622  25.9778500  78.2276001  26.2433281  27.1366882
  42.5620689  51.6014748  84.9266891  42.1152267  50.7606926  85.0249252
  42.4679375  52.0239296  85.7804413   7.5122538  52.7782173  18.8088894
   7.3188043  53.6464653  18.4553986   8.4654303  52.7061920  18.7589073
  50.3834877  50.4298630  30.3072872  49.4754372  50.1455841  30.4115009
  50.8912926  49.8032684  30.8227959  39.2660446  25.0481911  84.6033630
  38.4457626  24.6635094  84.2945175  39.8945961  24.8643570  83.9052505
  30.7129726  69.8078995  55.1137581  30.2335587  69.3266754  54.4393578
  30.0849934  69.9071198  55.8293228  56.2254753  44.3760300  44.0444679
  56.4652863  43.5795708  43.5707893  55.5237274  44.1015282  44.6347504
  54.9380417  67.1477737  63.7665787  54.7195625  67.5012131  62.9042664
  54.9015274  67.9043579  64.3517990  62.1113472   4.5066009  31.9946766
  62.6573105   3.7978232  32.3349533  62.7006645   5.2590928  31.9427834
  83.4871063  52.0530243  88.7005692  82.5594254  51.9490662  88.4888229
  83.8436661  51.1657944  88.6567612  22.2693520  28.0863476  89.1523285
  22.2347641  28.7581692  88.4713821  21.7022400  28.4203606  89.8473511
  63.5992050   2.8158216  38.4314995  63.7593384   2.6290059  37.5064659
  64.0173569   3.6638734  38.5804596  21.3680229  32.0946159  87.2129059
  20.8166981  32.0420494  86.4321976  21.2423725  32.9871216  87.5352020
   4.3668308  52.7870750  86.3851929   5.2755036  53.0861168  86.4186478
   4.0948939  52.7441559  87.3019409   7.0034513  49.8228188  39.3761330
   6.8558364  50.6965675  39.0141869   6.3087177  49.7119293  40.0251923
  65.8517380  17.5905914  49.1615067  65.5702744  18.4957924  49.0287552
  66.6890411  17.6648178  49.6193695  50.5018578  66.8986282  22.6269894
  51.3610802  67.2677460  22.4227409  50.4345360  66.9614334  23.5797501
  17.3935032   1.2360933   0.4974609  17.7413311   1.5983295  -0.3174209
  17.4426937   0.2876288   0.3781822  62.0445290  45.6119194  88.1339035
  61.2312088  46.0391235  87.8651352  62.1230850  44.8574944  87.5500412
  39.9630661  11.3410645   5.1012740  40.0466499  12.2907343   5.0154066
  39.3396416  11.0928030   4.4186769  38.4096031  41.9833717  79.4565430
  37.6635971  41.4866905  79.1203613  38.3891907  41.8356361  80.4020538
   0.8468742  43.8425217  71.8365173   0.1673633  44.2281113  72.3895264
   0.3652736  43.4142799  71.1287766  65.5592117  33.4104118  51.0121155
  65.3794479  34.1588593  51.5811005  64.7203674  32.9544106  50.9439964
  17.9853611  65.0644226  39.7339325  17.6144314  65.1678925  40.6102524
  17.4668350  65.6513138  39.1835403  51.5607185  33.9822731  84.9498749
  52.4029655  34.2594948  85.3104248  51.5909309  34.2558441  84.0330963
  74.5091248  33.4711571   7.6699166  74.4911957  33.5099602   8.6261616
  74.0416336  32.6642342   7.4541426  17.0893211  12.9706812  88.7462234
  17.2046375  13.7867374  89.2330322  16.1516018  12.9348602  88.5574570
   2.2806547  30.0163536  48.8524628   2.0107162  29.7935009  47.9615631
   1.4593415  30.1130486  49.3344650  48.2616348  51.3862991   5.1037064
  47.5131531  51.6996498   5.6114635  48.1840553  51.8342781   4.2613702
  33.3333015   1.9631741  48.4550896  33.6248093   2.0561836  47.5481148
  32.9529343   2.8141267  48.6728783  73.7980118   4.5258427  67.4588242
  74.2649536   4.3644648  68.2786713  72.9303818   4.1465063  67.5986786
  68.7635269  55.5452881  27.5638485  68.3828125  54.6756935  27.4409790
  68.7459641  55.6827965  28.5109558  58.0193253  58.8683243  54.1761971
  58.8228722  59.3625641  54.3382645  57.7289276  58.5916061  55.0452919
  37.0838165  32.3947449   7.2377782  36.3078156  32.1300545   6.7438188
  37.8051109  32.3098145   6.6142797  48.5368500  65.8904495  16.5308399
  48.0138855  66.4379349  17.1165009  47.9653168  65.7287140  15.7802238
  54.6867180  54.6178246  17.5253639  54.7697945  55.4533615  17.0657883
  54.6132851  54.8586884  18.4488487  37.9123192  61.8291969  52.4310341
  38.4106331  61.3263245  53.0752640  38.3625412  62.6726646  52.3853149
  43.1085968  10.5132694   1.2374406  43.7288857   9.8407297   0.9560826
  43.3555756  11.2911701   0.7373371   1.1516181  48.5577164  77.7666626
   1.7318869  48.0028687  78.2878799   1.2157084  49.4212227  78.1746826
  69.7925797  69.4704285  68.0530396  69.5595932  69.9793472  68.8295364
  70.7495956  69.4815598  68.0376434   2.5780835  21.6738491   9.2987366
   1.9780185  22.2600670   8.8377571   3.4272161  22.1128654   9.2490263
  77.0708466  15.6752453  87.8116989  76.3441010  16.2356529  88.0837631
  77.0405350  14.9334917  88.4159470   0.7172993  15.6754007   2.9847622
   0.6166881  14.7327652   2.8522985   1.2859193  15.7502298   3.7511196
  23.2212410  44.8413124  13.9272270  22.3431778  44.7488213  14.2969303
  23.8099213  44.6627655  14.6605816  60.2640076  31.2772827  27.6276302
  59.4169540  31.2019672  27.1882496  60.8621063  30.7641125  27.0843372
  25.1616764  71.1753082  18.9675007  26.0551319  71.0550308  18.6457825
  24.6071014  70.8207855  18.2725220  75.0916367  23.6834087  42.1173820
  75.1596603  24.2624569  42.8765297  74.2361298  23.2645149  42.2115593
  49.8829651   3.7391133  19.6760597  50.0043983   3.1785593  18.9097271
  48.9365425   3.7476001  19.8190498  84.4840393  51.2154083  27.2974167
  83.7495270  51.6661072  27.7140732  84.1284790  50.3645706  27.0407314
  29.1203041  66.2792053  68.3046417  30.0454197  66.4299088  68.1105270
  28.9007778  65.4827881  67.8211594  79.6844254  31.6497898  39.1475296
  79.9920654  32.2207947  39.8514786  80.4496460  31.5291500  38.5852890
   5.4557090  11.8395138  71.6607056   4.8685684  12.0007830  72.3992767
   5.4511948  12.6598988  71.1675720  47.5906563  18.1264286  58.0621567
  47.9490395  17.5863571  57.3577995  47.6309738  19.0204830  57.7226334
  83.5788345  55.3222389  25.6604309  83.7739792  55.2659340  26.5958366
  84.3132935  54.8792915  25.2354584  13.6094837  50.8314590  22.1140289
  13.5341978  50.9164810  21.1635895  12.9731445  50.1547737  22.3451157
  16.5747471   8.0970545  83.2838440  16.9630947   8.9634933  83.4050980
  15.6895952   8.1795273  83.6387177  55.0318947  64.3212433  20.5940933
  54.9882088  64.8297272  19.7842979  55.2839851  64.9576187  21.2631989
  63.9945374  35.3768311  41.6250725  63.8220978  36.1723175  42.1287575
  63.1824455  34.8738441  41.6862640  50.9928436  31.6366653  56.4723434
  51.6862488  32.2811089  56.3305054  50.2029724  32.1603775  56.6067200
  15.0293903  57.6939926  86.9980621  15.8635006  57.9852753  86.6297607
  14.3662109  58.1411896  86.4722824   3.7321610  -0.0293328  56.6346703
   4.1816969  -0.6007088  56.0120316   4.1381989   0.8283208  56.5089912
  34.8381500  69.1850281  28.7071934  35.7089272  69.5084305  28.9382553
  34.7280350  68.3947983  29.2360020  32.3946915  53.7591591  82.0929794
  32.9434128  53.3101006  82.7360077  31.8793430  53.0611305  81.6887436
  61.8099327  50.6341362  40.7658348  60.9181976  50.3094254  40.8907433
  62.3698235  49.9024429  41.0254097   5.5804577  25.4572563  73.2555542
   4.7418523  25.8919144  73.4106140   5.4292331  24.9139614  72.4821243
  36.2519188  41.0963554   7.5517836  36.8805275  40.7904282   6.8979564
  36.7540894  41.6942596   8.1054707  68.0384140  11.0070553  54.0588837
  68.5665894  10.6666842  53.3367920  68.0151825  10.2930298  54.6959572
  21.6382065  49.7528343  61.8670883  22.5021362  49.5228615  61.5250854
  21.7566490  49.7828407  62.8164597  72.7249451  22.1736546  69.9611206
  72.4335785  21.6536560  70.7100830  71.9262009  22.3421326  69.4612656
  27.7891045   6.7423739   6.1727047  28.2762165   7.1742120   6.8744664
  27.6687546   5.8445621   6.4820299  68.0227661  34.5992889  69.6515350
  67.5757370  35.4249115  69.4651413  67.4504242  34.1525269  70.2752762
  17.4689445  39.9086876  66.6952667  18.1401482  40.1788750  67.3219376
  17.9599133  39.6473885  65.9162292  37.8298264   1.6810021  59.8819504
  38.1258125   0.8360285  60.2205429  37.3831787   2.0923705  60.6218948
  14.8738918   9.7826452  33.0950928  14.1042719  10.3505068  33.0570107
  14.7781744   9.1987343  32.3426857  57.9905853   0.5924821  51.3159714
  58.7616882   0.3772787  50.7912674  58.2720146   0.4592911  52.2211189
  74.8453903  16.9939156  49.7672729  75.0930862  16.2292213  50.2870064
  75.0044022  16.7294025  48.8611946  32.8029137  60.6291656  69.7001495
  33.2349815  60.4268875  68.8703156  32.3531342  61.4587975  69.5400085
  37.2892036  64.6864090  54.4061546  37.8305893  65.2845535  54.9212799
  37.1842003  63.9166260  54.9652977  44.8173904  13.4484911  55.1341591
  44.5308380  14.3499975  55.2804680  45.4159012  13.2668285  55.8587379
  26.9215069  45.5138779  21.8982430  26.3029995  44.9999428  22.4174232
  27.7545509  45.4251785  22.3612766  74.2773514  50.6340523  11.1456947
  73.9622192  51.4667397  10.7941875  74.8804321  50.3054962  10.4789314
  58.0484352  31.0782738  70.3521423  58.9839058  30.8754749  70.3533936
  57.9903450  31.9432926  70.7578506  32.7939911  10.1602726  57.3362160
  32.6540260  11.0355806  57.6974297  32.1745567   9.6042604  57.8088493
   7.5036149  13.6868429  88.5905685   7.1094737  13.1449547  87.9070206
   8.3664265  13.2987633  88.7361145  10.2281580  11.3068132  47.4754753
   9.3564949  11.0941563  47.8089600  10.0768766  12.0037231  46.8369904
   0.6339721  29.3167610  29.3683891   0.5703539  30.2105503  29.0317497
  -0.2126230  29.1571178  29.7855492  13.2789984  30.1405640  84.9497452
  13.0638371  29.4167919  84.3614502  13.7562532  30.7621727  84.4001389
  32.3703384  32.0049629  88.9614563  31.6876926  31.4631691  89.3572845
  33.1336403  31.4295807  88.9110870  28.9633598  68.3165283  20.6608486
  29.7467499  68.2725296  21.2091160  28.2351589  68.3004379  21.2818928
   7.9859667  40.5143585  40.4096260   8.7803116  40.2355957  40.8651924
   8.3036165  40.9443207  39.6156082  74.1800003  16.3615341  22.5590687
  73.3851166  15.9868975  22.1795502  73.9802399  16.4536018  23.4906540
  24.3304672  38.0422134  11.1066723  24.4910831  38.6645432  11.8159962
  23.5051327  38.3308411  10.7171202  47.6283226  53.8570099  40.0296898
  47.9448013  53.8345490  39.1266022  47.2593460  54.7342415  40.1324348
  26.4957600   8.5359697  89.2002563  26.0069389   8.4033880  88.3880310
  27.3061256   8.0420446  89.0754395  72.9062119  60.3391647  10.1832352
  73.2900162  60.9151535  10.8444204  72.0487289  60.7229958   9.9998722
  80.7457428  11.2687063  39.3911247  80.8749390  10.8841572  40.2581062
  81.5865021  11.6756182  39.1818848  78.3852844  66.3404846  40.9756889
  77.8907013  67.1572037  41.0433960  79.1576691  66.5703354  40.4591484
  61.3244972  23.9300346  76.1952972  61.6571274  24.4246521  76.9442596
  61.5378532  23.0188026  76.3962173  85.5672226  51.0384941  29.8602180
  85.1516724  51.0651360  28.9983368  85.8719940  51.9339371  30.0069542
  83.0417404  70.2635345  15.8940144  83.1741943  71.0604706  16.4074135
  83.1871109  70.5354691  14.9878407  11.4535265  35.9955444  35.5515366
  11.7885962  35.1600990  35.2259750  11.5084639  36.5850792  34.7994308
   4.5630975  26.7966633  30.0472069   3.7401142  27.2092190  30.3093681
   5.2265825  27.2166767  30.5945721  21.3721161   2.9017398  34.4249458
  21.9507027   2.1761026  34.6592941  21.0018291   2.6492774  33.5791435
  66.7384872  10.9866352  80.7666168  67.5463943  10.7953281  81.2429810
  66.4090042  10.1285334  80.4995346  67.1759186  65.3478088  68.5768890
  67.0757904  66.2920456  68.6978226  66.6530075  65.1490402  67.8001709
   9.7033453  40.0442238  72.2970505  10.6088314  39.7580833  72.1768341
   9.2091808  39.5593910  71.6360092  14.5751619  69.4761124  42.8601341
  15.0802002  70.2855301  42.7826271  13.8167086  69.7170410  43.3920479
  84.5215225  38.2539062  27.3732166  84.0905685  38.6800385  26.6323280
  84.5882187  37.3345795  27.1150970  38.7499809  68.5233154  15.2685909
  38.0823631  69.1607742  15.5219069  39.3001366  68.9898758  14.6394043
  70.7172318  35.4841423  28.6105957  69.8409958  35.1521568  28.4150791
  70.9989548  34.9811325  29.3746929   3.8563356  69.1142273  84.8671494
   3.0729346  68.5760803  84.9807739   4.5114236  68.5121002  84.5142517
  60.6983643  35.3712120  23.2269001  60.1806107  34.6245613  22.9257736
  60.6083908  36.0215721  22.5303593  49.9690056  68.1402512  45.5612144
  50.3920975  67.3282013  45.8401337  50.4838867  68.8329773  45.9750481
  21.1172543  45.4826431  69.6437912  21.2901020  45.3072128  68.7188187
  20.9239922  44.6233025  70.0185165  84.9026184  15.4970865  74.7589493
  84.0891113  15.3019381  74.2938004  85.2641678  16.2559719  74.3011246
  23.4868164  40.6755180  88.2827377  23.3954964  39.9355125  88.8829727
  24.4320412  40.8024521  88.2010803  84.3637390  61.6293068  59.5033913
  85.0900192  61.7789040  60.1086731  83.6254425  62.0958099  59.8952141
  77.8446350  36.5545807  65.0431366  77.1246719  37.1853485  65.0472870
  77.6665649  35.9928322  64.2888412   4.2447772   5.1261396   8.0550842
   4.8533120   4.4991136   7.6642442   3.6451313   5.3528724   7.3442755
  79.4906845  30.1640873  53.9183388  79.6548538  31.1070900  53.9130707
  80.0958633  29.8119659  53.2656555  50.6447105  30.5626965  77.6273193
  50.3515587  30.9875050  78.4334412  51.5341454  30.8902607  77.4937439
  24.4015846  57.2148247  13.8668756  23.4688702  57.2545204  14.0783014
  24.4326191  57.2587509  12.9111872  85.9162750  16.8576641  72.6718292
  86.0145493  16.2032967  71.9801788  86.7945175  17.2215023  72.7838516
  85.6744308   9.4957409  78.5426025  86.4172897  10.0938883  78.6239319
  86.0402451   8.7145662  78.1276550  76.9938660  48.3142471  65.7634048
  76.7350311  47.5832634  65.2022476  77.9448395  48.3651657  65.6669846
  54.0895576  47.5764771  51.1619492  54.0382156  47.4744453  50.2115898
  53.8429642  46.7189941  51.5085716  68.3830109  64.9719849  78.0441132
  67.4497986  65.0523605  77.8469162  68.6391296  64.1362534  77.6539993
   7.6734676  43.0723724  81.9156952   8.5777864  43.2639542  81.6672363
   7.2264380  43.9171181  81.8627396  53.5393486  65.9256516  51.3672256
  53.4101295  65.8962555  52.3152084  53.6844978  65.0132446  51.1168823
  62.4494553  35.7303238  76.4346619  62.7550468  36.6250534  76.2853165
  62.0800858  35.4599266  75.5940170  74.3518829  45.1566925  79.9272079
  73.9587479  44.4524078  80.4426270  74.0596008  44.9896202  79.0311661
  67.8505173  42.8969727  11.9578800  68.0268936  43.2797394  12.8173037
  67.6141815  43.6433754  11.4071903  28.3355103  14.8523397  85.3912888
  27.8833961  14.9577789  84.5542068  28.9447193  14.1286755  85.2449799
  44.7628860  71.4150467  89.1022110  43.8415756  71.3972244  88.8431778
  45.1195946  70.5891113  88.7753677   1.5271937  35.1374969  78.5722656
   1.8373355  36.0065727  78.8267288   0.9274726  34.8824463  79.2733459
  34.7731514  55.9736214  59.8292046  35.1458054  55.7171669  58.9856453
  35.4782677  55.8220825  60.4585495  12.4907913  54.9011536  22.8356304
  12.1886721  54.9630814  23.7417870  13.4420128  54.9908371  22.8936424
  60.9106483  17.9938755  36.7076492  61.5251389  18.3601170  36.0716515
  61.2711372  17.1331444  36.9207726  18.1390114   6.5986872  44.4097748
  17.3499317   6.9094715  44.8536224  18.8128967   7.2366295  44.6445999
  38.9762573  17.5192585  17.5362225  38.5346260  17.5917797  16.6900921
  39.3768883  18.3779659  17.6716671  44.7747498  35.5589333  20.9666424
  44.1209679  36.2572784  21.0000248  44.8798141  35.3736115  20.0334511
  32.6858063  63.7388840  17.4821911  33.0291367  63.0878448  16.8702259
  31.7920284  63.9026070  17.1812134  70.7028351  40.8435211  64.3507843
  71.2951889  41.2304039  64.9955063  71.2671204  40.2949295  63.8059349
   6.3784842  47.6923676  10.8443432   5.6902676  47.0705299  10.6079016
   7.1946812  47.2188911  10.6834927  20.8114090  36.7354622  72.3222122
  21.6448689  36.2648849  72.3105698  20.2011318  36.1529541  71.8700256
   6.2906642  48.8615608  13.4356222   5.7491779  48.3696404  14.0529079
   6.4419813  48.2532730  12.7122116   7.7334366   9.5809727  51.9370193
   8.2327442   8.7659159  51.8859673   8.3989058  10.2687426  51.9558868
   3.0870931  17.3085213  50.6034470   2.8636763  18.2386627  50.5694771
   3.5541401  17.1443043  49.7842216  63.6993942   4.1447001  22.0469856
  64.3319702   4.0723848  22.7617245  63.0819016   4.8146076  22.3405132
  34.5056190  49.4049492  16.2046814  33.9925461  48.7010422  15.8078165
  34.5171432  49.1956749  17.1386528  41.1251640   8.1606131  83.2667542
  41.7215424   8.6653690  82.7137756  40.2905846   8.1793852  82.7984009
  29.3851261  44.9049721  13.1982670  29.3800583  45.8296814  12.9510527
  28.5030384  44.7414436  13.5320511  62.7078972  30.9288387  66.5148163
  62.7135468  31.2148514  67.4282684  63.5425682  30.4743080  66.4009933
   0.8353574  51.4111137  44.9729271   0.0259603  51.8532333  45.2291260
   0.8479875  51.4692917  44.0175819  83.1124573  49.0677681  50.0273628
  83.7348175  48.4484444  49.6461258  83.6219635  49.8667412  50.1625366
  19.2644157   9.1681728  80.3521423  19.8197498   8.7099609  79.7213745
  18.4580727   8.6531229  80.3798447  77.8238449  15.2576208  13.4763899
  78.7229385  15.3117485  13.1524658  77.3082886  15.0040627  12.7107897
  21.6327972  66.8511581  75.7444611  21.3169880  67.5883865  76.2669373
  22.5862026  66.9336548  75.7655334  33.8355980  48.2016449  48.2315788
  34.1199493  48.4793472  49.1023598  34.1916771  48.8649902  47.6404686
   4.9219851  24.4751644  58.4141846   4.2299380  24.8786087  57.8902206
   4.8784919  23.5449104  58.1928978  13.8745527  55.2168846  80.7989883
  13.6821566  54.2800217  80.8378220  13.6583395  55.4687805  79.9011993
   4.9548655  66.6671906  24.8444252   4.4947429  66.2598343  24.1105461
   5.1076045  67.5685349  24.5607452   2.2991257  54.4533043  83.6113968
   3.2291043  54.4692421  83.8374939   2.1547084  53.5774994  83.2531586
  38.0832024  27.1426334   9.1129532  38.4132233  28.0308647   8.9774418
  37.6321907  27.1807709   9.9563789  27.4110069  47.5687447   3.0543103
  28.1672955  48.0083961   3.4428535  27.4844379  47.7491913   2.1171451
  68.9110413  45.8394012  37.5955353  68.3411560  45.8256912  36.8265877
  69.5375900  45.1322365  37.4419365  21.3690624  42.6212692  10.0772209
  22.1403980  43.0617180  10.4339800  21.1475220  41.9587135  10.7315702
  62.7275200  11.9378929  88.6618347  63.1886215  11.1210270  88.8524857
  62.2137070  12.1125422  89.4503326  45.2595901  47.9783516  31.6955986
  45.2313118  47.1421051  32.1604881  45.3700562  48.6324158  32.3856926
  27.6668396  61.2513428  51.4648056  28.5407677  60.9699669  51.1940460
  27.6870308  62.2050476  51.3856163  57.0511513  61.0100098  82.0688782
  57.9517403  60.8884277  81.7682419  56.5225945  60.9478149  81.2732697
  44.0209999  11.3709412  30.2146549  44.0828705  10.5468388  29.7316837
  43.2615242  11.8139019  29.8362179  38.4061127  37.9852867   4.4452624
  37.8355865  37.3885880   3.9608243  39.0632286  38.2602921   3.8058860
  70.7789230   8.3930988  55.5889168  69.9068451   8.3307142  55.9785538
  71.2960434   8.8741980  56.2349548  84.7874603   2.2175562  61.4467392
  83.9329300   1.8193352  61.2810898  84.6047058   3.1541345  61.5219460
  83.1574554   5.4894118  43.6696014  82.6224213   4.7701321  43.3340340
  84.0082703   5.3724637  43.2469177  83.7949371  32.7201920   7.9272285
  83.1481171  32.3888397   8.5501795  83.3784637  33.4876060   7.5349736
  43.0332947  40.5054817  89.0784149  42.7942696  40.1170197  88.2368698
  43.9343872  40.8046112  88.9568253   6.0350413  44.0460243  31.5139141
   5.3815498  43.8044510  32.1702843   6.8406353  44.1755943  32.0143776
  54.0140533  16.5056515  28.0401897  53.1360474  16.4238224  27.6678429
  54.4182587  15.6509724  27.8906059  70.0914536  43.2139511  45.8704948
  69.7318649  43.6246033  45.0841751  70.3806534  42.3495178  45.5783539
  27.2114983  52.3200989  36.7624931  26.2907257  52.3868752  37.0153809
  27.5756340  51.6627083  37.3553429  47.5044479  30.0556412   8.9899530
  46.6315536  29.7207069   8.7847624  48.0754013  29.6529827   8.3356495
  21.0582829  17.6712875  57.7137604  21.1871033  16.8508224  58.1896591
  21.8532696  17.7718525  57.1902008  69.3280411  19.4312038  80.8969879
  68.5669556  19.7221279  80.3946533  69.3699951  18.4873714  80.7431946
  50.6726112  40.1668243  86.2529526  50.6284714  39.6468697  87.0554047
  50.6280060  41.0746727  86.5530396  10.7615128   1.0143071  44.6645508
  10.2191362   0.4639762  44.0995789  11.1551294   1.6531106  44.0702209
  54.2341690  25.2161751  11.7240515  53.5733147  25.4862576  11.0864353
  53.7546005  24.6754189  12.3516083  45.6893463   7.9413624  82.6975098
  44.9833832   7.3378906  82.9291687  45.8398972   8.4508152  83.4937668
  48.0095367  59.7467995  72.8768539  48.5668793  60.4844131  73.1249008
  48.1106148  59.6788902  71.9274292  49.2117004  10.4426603  87.6081161
  49.1691399  11.3328209  87.9574509  50.1016808  10.1504078  87.8049850
  27.3059311  68.7943649  64.3419876  27.1596947  68.4733505  65.2318192
  28.2003460  69.1351013  64.3542633   0.1444471  57.7673569  17.4060535
  -0.1525487  57.3808441  18.2298450   0.9496154  58.2312546  17.6356907
  77.5548172  18.6515369  79.0910950  78.5104828  18.6966362  79.0610352
  77.3644257  17.7346764  79.2894592  85.6557922   8.5588284  54.7026215
  86.4634552   8.9805136  54.9960518  85.9289246   7.9963031  53.9779167
   4.3992405  23.9553528  79.2665558   3.6510782  24.0239925  78.6734543
   5.1640515  23.9844589  78.6917114  82.6553497  17.2702217   3.9727197
  83.4376297  17.6180496   4.4008389  82.9926147  16.6614876   3.3155100
  66.1503220  18.5293598  11.5514812  66.2205353  17.9978008  10.7585468
  66.4451828  19.3996334  11.2833157  53.5510216  56.5584946  29.5832901
  53.4966393  56.5642166  30.5389252  53.5652390  57.4837952  29.3386536
  79.5157013  12.7446623  -0.0374775  78.7927017  12.2590761   0.3596397
  79.9280396  13.2021170   0.6952882  50.4507446  69.9768906  39.2266846
  51.0289154  69.2708435  38.9378090  50.4272461  69.8923645  40.1798592
  59.0039062  54.8313408  71.1660919  58.5515099  54.0606041  71.5089264
  58.3017426  55.4020958  70.8539505  55.4296303  41.6956482   7.7359595
  55.9258423  42.2111816   8.3717518  55.8857536  40.8548279   7.7011676
  75.3961334  12.2888727  47.9170456  75.3486023  11.8420134  47.0718880
  74.4881363  12.3311415  48.2170181  58.8058777  22.5085125  13.3079643
  57.9168968  22.8600693  13.3565149  59.1370049  22.5699673  14.2039595
  24.7518406  63.0246811  88.3465118  24.0025558  62.7330093  87.8271561
  24.7426491  63.9784088  88.2655869  24.7956142   2.5064209  56.5759964
  24.8013439   2.8081670  55.6676216  24.3190212   1.6767199  56.5497665
  33.0634003  37.4023018  73.0501480  34.0103531  37.4601250  73.1773071
  32.7477837  36.9223824  73.8158493  26.8517876  58.6443520  54.7416649
  27.8060875  58.6416092  54.8160820  26.6845379  58.7943573  53.8112030
  27.1120529  66.2435913  56.4390678  27.3297939  65.3248901  56.2815819
  27.9205341  66.6263504  56.7797813  85.2258987  20.3066463  38.7573738
  85.4537354  20.8871727  38.0312119  84.6380463  19.6580353  38.3701248
  71.9471588   5.1103444  31.2589092  71.1161728   5.5838494  31.2975883
  72.5430527   5.6276860  31.8006611   7.1569390  56.3581467  13.8783693
   8.0116558  56.5978737  13.5202866   6.6107140  56.1993790  13.1085243
  65.7415848  50.9806519  31.0033989  66.3129044  50.2252350  30.8649368
  65.2466049  50.7649193  31.7937641  53.4020691  43.0731087  15.3017111
  54.3240929  42.8379784  15.1977148  53.2962685  43.2173691  16.2420444
   6.5904531  30.4150505  71.0591354   7.1184998  30.2129879  71.8315201
   6.8471389  31.3055916  70.8198013  52.7187195  27.6289272  16.6564674
  53.3002739  27.5160065  17.4083157  53.3092690  27.7486687  15.9127312
  73.9972382   6.3941059  32.7606773  74.6079865   6.2746506  33.4879646
  74.2527771   7.2287922  32.3679543  43.8263168  53.0112000  79.7498932
  43.5665855  52.3122559  80.3500977  44.3030624  53.6336098  80.2990265
  43.2995110  52.2292328  54.9379425  43.9192352  51.6198120  54.5369682
  43.0472488  51.8081970  55.7597275  29.7253056  61.2768898  11.5621691
  29.6365700  61.5228691  12.4829578  29.7680931  62.1109695  11.0944967
  42.3877678  35.6571770  69.3125305  43.1918411  35.9885292  69.7124100
  42.3147888  36.1375999  68.4878540  69.5288010  43.2291183  57.6453629
  69.2711716  43.3808823  58.5546646  69.8067093  42.3133850  57.6248093
  42.8957253  20.4180565   1.0549403  42.7291641  19.4761562   1.0911895
  43.4599228  20.5322552   0.2901737  39.0411110  47.1547203  13.0353680
  39.9418488  46.8418388  13.1190577  38.8018608  47.4349937  13.9187937
  56.0170441  33.4976006  79.8602753  55.9173241  33.5064392  78.9083252
  55.1661873  33.7833252  80.1928864  53.9255600  52.1221695  12.9854155
  53.6001625  52.9092712  13.4222412  54.8673248  52.2690544  12.8974524
  33.4785614  60.3037987  56.9818230  34.0755272  60.8334236  57.5103683
  32.6522751  60.3203354  57.4647369   5.4722414  27.0839233   5.1052299
   6.2910066  27.2831650   5.5592766   5.6947637  27.1369534   4.1757655
  46.5455284  44.6993561   5.7558417  46.6603699  44.2838821   6.6104903
  46.1314087  45.5397911   5.9518032  23.4548340   2.7129691  44.2790260
  22.8231602   3.3945453  44.0495186  23.7932777   2.4069254  43.4375839
  26.9423618   4.1904221  82.0234222  27.3794613   4.3497372  81.1868820
  26.3295631   4.9198747  82.1162033  57.6846733   6.4378247  36.8022804
  56.9416809   5.9040971  36.5206261  57.6485481   7.2132225  36.2422066
  66.6458282   4.0889568  50.7514801  65.7705460   3.8064556  50.4863205
  66.5678482   5.0362911  50.8642082  11.2954779  59.1530571   1.6695020
  12.1193371  58.7325363   1.9157721  11.2651148  59.0801010   0.7155694
  67.8776169  64.1001205  81.4651489  68.4438629  64.8482513  81.6545944
  67.7434540  64.1350479  80.5180359  33.6078491  43.4534454  80.1892700
  34.3923836  43.9958496  80.2701340  33.2611656  43.3994446  81.0798492
  22.1027603  56.0752945  47.7957420  21.9013309  55.1414948  47.8563652
  21.9216480  56.3006401  46.8832474   4.1709104   2.4495234  53.1641655
   4.2824426   3.2991264  52.7375870   4.2390270   1.8132973  52.4522591
  74.9009399   2.6489453  75.6227570  75.3556519   2.0309799  75.0503998
  74.9205322   2.2351332  76.4856644  64.8582230  22.1968079  50.4926186
  64.7899399  22.3967533  49.5590286  65.7968750  22.2312565  50.6769142
  66.5007019  68.0565643  65.4512177  67.4163666  68.3056335  65.5767441
  66.0021515  68.8121185  65.7623672  15.0422935  67.2809601  85.7127075
  15.6093454  68.0224380  85.5008316  15.6363649  66.5321960  85.7643280
  30.6526299  33.1471024  15.0324650  30.6073608  32.6404419  14.2216148
  30.1854191  32.6131096  15.6749573  63.6576042  64.8436432  40.1451721
  64.5344543  64.4961624  40.3083496  63.7881584  65.7868118  40.0471077
  72.9126282   5.7069612   5.9082856  73.3284912   6.1619039   5.1759496
  73.2041779   4.7992401   5.8230028   5.0148106  70.1907120  49.5703163
   4.7470303  69.8359909  48.7225533   5.9419060  69.9638443  49.6428299
  54.2182388  70.0579529  44.2221413  53.3226929  69.9789810  44.5507698
  54.6432915  69.2421570  44.4867973  82.0775528  52.4415588  38.0568695
  82.8759766  52.8687363  38.3671532  82.3823013  51.8049011  37.4103203
  27.2111263   9.7706614  68.4986038  26.5412388  10.2813997  68.0440369
  26.8060913   8.9146671  68.6380768  42.8325691  64.5249634  11.6477814
  42.3007736  63.7407532  11.5119839  43.5583496  64.4319992  11.0306673
  13.6616049  57.7250443   2.3929217  14.0668745  58.5120087   2.7571673
  14.1762352  57.0023727   2.7522731  78.0634537  49.9501724  34.8481903
  78.2691116  49.0208130  34.9493332  78.6454239  50.2496300  34.1497154
  39.1413841  14.9370022  45.2785530  40.0828896  15.0543108  45.1518974
  38.8313980  15.7922201  45.5764503  52.7626381  35.7519913  77.7774200
  51.9462090  36.1293373  77.4498825  53.3891640  35.8820648  77.0655365
  12.9906235  52.8864670  82.0199966  12.9428711  52.0244904  81.6065445
  12.1650286  53.3104897  81.7858353  64.3263245  14.8856449  83.2348175
  65.0808029  14.4055262  82.8935318  63.5733719  14.3381472  83.0122299
  80.4980927  59.8299065  11.6821156  81.1599655  59.4318237  11.1167078
  80.2958603  59.1526947  12.3276520  25.4212017  15.8983889  87.9951553
  25.3037300  15.1649952  88.5989532  25.5758228  16.6534977  88.5627289
  70.7870560  22.5046597  13.6689043  70.2749557  21.8025398  14.0701685
  71.6143494  22.0889568  13.4259825  30.4692898  42.1229172  78.7312698
  29.9569645  41.6138763  79.3594666  31.3435459  41.7345963  78.7646484
   5.4642262  35.0854645  25.5360718   4.5664072  34.8088799  25.3526173
   6.0048881  34.3493996  25.2494965  25.1322575  13.8584929   0.4431306
  24.1988659  13.7792463   0.6399330  25.4377365  12.9548779   0.3631685
  13.3688917  60.8300972  33.2881699  14.2651978  60.4941406  33.2868996
  13.3339300  61.4163742  34.0440063  23.8141880   7.6032128  52.3218384
  24.0659275   8.5113497  52.1540718  24.5962658   7.2044520  52.7033844
  22.7185688  64.3983154  70.5646439  22.4950237  65.1417618  71.1245956
  23.5335140  64.0573730  70.9332352  39.2867661  66.2799530  64.5903015
  38.7792587  67.0130081  64.9385834  40.1842499  66.6097488  64.5456924
   9.3734579  17.7391396  50.8044662   9.5339451  17.4510593  51.7030678
  10.2102337  18.1043644  50.5169792  20.0664368  66.9236145  66.9585571
  20.5249176  66.1042404  67.1446991  20.6302204  67.3763885  66.3313599
  25.2640991   1.0226730  45.9050102  24.6884193   1.7786771  45.7897682
  25.5480194   0.8004509  45.0183105  84.4482422  11.9565582  22.2504311
  83.7566833  12.0691328  21.5982838  85.2522888  11.8819103  21.7364521
  20.5650520  28.8778267  74.0310974  20.8314648  28.6114616  74.9110489
  21.2380047  28.5130291  73.4563904   2.6432889  45.1659775  22.4178696
   2.7758343  44.5287209  21.7160358   3.1140666  44.7993546  23.1663265
   4.7055712  52.3427849  82.1812973   4.8061934  51.6564865  81.5216827
   4.2632875  51.9100647  82.9116211  21.4983940  68.1474915  24.2942104
  21.1546288  67.5443420  23.6352215  20.7847919  68.2455673  24.9245949
  58.7960663  55.2557755  65.4401245  58.7615585  54.3174171  65.2543106
  58.9306450  55.6644630  64.5850830   9.2423735  40.9422646  16.0110321
   9.8460321  40.2096710  16.1340485   8.3966122  40.6085510  16.3102894
  31.8458939  64.3020554  87.3550262  30.9855461  64.5862961  87.0464172
  31.6662712  63.5225449  87.8806992  72.0870285  49.0566750   4.9727216
  72.2706375  48.2047234   5.3685679  72.4223099  49.6919746   5.6053481
  48.5162621  54.2082710  43.4850540  48.3483658  54.1571465  44.4260292
  48.9092903  53.3635101  43.2656441  66.5449982  50.2056770  75.5650101
  67.4225082  50.5876503  75.5476379  65.9669113  50.9425240  75.7627563
  29.6849194  66.4164581  57.0538559  30.5286217  66.5818863  57.4746094
  29.9114685  66.0904846  56.1828499  36.6710587  57.3346176  68.7049713
  37.0710907  56.4761887  68.5660400  35.9699402  57.3801765  68.0549011
  12.7178946  58.3112068  39.3294525  12.5095539  57.7478828  38.5841370
  12.9647675  57.7039833  40.0269966  10.4195929  28.8419857  79.0014038
   9.8818378  28.3417587  79.6152649  11.1943874  28.2972736  78.8627853
   1.2366868  11.7714195  48.0610504   0.6787149  12.5239744  47.8646851
   2.0773082  12.1551800  48.3106804  23.7713737  50.9049568  70.9648361
  22.9476299  50.4218063  70.8996887  24.2279205  50.7114906  70.1460800
  13.9881382  65.5890198  34.7418022  14.4133215  65.6689758  33.8879547
  14.1913939  66.4108505  35.1884766  45.7004242  48.9454422  85.5822144
  45.9344635  48.5943031  86.4413757  46.4495087  49.4864769  85.3324432
  24.3508949  63.1967621  73.9355698  24.5205555  63.4760780  73.0358887
  23.7088699  63.8258514  74.2646332  19.3624973  65.4420929  34.9540405
  18.6937103  64.7653275  34.8494377  19.9979801  65.0593643  35.5589485
  27.2313614   0.3101257   9.1403456  26.3585320   0.1903819   8.7660961
  27.3548489   1.2590954   9.1613054  81.7454147  45.7668457   2.2489307
  81.6418152  45.7580605   3.2004673  81.5621796  44.8667412   1.9797308
  84.6587601  71.6221771  24.4306717  84.7964478  71.2638397  23.5538216
  83.7076263  71.6353073  24.5374146  69.0649338   0.4829359  14.2703466
  68.3564301   0.1838064  13.7004528  69.0937805  -0.1632434  14.9759331
  62.0520325  47.6474609  26.5157032  61.3567772  47.3371811  25.9355488
  62.0704651  47.0101318  27.2296410  58.2589836  12.0552216  37.1225624
  58.7704811  11.2487402  37.1872940  57.5596848  11.8462667  36.5032501
  11.9318600  48.8073730  22.2906609  11.7692032  48.7681274  23.2331219
  11.0683775  48.6933746  21.8936291  68.6467133  10.2969780  35.8846169
  67.9126892  10.8788729  35.6875267  69.0821915  10.7056761  36.6326523
  77.5468445  31.3144875  74.9048309  77.5254364  32.0550690  75.5108948
  77.1100616  30.6057358  75.3771896  72.1168900  64.5119019  44.0413361
  71.5076218  64.2232513  44.7208252  72.3579712  63.7091446  43.5790749
  28.1268063  45.5880928  25.6063995  28.4344082  45.6128159  24.7003098
  28.9086685  45.7644920  26.1296654  47.0539627  29.6364994  64.4494476
  47.6085052  30.1478634  63.8601913  47.4351540  28.7585888  64.4353867
  14.5706959  21.1815872  29.5061264  15.4908047  21.0868092  29.2598553
  14.5189466  20.8099785  30.3867302  45.6081123   9.3878641  27.7870045
  44.9584808   9.6487751  27.1342106  46.2695847  10.0790462  27.7561874
  11.4214058  35.5521774  25.1910915  11.2744589  35.3778458  26.1207409
  11.7843161  36.4376068  25.1678848  49.3922501  51.4246292  64.3152390
  49.2253647  51.1525307  63.4128304  50.1728249  50.9341393  64.5728378
  17.0082703  20.7150021  63.7206268  16.6695747  19.8197956  63.7317734
  17.7366352  20.7032585  64.3415756  11.5186024   3.6621022   5.5288820
  10.8743067   3.1180284   5.9817605  11.4870987   3.3640845   4.6198030
  63.1578941  32.8080673  35.4050102  62.6334763  32.1823578  35.9047165
  63.7982674  32.2679482  34.9419479  20.9699383  69.3892517  59.5875854
  21.0707550  70.3352966  59.4824142  20.3079872  69.1455307  58.9405518
  38.0836411  35.9384880  22.4878864  37.4826012  35.2763443  22.1464920
  37.5136566  36.6419449  22.7985344  26.6725483  53.2179680  80.1046677
  26.6429329  53.0760193  79.1585159  27.5378609  53.5951996  80.2632980
   9.7582531  16.1380577  52.9521828   9.4638243  16.5382690  53.7703362
   9.6899214  15.1961222  53.1081352  42.2671928  27.7098389  78.8785782
  41.7960663  28.2868843  79.4796448  43.1918030  27.8826466  79.0559769
  16.0389881   1.8394754  17.8605499  16.0588226   2.1308684  16.9489975
  16.7099724   2.3660488  18.2949829  52.9325294  28.7016258  19.8164749
  53.6855164  28.1270008  19.6784668  53.0825882  29.4392471  19.2251797
  22.2010117  31.0935421  77.6821136  22.4807377  30.6509285  78.4834061
  22.3013268  32.0255585  77.8758011  18.5841198  40.0268440  31.3582935
  18.3363361  40.2243881  30.4550705  19.2595577  40.6718864  31.5679035
  30.5781612  68.5777130  36.3293610  30.0456963  69.3202515  36.6145630
  29.9433975  67.9366913  36.0093536  28.2810879  29.6002121  20.9230766
  29.1273251  29.2781219  21.2335167  27.6861115  29.4584751  21.6593800
  30.6412029  58.0350800  37.9453125  30.2882214  58.2953148  37.0944824
  30.8328457  58.8617744  38.3881187  39.8896217  66.8028946  50.4925461
  38.9326363  66.8067474  50.4726601  40.1098824  66.8150940  51.4239807
   2.3129518  66.7554855  80.5166473   3.0112426  67.0427170  79.9283295
   1.9384848  65.9867172  80.0865326  40.1722946   1.7344282  54.9841614
  39.3390617   1.4606599  55.3675728  40.5782547   2.2798584  55.6579056
  62.9997330  57.1442871  38.5894814  63.1280365  56.9265976  37.6662369
  63.3132172  56.3737679  39.0630455  27.4094429  62.3286171  72.7840500
  27.6132145  62.8687859  72.0205536  26.6043453  62.7071533  73.1372681
   0.2805052   0.9677726  61.1573792   1.0029138   1.5770442  61.3095169
  -0.5054677   1.4693075  61.3740387   2.7766898  27.5392666   5.7642469
   3.7106535  27.6571026   5.5908737   2.6381190  27.9486122   6.6183348
  25.9802494  41.0589561  10.6813488  25.2371578  41.4540672  11.1373444
  26.5085049  40.6686249  11.3776407  48.4068222   4.2888088  50.9763641
  49.2197113   3.8261509  50.7729263  47.9042702   3.6689222  51.5049629
  81.7305069  63.3442764  58.2654915  81.2765732  62.5293427  58.4801102
  82.2747421  63.5243340  59.0320587  67.2976379  10.1195374   9.5661840
  68.2182541  10.0150909   9.8065977  67.2948532  10.0879192   8.6095104
  74.2414932  50.0587769  75.8152466  74.3952408  49.8657913  76.7400970
  74.6904755  50.8909302  75.6663589   8.0278063  69.1226349  21.1851978
   8.7561674  69.7305069  21.3125286   7.4242430  69.5897064  20.6074505
  54.3582497  21.1296082  18.0571194  53.4259567  20.9163895  18.0171452
  54.5261078  21.6215744  17.2533627  73.9339142  46.5126724  84.4183044
  73.1161804  46.4239883  84.9078827  74.4079437  45.6999855  84.5945740
  46.6006622  69.2816925  52.4674301  46.4904213  70.0951462  51.9751244
  47.1479568  69.5257568  53.2138443  38.9920502  23.1890945  21.5092430
  39.4258118  23.5230694  20.7240410  39.2187614  22.2593842  21.5310211
  26.5361538  59.7591782  87.5866470  26.4224396  60.2943344  86.8012085
  26.2450256  58.8855400  87.3254318  60.0581093  71.6442795  78.7315903
  59.6114044  72.3811951  78.3148956  59.7489624  70.8751373  78.2529678
  78.4944229  41.3654060  60.9217148  78.8807068  40.5785065  61.3061714
  78.7975082  41.3619385  60.0137711   7.8837833  59.2723389  59.7727661
   8.3120832  59.2419815  60.6282616   8.5960131  59.1553688  59.1440544
  83.3353729  30.4255791  14.5950670  83.8225784  31.0542717  15.1276121
  83.3490448  30.7973824  13.7131329  84.0103760  24.9180660   3.9076836
  84.7455597  25.4887905   4.1313043  83.2404175  25.4831390   3.9716282
  84.1826324  39.3261108   5.4152150  83.8670349  38.7550468   6.1155849
  84.6490173  38.7394981   4.8197279   9.4254475  39.5373764  11.6180410
   9.5076084  38.8691940  12.2984905   9.9276295  39.1910591  10.8804035
  59.3137741  44.8187408  50.6101265  59.4543991  43.8959351  50.8219948
  58.8645096  45.1747208  51.3767204  86.0274582  35.6824646   6.5842071
  86.1878738  36.4705849   7.1032138  86.7501984  35.0964737   6.8089271
  55.3109627  25.9257812  75.0778122  54.4739838  25.8676891  74.6170349
  55.7531776  25.1011753  74.8760681  54.0825691  24.0036201  20.5496006
  54.5565643  23.9663677  19.7188320  54.6992760  24.4088783  21.1592503
  21.0513783   7.7551422  43.6564064  20.9240494   7.7652664  44.6050453
  21.5220165   6.9391146  43.4866104  62.1512299  58.7626572  46.1124802
  61.3307533  58.2871819  45.9822006  62.7453041  58.3996887  45.4555435
  41.3183060  50.0633926  16.8419209  40.5023460  49.8966026  16.3700943
  41.6728706  50.8540077  16.4351711   2.0333960  40.2589455  20.5784588
   2.4837739  39.5895042  21.0934753   2.2899506  40.0783043  19.6741467
  27.0582695  58.2429657  18.1445522  27.1933479  58.4530907  17.2205200
  26.5329571  57.4428635  18.1339245  40.5333443  55.6930809  72.2543106
  41.3922958  55.8652115  72.6400604  40.7266388  55.3631248  71.3768082
  71.4110413  22.9653492  79.3594589  72.2265091  23.3797016  79.6415253
  71.6921463  22.1963196  78.8636703   8.2814093  13.3325615  70.5998611
   7.6972532  13.7128077  71.2559128   9.1575308  13.6051254  70.8725357
  64.0846786  32.9562798  23.0039234  63.5564461  32.5062714  23.6632366
  64.9897079  32.7781219  23.2596912  53.3325310  32.7814217  87.7199249
  54.0682449  33.3694267  87.8908310  52.5812569  33.2133675  88.1264191
  22.8376369  68.1349106  19.4296246  22.6878967  68.9684067  18.9834366
  21.9773407  67.7156906  19.4490452  75.8615036  16.5076351  66.6587753
  76.3930664  17.2969074  66.5552139  76.1939545  16.0980682  67.4575043
  15.5755835  14.8447304  55.2823982  16.1264992  15.1270924  56.0124626
  16.0175304  15.1835060  54.5038452  -0.1514810  14.6097517  83.6007233
   0.3061284  13.8141804  83.3288879   0.5229309  15.2889547  83.5916061
  47.4707222   1.8069088  82.7067032  47.9271698   2.6447337  82.6296539
  48.0748405   1.1691777  82.3264771   5.1354671  28.1191578  60.6683693
   4.8590670  28.6560726  61.4110374   4.5910339  27.3338909  60.7247620
  64.2805786  25.4497929  40.4704590  63.6453590  25.9786301  39.9876938
  64.6567764  26.0531540  41.1112862  70.5013657  32.2650604  33.4788589
  70.6465607  31.5655251  32.8418350  71.3804855  32.5218430  33.7571487
  17.0725365  29.2897930  21.9286976  17.2992725  29.9274101  22.6056519
  17.5437832  29.5884418  21.1509018  15.2665472  23.9932404  70.2211151
  15.8187561  24.7637348  70.3539047  15.0953808  23.6661530  71.1042557
  55.7894287  68.8151779  51.1620331  55.1284103  69.4425354  50.8692627
  55.3768425  67.9596481  51.0433960  41.3010597   3.6916625  36.7624741
  41.4129143   4.4955850  37.2698479  42.0288658   3.6975868  36.1407852
  63.1855698  61.2692070  45.5918694  62.9787140  60.5129852  46.1410217
  62.3538513  61.7343178  45.5015793  39.7582092  56.2124443  14.8457794
  38.9646530  56.5654602  15.2481232  39.6207047  56.3257866  13.9053125
  73.4959335  39.8514595  60.2942047  73.3325653  39.3560944  59.4916115
  74.4306030  40.0556259  60.2635880  59.4145927  36.5441170  34.2353706
  58.7769470  36.6216431  33.5256996  58.9081306  36.2137871  34.9774017
  74.5334396  45.6587410  42.2307930  74.9970093  44.8224220  42.2744789
  73.6068802  45.4211426  42.2664223  45.5630798  10.1548405  75.9843826
  45.6758080   9.4431734  75.3542557  45.8671150  10.9353361  75.5211105
   9.8482609  51.8153763  23.0198517   9.0591764  52.3033791  22.7844219
   9.5489922  51.1712570  23.6615524  23.1792259  70.9149704  87.6593323
  23.0186615  70.0586624  88.0557861  23.7457428  71.3662262  88.2851562
  76.4607391  58.0518417  11.1059837  76.3652115  58.8392181  10.5701237
  75.6656418  58.0265198  11.6383495  63.4929886  48.8948669  62.6328430
  63.6517677  48.0261078  63.0020065  64.3289261  49.3515663  62.7270432
  81.1292267  56.6058846  30.3339806  81.4552917  56.1111488  31.0857449
  80.6279449  55.9676590  29.8264256  58.6769562  69.6620331  71.5718384
  58.9623070  69.5406265  70.6662598  57.7418861  69.8552551  71.5044556
  77.5063553  68.2162628  32.8588943  77.0405502  68.3740234  33.6800957
  77.8091812  69.0820541  32.5851593  83.5286484  53.3736916  19.5671139
  83.6820755  54.2400551  19.9440823  83.9864731  53.3936462  18.7267418
   0.4634361  10.9544249  80.3754425   1.0005744  11.2444172  81.1127472
   0.2891224  10.0304947  80.5548859  26.3043385  49.2814980  17.5800514
  26.6877594  48.7349586  16.8941097  25.4581757  48.8743477  17.7657051
   1.3423185  56.0065346  85.6952057   1.6642444  55.4080238  85.0211258
   1.8729703  56.7959099  85.5878601  28.3714752   3.9534850  84.5575180
  27.9484940   3.7380908  83.7262955  27.6486359   4.0378098  85.1793060
  75.7248230   0.2282025  42.8509331  76.4031906   0.6486930  43.3793640
  76.1835785  -0.0701885  42.0656052  77.6070099   3.4190314  39.2315178
  76.8720551   3.9728911  38.9682312  77.1999664   2.6021874  39.5201645
  11.5117664  43.3441391  57.9629135  12.1613455  43.4384842  57.2662239
  11.4923677  44.2006187  58.3898811  62.2939377  29.3969860  80.0914917
  61.5502777  29.5602760  80.6716080  63.0588608  29.4372749  80.6655121
  30.0495014  15.8813839  18.7954769  30.5111179  15.0597906  18.6277618
  29.7418365  16.1634102  17.9340630  26.6162720  12.8243790  33.1207581
  25.9484749  13.0423975  33.7709503  26.2503014  13.1286192  32.2902565
  11.9242496  19.0666008  31.1803894  12.6237373  19.3409863  31.7733994
  11.1604080  18.9550819  31.7463760  76.2873383  39.7854958  32.8514328
  77.2102280  39.8505440  33.0969429  76.2852631  39.8840103  31.8993187
  14.6296606  55.8910942  18.2350273  14.4386559  56.6404343  17.6709003
  14.0178890  55.9794235  18.9658928  56.8352737  53.3565292  31.5937462
  57.2659264  53.1035538  32.4103088  55.9012032  53.2462463  31.7714424
  49.9532089  60.2163506  14.6075230  49.0475845  60.4279366  14.8340311
  49.8811340  59.6334457  13.8517056   9.1843338   9.5447741  36.2153244
   9.1280851   8.8282633  35.5831223   8.2733307   9.7573013  36.4181480
  72.3473663  54.3391418  14.8098497  71.8600998  53.5571976  15.0694170
  73.1819534  54.0036201  14.4825602  58.0120506   9.3270006  82.1841278
  57.1998253   9.7947330  82.3784103  57.7258492   8.5069761  81.7817841
  10.4475908  13.3798275  53.9592133  10.3624182  12.6043501  54.5138397
  11.3786383  13.4164438  53.7400284  71.0401459  33.1330719  10.0961037
  71.6571732  33.7986908   9.7920237  71.5899048  32.4691086  10.5122118
  60.7650452  58.0912247   6.1676941  60.9344177  58.7765884   6.8140864
  59.9642181  58.3721504   5.7249899  41.7384071  45.0828552  88.3922806
  41.7688065  44.3492699  89.0064163  42.5881958  45.0621834  87.9522171
   6.9980054   1.7727011  32.5584221   7.5636721   1.6900474  31.7906857
   6.9408612   0.8844653  32.9105644   4.9584475  61.0327492  50.5658455
   5.3618240  60.4158287  51.1765251   5.2556591  60.7444344  49.7028465
  11.5446930  61.0784760  62.8937836  11.3275356  60.3912773  62.2638359
  12.3849468  60.8075294  63.2636375  38.4848595  61.5583649  58.2746887
  39.1638870  60.9156113  58.0697060  37.8130379  61.0577087  58.7375374
  73.0845566  33.0350151  28.9742012  72.8889847  32.2159042  28.5191784
  73.7995834  33.4239769  28.4705391  58.7589874  16.5531349  34.7817383
  59.2684021  15.7427616  34.7769775  59.1568375  17.0820751  35.4732361
  38.6361961  34.5010529  19.9362526  38.5008278  35.4485779  19.9465389
  37.8568077  34.1431351  20.3613186  84.0828476  60.3163414  18.2203712
  83.5794067  60.7758675  17.5483494  84.9514999  60.2043495  17.8341961
  74.5921936  21.7333317   5.1664500  75.3773575  22.2376404   4.9533162
  74.8670425  20.8194485   5.0922422  45.1706161  53.4464569  36.4033470
  44.3179512  53.0117264  36.4175797  45.0104904  54.3009987  36.8037872
   6.1382904  20.7797852   0.5786030   6.6289482  20.4330158   1.3237463
   5.9734783  20.0169163   0.0244371  85.1647720  41.2224274  51.2793732
  85.7341995  41.9730911  51.4481506  84.6765060  41.4643364  50.4924126
  29.4767265  36.1534462  13.6544895  30.3271656  36.0715141  14.0860825
  28.9377556  36.6405220  14.2777853  19.2073383   4.5480266  72.3883896
  19.5576248   5.2453918  71.8341141  18.2627697   4.5720286  72.2352676
  49.7297440   7.9206796  20.5439568  50.6021576   7.9964900  20.9304562
  49.1388855   7.8666291  21.2950859  81.3753967  17.5787926  59.8996811
  82.0154953  16.9067287  59.6654968  80.5976791  17.3577309  59.3873253
  70.2475281  15.9640713  75.5139771  70.3258972  16.8899803  75.7437210
  70.8049774  15.5121145  76.1473923   9.4402943   3.7298014  40.8519440
   8.6474161   3.9110763  40.3472519   9.1583099   3.1134260  41.5278130
  63.1966553  62.3777122  29.2286434  64.0055923  62.5165825  29.7211533
  63.1714020  63.0999527  28.6009808  19.6333199  64.2473145  52.2520676
  20.4547215  64.2019958  51.7627068  19.5221386  63.3687210  52.6153030
  24.2412682  67.3814163  75.5045547  24.3020210  67.8774796  76.3209229
  25.0814438  67.5302658  75.0707550   1.8557644  58.7939873  85.3253403
   1.9830817  58.6337280  86.2603989   1.0761855  59.3476448  85.2811966
  85.4130478  68.7891998  81.8258591  84.8432465  68.3610535  81.1869202
  84.9340439  68.7287369  82.6523743  18.3528633  40.8166809  28.8386097
  17.7078094  40.3240356  28.3312283  18.3838844  41.6755257  28.4171200
   4.5212803  57.0559959  70.3201752   4.5425792  57.0202599  71.2764664
   3.7729259  56.5110741  70.0767365  37.1036186  61.1753273  61.7127724
  37.7323341  61.8502426  61.4569664  36.2477417  61.5666771  61.5379715
  25.0605774  50.5132637  85.3735886  24.8017902  51.4340935  85.3370438
  25.7034664  50.4730721  86.0816269  16.4198933  38.3024864   9.8501492
  16.6172276  37.3855057  10.0410223  15.4692535  38.3251228   9.7405853
  38.9363632  17.3953285   1.5038177  38.5278053  16.5433731   1.6570656
  38.6355591  17.9395771   2.2315137  49.7868614  67.6474304  86.1305466
  49.0956764  67.2998352  86.6941757  49.4669228  67.5000153  85.2405243
  36.7115479  14.1180820  17.5229416  36.0124664  13.8200026  18.1048908
  36.3702583  14.9217348  17.1306438  50.2614021  32.7467766  21.5349331
  50.8645515  32.0035248  21.5309830  49.8408928  32.7094231  22.3940067
  34.7625618   2.3496845  77.4955444  34.7153206   2.1394215  78.4281693
  35.6878929   2.2466226  77.2733536  27.6020203   9.7264252  54.9998665
  28.5174580   9.4585238  55.0800743  27.5942173  10.3341217  54.2603531
  25.4078770  56.4157524  10.9821482  25.2584438  55.5176811  11.2777319
  26.2190800  56.6790810  11.4167032   0.7545112  57.4715958  61.4042320
   0.1394695  56.7442398  61.3098412   1.0715587  57.6339989  60.5157852
  12.6847143  30.3738689   2.8715756  12.1837559  30.2447338   3.6769304
  13.2639999  31.1108150   3.0654080  18.6920624   5.7912426  41.8269424
  18.7198544   6.0778761  42.7397957  17.9540348   5.1828594  41.7892952
  34.2627602  61.8005142  40.8586273  33.7828903  62.1586189  41.6054344
  33.6499596  61.1881790  40.4514999   5.4370713  18.8522148  69.2547760
   5.7310958  18.4558182  68.4346237   4.9535546  18.1550350  69.6979294
  70.5931015  34.3939323  47.7276764  69.8183594  34.7199135  48.1856575
  70.7571335  35.0424156  47.0429916  31.9900875   6.3212199  61.9568214
  32.5345993   6.0414567  61.2209740  32.1593094   7.2599497  62.0367050
  85.9927597  71.3756256  66.8788376  85.8782349  71.8145905  67.7217102
  85.6947556  70.4791870  67.0332108  42.7261314  35.6482697  15.9113111
  41.9765129  35.2509003  16.3544807  42.8987846  36.4500084  16.4049091
  83.1422729  17.6500969  35.5342140  83.6828003  17.3307552  34.8116570
  82.3882904  18.0571728  35.1075592  78.2986221  28.9046059  32.7366905
  78.1853790  28.1677074  33.3370132  78.5418854  29.6382904  33.3012810
  75.8916855  13.1064253  83.5700531  75.7375488  13.7700500  82.8976822
  76.6025696  13.4646349  84.1016159  10.5585155  36.4323502  76.7339935
  10.0067291  36.0673981  77.4257812  10.2068624  37.3100853  76.5851517
  78.2976913   7.2837873   4.2215772  78.8027267   6.9687595   3.4719543
  78.9579773   7.5854912   4.8454618  77.3118057   9.4176626  57.9411850
  77.1021652   9.7936983  57.0862694  78.1303329   8.9421005  57.7994576
   4.4379821  63.2886238  59.1538811   5.1588578  62.7018738  59.3825607
   4.3231506  63.8399353  59.9278946  69.4450531  63.8037643  25.6697273
  70.0367813  63.1154327  25.9735088  69.7576904  64.0176392  24.7906666
  40.0979614  45.2474213  24.3778954  41.0377502  45.1804695  24.5468464
  39.8002281  45.9501915  24.9555645  15.6492481  43.4399719  82.2577972
  16.1060238  43.0014458  81.5399628  15.7056999  44.3713112  82.0441360
  79.5211334  49.1385727  59.6278572  80.1551437  48.8902168  58.9551201
  78.8339539  49.6026611  59.1496925  46.1751060  41.0189056  75.5137634
  46.1196022  40.2275009  76.0493317  46.3328056  40.6969261  74.6262436
  34.9603195  53.3337250  75.1772232  34.7672729  52.6240387  74.5645981
  34.6018257  54.1160698  74.7581177   2.7868268  23.2260513  28.2372456
   3.4957147  22.6255226  28.0068684   1.9922624  22.7854729  27.9359322
  47.5623055  10.9718275   6.4507031  48.4100800  10.7341976   6.8262634
  47.3085442  10.2093515   5.9306378  67.6731033  56.6138878  62.4239655
  67.0510254  57.0579491  61.8477211  68.4452133  57.1796494  62.4242821
  46.0429306  26.2245197  19.3214836  46.8198166  26.0321999  18.7964211
  45.4077682  26.5673313  18.6927681  59.8575821  65.3488159  72.0350418
  59.9000893  66.0350723  71.3690948  60.4227257  65.6641464  72.7403183
   6.2142229   3.8372345  73.8134995   5.9356985   4.5449533  74.3946991
   6.4569840   4.2776709  72.9990616  71.4137573  45.3098717  22.5304527
  72.0479507  45.6704903  23.1501160  71.9392471  45.0505180  21.7735977
  84.3157883   4.2669063  14.5167389  83.8497925   4.6202397  15.2745237
  85.2174225   4.1583762  14.8192530  85.6854324  44.0406494   8.9262085
  84.8711014  43.8421059   9.3884592  86.2793884  43.3313828   9.1719494
  12.3157711  32.8865013  84.7692337  11.8535786  33.1557083  83.9754181
  12.1942921  31.9377956  84.8070374  68.9069138  32.5029564  79.5543213
  68.9429092  33.4319458  79.3264771  69.5332336  32.4078979  80.2719040
  14.6067524  49.1325684  15.2263632  14.6158047  49.8253975  15.8867722
  14.6661816  49.5967979  14.3913832  86.8632584  67.7304382   7.8537765
  87.0303574  67.1516495   7.1099286  85.9122467  67.7139664   7.9611664
  43.7789536  35.2872429  11.3419313  44.6325645  35.3709373  10.9169893
  43.2878799  34.6902542  10.7774105  60.1856003  29.5020065  58.9259262
  60.4255028  30.2193451  58.3393250  59.9042625  28.7983284  58.3411903
  67.5391006  55.2269287  85.4277039  67.5348587  56.0336761  84.9125671
  68.1958694  54.6750565  85.0030670   3.1843531  27.7948399  50.2803802
   3.2876027  28.5635586  49.7194481   2.5228686  28.0536442  50.9220085
  42.3802338  15.1049757   1.4478170  42.4347458  14.6314373   0.6177437
  42.3463326  16.0276737   1.1954052  84.7333832  25.1299667  24.6312904
  84.3591537  25.8614750  24.1402950  84.3984146  24.3492126  24.1903286
  38.3914833   4.5944405  29.5928249  37.5330963   4.9354153  29.3415394
  38.2057800   3.7374725  29.9766903  19.4184761  52.3373795  17.4030933
  19.9324951  51.8180923  18.0214424  18.7382278  52.7443810  17.9396038
  70.4760818  32.3559761   7.4195194  70.4403305  32.2916451   8.3738852
  70.2994003  33.2784271   7.2348576  67.5430450  44.8464661  28.0399055
  68.0514374  44.9594421  27.2367840  67.7432632  43.9554863  28.3267784
  67.5864944  34.5209579  74.5803146  66.7508011  34.6335106  74.1273422
  67.7899551  33.5910263  74.4800110  55.6789360  66.2817078  54.1072617
  55.9091110  66.1337814  53.1899986  55.9072304  67.1974945  54.2667961
   9.1636086   7.8213205   3.4430308   9.6829624   8.5551691   3.1144440
   9.3597956   7.7893176   4.3793631  30.8422260   3.2348704  60.3095970
  31.5761547   2.7881875  60.7315674  30.2574291   3.4683099  61.0305367
  85.1836624  12.6181164  80.6433945  84.4952011  12.1006851  80.2256393
  85.9321213  12.0236597  80.6950150  85.6837845  71.0786057  74.3312531
  85.8490067  70.2156830  74.7111130  86.4635162  71.2630539  73.8075714
  75.2785110  15.3470869  47.6012459  75.7396393  15.7077446  46.8439369
  74.9773941  14.4862089  47.3106422  46.8486862  53.7657776  53.6041641
  46.1679955  54.0229530  54.2260590  46.9911079  54.5462685  53.0686455
   8.9921618  23.7035275  71.3215790   8.7766886  24.5016575  71.8040619
   9.0913925  23.9916134  70.4141693  73.1250610  22.1405811  74.5989227
  72.4579086  22.5970993  75.1114883  73.9250107  22.2248802  75.1177750
  50.5487938   3.1772144  33.3801689  50.1007004   2.3519626  33.1946907
  51.4418411   3.0412645  33.0635986  84.1468887  60.6241531   3.5984752
  84.8565063  60.1495705   3.1655183  83.8684921  60.0442848   4.3073301
  51.0590477  65.8203354  88.9395599  51.5651131  66.6277542  89.0301666
  50.1477318  66.0967407  89.0362091  76.1517029  61.4451065  59.3287277
  76.1050262  62.1326714  59.9930382  75.2793045  61.0512085  59.3300056
  10.7205887  68.4870071  17.9378529  10.7878866  68.9190826  17.0863724
  10.5481777  69.1985092  18.5545158   2.6300731  59.4781494  45.1909599
   2.5323141  60.4118500  45.0042000   2.1559000  59.3472023  46.0120850
  50.0880051  57.4830170  71.2306290  49.3551865  57.9768257  70.8627090
  49.7648048  57.1680489  72.0747681   9.1953220  69.3136520  47.7736168
  10.0006790  69.6376724  47.3703308   9.0185013  68.4869156  47.3247490
  31.1557789   2.4989257  64.5763321  30.8019466   2.4488292  63.6883430
  31.8043804   3.2017448  64.5364151   0.1334456  39.8066444   3.9872754
   0.2441284  38.8921814   4.2475400   0.7781245  40.2840157   4.5095196
  64.9904861   6.9388599  54.3338890  64.9794540   7.5278592  53.5794449
  64.1806793   6.4345217  54.2558708  48.7606850  24.8795185  21.8911800
  48.7797813  23.9225845  21.8791618  49.1294518  25.1157684  22.7423134
  79.0624466  29.2612133  43.7048912  79.8193817  28.6757507  43.7275543
  79.3018951  29.9848022  44.2839546  57.7901649  48.9051437  82.5608368
  58.3084488  48.1201096  82.7378769  57.1960793  48.9735146  83.3082504
  56.3718719  66.7456512  21.8779869  55.7584229  67.1861115  22.4661293
  57.2175941  66.8107452  22.3215466   4.9609437  65.7740021  42.4438400
   5.5779219  66.1051331  41.7912140   4.3194456  66.4771271  42.5454292
  83.0798187   7.5183663  50.0954666  83.8727341   7.9466581  50.4180870
  83.3993454   6.7612438  49.6046486  49.7045975   4.7580662   1.0569572
  50.3387527   4.2410312   0.5602111  49.7607613   5.6350088   0.6774191
  85.1183472  17.5767498  29.2523098  84.4386673  18.2422886  29.1458740
  84.9328156  17.1788254  30.1028767  75.4568863  61.1375999  80.2624893
  76.4030914  60.9954529  80.2893677  75.2705612  61.6579895  81.0439758
  58.9893494  56.9461823  63.2000198  59.1387291  57.8676300  63.4118080
  59.4317055  56.8185501  62.3608170  82.0691071  43.6330528  30.4915009
  82.7137909  42.9262848  30.5246544  82.3336411  44.2315025  31.1901512
   6.9316187  58.7484894  52.4921455   6.1638255  58.2653275  52.7975616
   7.4120994  58.1193275  51.9540672  27.6615391  61.8336296  82.2660980
  28.5090580  62.2724800  82.3392487  27.4487705  61.8775177  81.3338776
  79.4467697  71.1868515  25.6533279  79.5824661  72.0971527  25.3903198
  80.3299942  70.8385162  25.7750664  16.7789822   8.0384636  80.6142349
  16.6389542   8.2305508  81.5414505  16.1446743   7.3502049  80.4137726
  62.6474495   5.5320258  62.4589615  62.2710762   5.6070347  61.5820656
  63.5925636   5.4959674  62.3116684  73.7862625  70.1490326   8.2576361
  74.5431671  70.6896210   8.0315952  73.0432510  70.5954895   7.8516340
  49.7186699  26.8309021  56.0699043  49.0918236  26.8451653  56.7931557
  50.5740776  26.9060516  56.4928246  25.6704063  64.0686264  32.6877861
  25.3185501  64.9520798  32.5784836  25.9485130  63.8111382  31.8088169
  57.0112534  18.8333931  86.3799820  57.1900635  17.9607773  86.0295486
  56.1875687  18.7355003  86.8576736  13.7122231  64.8082199   4.0725002
  12.9147205  65.2406921   4.3777637  13.7277813  64.9723434   3.1296036
   2.7112045  29.8708706  11.7078447   3.1044397  30.7277756  11.5425844
   3.4246409  29.3459053  12.0706806  34.0643692  46.2928467  12.9062996
  34.9600067  45.9754486  12.7908726  33.5296822  45.6973228  12.3812323
  59.9481773   4.4809208  33.5788155  59.5375748   5.3344541  33.4405441
  60.8287697   4.5771871  33.2161560   9.0222454  17.5063381  39.9243507
   8.9637938  17.0601826  39.0795059   9.2767401  18.4025879  39.7048073
  41.3772659   3.7107019  78.7158661  41.3927917   3.8704591  77.7722244
  42.2917366   3.5464158  78.9460526   7.9018879  17.1377430  80.5502701
   7.5862908  16.2622242  80.3264465   8.7497301  16.9871254  80.9682541
  52.4051437  61.7010040  22.9939842  53.3399124  61.8542786  23.1316299
  52.0285492  62.5770264  22.9103832  12.3228989  25.3334656  30.1787529
  11.3964767  25.5536518  30.0813274  12.3922710  24.4378529  29.8481522
  84.6327667   1.5690790  49.9171867  84.7237320   1.4452076  48.9724045
  83.7261581   1.8524882  50.0353966   7.5223150   4.8027358  71.5054321
   6.9563732   4.1749449  71.0561829   7.1054473   5.6512012  71.3552322
  75.3959122  70.7513351   1.3165752  75.5237122  70.2914581   0.4868699
  74.6098709  71.2799149   1.1788427  15.1003599  44.6580048  33.0409775
  15.4738178  44.2683601  32.2504463  14.3113089  45.1066513  32.7370911
  42.3202362   8.4601603   7.7484093  41.6126709   7.8434954   7.5605073
  41.9245605   9.3231525   7.6262774  65.3067093  19.4251423  21.8143005
  66.1682968  19.8397465  21.7695122  65.1519089  19.0981483  20.9281044
  15.6589613   8.1002626  26.7599201  16.1059856   8.8845778  26.4417210
  15.0816746   7.8450370  26.0403156  58.5428238  46.1560631   7.9308248
  59.0701828  45.3851242   8.1400614  57.6958809  45.9859886   8.3431292
  22.5226460  18.0050220  80.4810486  21.5758266  18.1071854  80.5776291
  22.6263695  17.4589996  79.7017365  69.4365005  13.0291014  30.3134499
  69.6255569  12.8856964  29.3861275  68.5930939  13.4817152  30.3187370
  14.6317940  15.2210054  85.2597733  14.2534599  15.5272865  84.4355850
  13.8887100  15.1730995  85.8612442  41.1870079  17.8717785  80.2116089
  40.7181091  18.6411266  79.8883972  41.5492096  17.4640579  79.4249649
  13.8611250  61.4761276  57.6932907  14.6467752  61.8391190  58.1022186
  13.7394485  61.9999542  56.9014359  71.4943314  69.9738770  40.3045158
  70.9718399  70.5000458  40.9098091  71.5679932  70.5153580  39.5186386
   0.3461236  61.0032616  73.1033554   0.5883956  60.1523705  72.7379532
  -0.4484574  60.8297081  73.6080856  20.3189487  26.8737831   8.3971395
  19.8592625  26.9839458   7.5648031  20.6862183  25.9909534   8.3528986
  66.3736649  63.8042183  52.4940147  65.9368515  63.0282860  52.1427956
  67.0740204  63.4557304  53.0456352  34.3044319  34.1854248  73.1083450
  33.4850616  33.7706528  73.3781967  34.0319023  34.9924812  72.6717453
  43.5307007  18.0444508  22.4286575  44.2690430  17.9542065  23.0311050
  43.1583443  17.1644268  22.3726311  19.7176819  13.2881441  16.3862553
  19.0943985  12.5622997  16.4162617  19.1987724  14.0375042  16.0939808
  13.4585495  54.3642120  54.9650612  12.7307177  54.2658119  55.5789070
  13.8440161  53.4898872  54.9084663  76.6550751  47.1796951  13.0495224
  77.4484863  46.9369659  13.5268307  76.6567841  48.1368866  13.0531282
  55.9026718  29.2175407  81.3562546  56.1223030  28.6140671  80.6464539
  56.4517288  28.9363861  82.0881805  30.7613983   8.5552444  75.5795059
  31.2188263   8.7704763  76.3923187  30.8765240   7.6099076  75.4829788
  14.5935059  46.0831375  63.0488968  14.9525995  46.4608536  62.2460213
  15.2319813  46.3078423  63.7257233   9.0393305  21.2189255  27.3918362
   9.5172091  22.0458641  27.4553604   8.5264683  21.1760635  28.1989098
  69.7301254  18.1856213  29.3428917  70.2209854  17.3679638  29.4248943
  69.2799301  18.2799320  30.1823330   0.8905529  11.4698725  74.9132462
   0.8949504  11.5306063  75.8685074  -0.0268117  11.3162689  74.6872330
  75.5045700  61.9777794  67.4168625  75.3631058  62.7471466  66.8652267
  74.7293625  61.4347725  67.2739182  23.6589603  56.6096802  66.9649887
  23.7666206  57.3879585  66.4182510  24.0136433  56.8644257  67.8167801
   5.4746852  65.8079376  86.6854553   4.5179996  65.8392410  86.6832657
   5.7080612  65.6807404  87.6050186  85.1790466  13.6761131  27.3500195
  84.4921341  13.5296345  26.6996918  85.9581757  13.8815680  26.8333168
  82.0273361  28.1602249  24.4291687  82.2337265  27.2988701  24.0662575
  82.8265152  28.6714706  24.3019657  26.5903130  26.1663914  24.5866089
  26.3723984  25.5245838  25.2625008  26.8070030  25.6397800  23.8172207
  47.5026054  23.2236252  55.8015900  48.0847664  23.6647491  55.1829376
  46.6641769  23.6752758  55.7052383  73.2663498  45.7143211   1.6777586
  73.8760834  45.7586670   2.4142942  72.6646957  46.4449692   1.8205756
  15.9173651  38.1690636  24.5357533  15.3288774  38.0042496  25.2724686
  15.4784317  38.8502922  24.0263405  61.0509682  40.5547752  43.6933403
  61.6651917  40.3609314  42.9852524  61.5771561  41.0142097  44.3477707
  70.0221100  48.9183083  54.7572327  70.5789948  48.1502380  54.6300392
  70.5300522  49.6448593  54.3961868   5.2458782  53.9163780  29.2145081
   5.1388454  53.0204124  29.5339127   6.0856614  54.2005844  29.5753727
  63.3697395  54.3664780  77.6454849  63.2798309  54.6753540  76.7439651
  62.5169563  53.9851074  77.8541718  41.5329285  25.5411873  77.5162582
  41.6950951  26.2416401  78.1481628  40.7023659  25.7783146  77.1037445
  52.0711060  60.0190163   2.7116170  52.2384987  59.2987671   2.1037929
  51.8356285  60.7570534   2.1494024  19.1316395  26.4024792  64.7385483
  19.4459209  25.4987888  64.7669296  19.7863083  26.8992615  65.2293167
  46.7493782  11.3867693   9.7161274  46.5960846  11.4877062   8.7766886
  47.4901810  10.7834101   9.7744579   9.3468437   0.2959800  75.1629257
   9.4419136   0.4703764  76.0992966   9.9704952  -0.4082665  74.9859314
  72.7149658  70.4358902  78.3238602  72.4358826  69.8776169  79.0495834
  71.9464417  70.9701233  78.1233749   4.1210670  48.2697449  87.9887772
   4.5432835  48.5734215  87.1851883   4.8470044  48.0335732  88.5662460
  76.0253677  50.6854897  64.5831146  75.7922440  50.3664436  63.7112770
  76.4925537  49.9549751  64.9884796  56.1532707  69.7723923  70.1422272
  55.9833946  68.8336411  70.0640335  55.5001526  70.0825500  70.7694931
  46.4528084   1.7555393  16.2262573  46.0312767   2.5971224  16.4002705
  46.0675087   1.1576829  16.8668385  63.6771927  60.9923210  24.5953369
  64.4857788  60.8944550  25.0981693  63.0519600  61.3645210  25.2172546
  82.4619522  49.5169334  26.0799408  81.6580811  49.9274292  25.7613373
  82.1830673  48.9976273  26.8341141  10.9016886  37.4249344  59.8307457
  10.6974192  38.1018562  60.4759445  11.1339216  36.6577110  60.3538818
  79.5257645   5.4077835  61.0564423  78.7058029   5.7218885  61.4375458
  79.9687805   6.2007442  60.7544785  61.1564636  48.4219627  83.5656433
  61.0177956  48.3156509  82.6245346  61.8062019  49.1214905  83.6344910
  53.2397652   1.9961029  63.0807953  53.0837708   1.5810905  62.2324677
  54.1695213   2.2233434  63.0689087  78.0972672   0.2307364  15.6163340
  77.8073959   0.5060080  16.4860649  77.5344238   0.7146801  15.0119801
   0.8445143  67.8087387  43.1215363   1.0974404  66.9266663  43.3939629
   1.6732833  68.2458344  42.9257851  54.3480911   9.4926214  41.6107597
  54.6440926   9.5738068  42.5174141  54.8781891   8.7827473  41.2483978
  23.1042709  27.1671104   6.1552544  23.4407692  26.7672100   6.9571776
  23.8711777  27.2488613   5.5883298  15.7580709  56.4913330  74.4782639
  15.2726326  57.3158493  74.4508743  16.3386440  56.5298424  73.7182083
  25.8687267  65.2383270  39.1243896  26.0127926  64.8251419  38.2730598
  25.3870583  66.0405655  38.9228134   0.8481252  64.2588501  13.8560982
   1.6758363  63.9833488  14.2500868   0.5209615  64.9431305  14.4400110
  76.6293030   0.2670321  36.8489037  76.1765823   0.1788516  36.0101547
  77.5088577   0.5644644  36.6162262  16.8358879  53.6104813  41.5203323
  17.3694248  53.8456154  42.2794647  16.4009914  52.7970009  41.7759514
  41.9960365  21.3891068   8.8081684  42.0216217  21.4563465   7.8536758
  41.5267372  22.1739349   9.0910673  81.3354645  42.3762283  49.8568268
  80.5396957  41.9153595  50.1225166  81.6660233  41.8736763  49.1122475
  67.7375641  48.9053154  78.9150467  67.4601822  48.0060043  78.7403107
  68.1466904  48.8660889  79.7795105   4.9485130  29.8234138  81.3401184
   4.7016101  30.7216320  81.5602875   4.9938979  29.8150024  80.3840332
  43.8844414  41.7480736  72.2595291  43.4617081  41.5130959  73.0855560
  44.7347412  41.3097382  72.2924423  54.2753792  20.7400780  70.5541153
  54.2892609  19.9674339  69.9892578  54.4933243  20.4049015  71.4238205
  17.3957462  15.4381895  68.4239349  17.6931667  15.8432970  69.2385864
  18.0808277  14.8059320  68.2068024  27.3795376  50.6902199  65.7495499
  27.5809841  51.3988190  65.1383667  28.2307663  50.3066139  65.9604797
  61.1762314  64.5019913  15.9903212  60.8855515  64.3327637  16.8864803
  60.7861519  63.7961655  15.4746838  20.2755051  58.0356827  64.1794434
  20.6753483  58.5825348  63.5031967  20.8970757  58.0615692  64.9069138
  52.4772339  22.4486427  69.2976990  53.1115265  21.9436836  69.8065414
  51.8571434  21.7960033  68.9724579  62.2651176  64.9209824  35.2748032
  61.8470955  64.9069901  36.1357880  61.6430397  65.3844223  34.7140274
  30.2445259   8.3516846  12.1809874  30.4335289   9.2493916  12.4541779
  31.1049061   7.9637055  12.0214558  85.4771194   8.1384945  47.3554993
  85.0684738   9.0035267  47.3245010  86.0405350   8.1119127  46.5821419
  52.6912575  24.2939720   5.0237117  52.3302002  23.5293274   4.5751719
  53.6360474  24.2294827   4.8842587  53.8646812  64.5028458  81.2824097
  53.2703781  64.6580276  82.0165405  53.4175148  63.8477097  80.7466125
  58.8824959  33.4210930   1.1936440  59.3945618  34.1337929   0.8114433
  58.6399040  32.8733482   0.4470786  38.9117470  19.4340363  25.8228874
  38.3982697  19.5412655  25.0222168  38.3560638  19.7945728  26.5138741
   8.2073784  41.7940750   7.8581123   8.5516968  41.5151253   7.0096650
   7.9348888  42.7011452   7.7195177  86.1910095  14.6444492  77.5448837
  85.7526627  14.6488495  76.6939621  86.5451508  15.5290003  77.6364441
  82.9239349  30.8716621  74.1933289  82.0551376  30.8866501  73.7918396
  83.4211349  30.2471428  73.6651230  83.2288666  37.1957779  45.7425842
  82.2933426  37.3704376  45.6399841  83.6036911  37.3856163  44.8825264
  47.5472336  30.1100826  11.7035704  46.7187462  30.2613735  12.1584892
  47.3272285  30.1825981  10.7748232  43.2545853  49.7860298  19.9134541
  42.3575401  49.9239464  19.6092854  43.5672722  50.6613922  20.1419277
  38.1608124   1.1943079  57.3162575  37.7842712   1.6350594  58.0779572
  39.1008606   1.3619016  57.3830032  86.0564728  19.4407825  22.7370167
  86.5006790  20.2439995  23.0085869  86.2513580  18.8124790  23.4323444
  10.4255781  25.4560299  65.8206329  10.1406593  26.0079231  66.5489655
   9.8924837  25.7435627  65.0794449   7.6173334  16.2690868  88.2207489
   7.6720090  15.3438845  88.4600067   8.1791534  16.7141457  88.8551865
  83.5963516  23.9966316  31.3497162  82.7398529  23.6924839  31.6499577
  83.7938385  23.4462032  30.5919170  65.0680084  21.0576668   4.3787546
  65.6241150  21.8145924   4.1942472  64.9255524  21.0900364   5.3247409
  17.5934811   2.7539623  50.8768234  16.9579029   3.0851974  51.5112953
  17.4345684   3.2703719  50.0866966   1.5260161  54.5393715  20.7754974
   1.1466546  53.9536247  21.4306431   1.7116921  53.9728851  20.0265961
  53.2714462  59.4165497  11.0041876  53.0445061  59.2963257  11.9262915
  53.9769020  60.0634460  11.0135221   0.2950106  57.7331696  80.2780533
   0.9693547  57.3548012  80.8422623  -0.5246779  57.5780830  80.7474060
  42.9523926  27.5878925   3.4825692  42.7138748  28.4613838   3.7929795
  43.6051598  27.2801991   4.1114211  86.8660507  47.3565254  72.7118149
  86.6510849  48.2086945  73.0910645  86.4861450  46.7214622  73.3189392
  74.2693024   8.3148909   7.0086617  74.0825882   7.4406419   6.6665258
  73.8951340   8.9109488   6.3598576  60.1961403  70.7314453  64.0064392
  60.9199219  70.1178131  63.8806381  60.2597885  71.3323288  63.2640686
  61.6317024  67.2215195  76.8996201  61.8943443  68.0895081  76.5932693
  60.8104019  67.3711853  77.3679123  35.6418304   6.3428268  12.0099936
  34.7208595   6.5462575  12.1732712  36.0031929   7.1484628  11.6404009
   1.8379287  42.3211632  87.0683899   1.0223578  42.5706635  86.6338501
   1.6914586  42.5302353  87.9909286  14.8574076  69.9710159  64.6830750
  14.0017614  70.2671738  64.3726044  14.7759361  69.9612808  65.6367493
  56.6107559  10.0536146  66.4338684  55.6884193   9.8043451  66.4920959
  57.0083809   9.3747206  65.8886871   7.5287323  45.1474838   4.8919616
   8.1428175  44.9620247   4.1815147   8.0462198  45.0400124   5.6900144
  22.3468666  15.2510433  45.2079544  22.9629154  15.2131004  45.9395828
  22.8057289  14.8216343  44.4859543  37.2359276  24.0720901   6.1440258
  37.1684875  25.0160942   6.2873449  36.5511131  23.6963177   6.6972485
  41.2068558   8.0594397  23.2820168  40.2907410   8.3367996  23.2757320
  41.6751022   8.7695160  22.8429604  30.8341541  67.0655899   2.2266831
  30.5563488  67.1341705   1.3132539  31.6874275  66.6337509   2.1857414
  30.1035347  52.6665611  57.3953323  30.6153584  52.5767517  58.1991997
  30.7188644  52.4516029  56.6943398  73.4184494   3.1113102  29.9369812
  72.8540192   3.7388911  30.3884182  72.8151703   2.5687542  29.4291172
  64.8012009  68.5401459  28.8299866  65.4436035  68.4594116  28.1249828
  64.1495285  67.8656616  28.6386147   4.6481366  21.4692421  59.0610962
   5.0069394  20.6811714  58.6531296   4.8336987  21.3617191  59.9939613
  86.6076431  49.5656700  85.9181747  86.5866623  50.3577042  86.4552689
  87.2596664  49.0067863  86.3409653   2.5800617   6.3720236  40.9333687
   2.6220503   6.9205523  41.7166862   1.7491393   5.9036016  41.0132484
  35.1159477  65.8972549  40.2734375  35.2567444  66.6246872  39.6674232
  35.8400497  65.2961731  40.0984726  65.7485199  38.9456482  85.0634308
  65.8316193  37.9932747  85.1114731  65.0611725  39.0936356  84.4139099
  54.9613113  17.8242493  56.1515121  55.2492676  18.6241474  56.5913696
  54.2812424  17.4680653  56.7232399  43.1152382  70.7723694  22.9435368
  43.7131767  71.1176605  23.6064663  43.5705147  70.9136505  22.1134796
  77.8824463  38.4919205  73.5204697  78.6677780  38.7227936  73.0243073
  77.6646347  37.6074867  73.2262497   8.0764532  36.9628716   9.3167334
   9.0063343  36.9203033   9.5397606   7.6600704  36.3325043   9.9045219
  43.4594460  54.4318123  23.5649891  44.1420250  55.0716324  23.3626251
  42.7348557  54.9549408  23.9078274  62.8823776  31.8491974   4.4213948
  63.1468086  31.3286285   3.6628993  62.8735962  32.7513046   4.1014585
  75.0119247   6.2427764  41.4222946  75.5813217   5.6352315  41.8944244
  75.5859222   6.9691715  41.1791840  43.5039711  52.7036591  21.4897995
  44.3406143  52.2694054  21.6561909  43.3813248  53.2833557  22.2415581
  64.5073242   6.1703162   9.0933971  63.8381119   6.8276362   8.9028320
  64.4736938   5.5711122   8.3477068  63.7874069  68.4892273  15.6534605
  63.6995811  67.7557755  16.2622032  62.8890152  68.7813416  15.4991837
  60.5270271  60.1055412  42.1673775  60.4159889  59.5109024  41.4255524
  61.3986969  59.9038734  42.5076065  85.2111359  18.6962643  20.2945404
  85.2277374  19.1447792  21.1399918  84.2850113  18.5096970  20.1405354
  11.4099417  33.9230919  49.5076180  11.0832834  34.1901093  50.3668213
  12.3627243  33.9389725  49.5980911  71.3767929  10.5066223  24.4892502
  72.1328125   9.9809647  24.7506924  70.7946396   9.8868618  24.0496750
   5.7594390  -0.1765127  75.4455566   5.3122034   0.6477687  75.2537994
   6.4806461   0.0712543  76.0240936  22.2446194  39.9637375  59.6324234
  22.0203075  40.7023926  60.1983757  22.7881260  40.3462143  58.9435539
  57.2987289  13.3944559  46.9118996  58.0341644  12.8266306  47.1419868
  57.6887589  14.2628508  46.8119087  29.6730747  12.1193628  44.1180344
  29.3396740  12.6085587  43.3658600  30.6252079  12.1695004  44.0334091
  74.3163605  69.3775253  40.9605637  74.5579300  69.6318893  41.8511696
  73.3679276  69.2532043  40.9959030   5.9354520   8.3616037   4.9719543
   6.1977329   8.9351664   4.2519083   6.7562718   7.9853415   5.2896233
  75.0142136  57.4860992  18.9097118  74.1517181  57.8488045  18.7077866
  74.9230347  56.5470924  18.7478981  40.1530495  64.4364471  44.7325325
  41.0621681  64.6641159  44.9272232  40.0385742  63.5641289  45.1096077
  53.7095451   0.3239183  50.5216637  53.7411003   0.0746846  49.5980186
  54.4494400   0.9206898  50.6341209  75.4344711  22.2653008  10.2147655
  74.5231171  22.1170006  10.4670992  75.3814468  22.8476086   9.4569139
   3.5533025  37.9106941   5.2772360   4.4213042  37.5072212   5.2808275
   3.5840633  38.5514107   5.9877076  71.5698929  31.9147987  46.6482697
  71.0819855  31.1195393  46.8621292  71.2473145  32.5679703  47.2691917
  60.5089455   9.5359526   3.7547994  60.7862816   8.7763290   3.2426610
  61.2577362  10.1314650   3.7246618  32.6489067  62.3402481   2.7302914
  32.6230125  62.0019951   3.6253600  31.9106846  61.9163475   2.2926049
   1.3928252  54.3958778  24.8592224   2.3193362  54.5016785  25.0751286
   1.1082406  55.2694092  24.5905495   1.4356219   1.8786168  47.8695374
   1.0383352   1.7087916  48.7236786   1.1488686   1.1474433  47.3223724
  68.2435074  32.7752075  18.2827168  67.6181717  33.4838676  18.1310959
  67.7607574  32.1384659  18.8097324  54.7411919  46.0136757  76.2901001
  55.6354790  46.0105209  75.9488220  54.2664680  45.4055061  75.7235336
  82.1684418  56.9636307   8.1702185  82.7167664  57.3031769   7.4629097
  82.5856171  56.1398201   8.4222822   8.7622728   1.8957869  65.4573059
   9.5709600   1.6213615  65.8896790   9.0406427   2.5628655  64.8298111
  60.0594635  56.6766472  77.8265228  59.4538269  57.4176140  77.8064194
  60.8477020  56.9996719  77.3899841  26.8543110  67.5266418  62.0357399
  26.5684414  66.6632919  62.3342972  26.7429771  68.0930939  62.7992668
  43.0001183  37.0826111   5.0926385  43.3881340  37.9492607   5.2134395
  42.1920776  37.2475815   4.6067452  14.2667818  39.0605011  33.8163567
  15.0308418  38.8747330  33.2705193  14.4691381  38.6527672  34.6583977
  49.8372726   5.9020934  46.3659439  49.0630722   5.3396106  46.3874207
  50.4557800   5.4811654  46.9630203  46.6519585  15.7558870  28.4702301
  46.0628548  15.9199972  29.2066116  47.1032715  14.9438896  28.7009048
  10.1752148  26.8220119   1.7563014   9.5879450  27.3423767   2.3045423
   9.6119356  26.4740448   1.0650221   2.3345506   0.0588149  73.8928299
   2.8663416   0.2936012  74.6532974   1.9773653   0.8914683  73.5840607
  82.0561066  26.5530720   4.6442347  81.9778976  27.1061459   5.4215522
  82.2935028  27.1588497   3.9421597  58.6706161  30.2170944  38.0430717
  58.1699295  30.9352875  37.6561089  59.4180908  30.6443501  38.4613609
   7.0385590  59.9480171  13.9692125   7.8249507  59.8460999  13.4330854
   6.4856811  59.2050896  13.7271042  28.0672283   6.7592640  61.8548927
  28.8105297   7.3592639  61.9160194  27.6208267   6.8443542  62.6973419
   4.2292776  21.1264744   3.9878922   4.4869699  22.0481701   3.9704549
   5.0246611  20.6602268   4.2452068  -0.3161192  38.1246452  73.4254227
   0.1163099  38.8300133  72.9440765   0.3349116  37.8373947  74.0656433
  41.9583321  54.1460419  45.5070686  42.5091820  53.5999527  46.0679436
  41.0986328  54.1306725  45.9276848  12.8720083  48.4721107  58.3058434
  12.3761063  48.6090660  59.1130333  12.6560192  49.2287178  57.7607536
  22.6540623  41.7051659   7.6232085  22.2111492  42.1060448   8.3711090
  23.5782566  41.9205475   7.7485404  61.2406235  14.1967354  18.7550163
  62.1523514  14.3448429  18.5039330  61.2811890  13.9769468  19.6857567
  49.3293648  24.7233162  25.0450783  49.8992500  23.9553471  25.0040779
  48.7065964  24.5224094  25.7436714  76.9111710  34.1113472  33.5030670
  77.7764206  33.9809189  33.8910980  76.5440750  33.2299957  33.4345551
   6.6534519  61.7109108  67.3406448   7.0599504  62.5737534  67.4212036
   5.7129216  61.8887138  67.3362274  13.2683840  64.6056900  72.9864655
  13.0853739  64.8946533  72.0924683  14.0323620  64.0352020  72.9021225
  59.9939156  52.9443207  48.9326706  60.1041756  53.8683739  49.1567268
  59.1555023  52.7010689  49.3252602  50.1693153  61.4463387  32.7065201
  50.4477501  62.3347740  32.9287567  50.9011612  61.0838013  32.2073174
  68.0906143   5.5545545  37.9986992  67.8614655   6.4148092  37.6470108
  69.0433044   5.5784807  38.0883789  30.5127926  20.1092281  88.0922852
  30.9655933  19.3255558  87.7807388  31.2085152  20.7552032  88.2144241
  63.3321037  46.2430878  34.4758949  62.5574188  46.7393379  34.7401543
  63.3173828  45.4629097  35.0302773   8.0587740  29.9843044  16.1377640
   8.7981205  29.7301598  16.6900406   8.4399595  30.1055832  15.2681541
   7.6924200  64.3921814  21.4297771   7.0454168  64.3726425  22.1349277
   7.5047174  65.2017746  20.9548588  23.9545212   2.3411825  11.5385923
  23.9372482   1.4202893  11.2780361  23.9391804   2.8242023  10.7123423
  71.6008987  66.9031296  33.5283585  72.5338898  66.8265915  33.3285828
  71.5644836  66.9627686  34.4830055   8.5496483  40.2851982  53.5023232
   9.2349625  40.6132736  52.9201355   8.1667223  39.5465126  53.0290947
  69.1964417  29.5766048   3.0651922  69.5621414  28.7067165   3.2257900
  69.6828461  30.1533871   3.6542280  56.1023483   5.7235565  67.3539581
  55.8523178   5.9897299  68.2387543  55.5360222   6.2390790  66.7797241
  45.6276588  31.9860306  13.0953331  45.8074570  32.5303917  12.3287973
  45.9665337  32.4924431  13.8335361  23.6055279   0.2615648  48.4267616
  23.2774200   0.6180905  47.6012497  24.4403973  -0.1461527  48.1965637
  27.3601437  65.1354675  75.6182709  27.9539146  65.6739197  76.1414642
  26.6998253  65.7496567  75.2973633   4.9313049   0.6956919  38.6841660
   4.5893946   1.5792952  38.5478783   5.4002738   0.7461694  39.5170822
  15.2676849  31.0819149  88.6203690  14.3163290  31.1264076  88.7161484
  15.5036011  31.9029999  88.1886368  57.2984886   4.0082359  15.5419283
  57.4220848   3.5922635  14.6887445  56.4749985   4.4887500  15.4570665
  40.2686882  36.2599983  10.2749748  40.1319008  35.4322433  10.7357845
  41.0658951  36.6210670  10.6626863  82.1361313  40.2628098  44.3155975
  82.7567215  39.7150803  43.8348808  81.4272919  40.4246368  43.6930313
  61.3595161   3.4327259  50.8813667  61.6040726   3.1343608  51.7573853
  61.0763474   4.3383861  51.0071716   9.2539759  62.3100700  49.0534477
   9.0080309  62.6480713  49.9145508   8.4245558  62.2269707  48.5829277
  33.8622360  11.8560600  49.6492424  33.3126259  12.3155069  50.2841225
  34.3707848  11.2387505  50.1751137  55.7471428   8.8999262  85.9326401
  56.4964104   8.8041868  86.5205765  55.0144615   9.1119604  86.5109558
  55.1336098   5.3414669  45.2318077  54.4111786   4.7197585  45.3201485
  54.9819794   5.7664666  44.3876419   7.9709063  21.3858013  68.6183472
   7.7912703  20.8074703  67.8770676   8.2096710  22.2216606  68.2176514
   2.7531121  19.2968292   8.1447449   3.4170334  18.7430401   8.5555458
   2.7207582  20.0797882   8.6944370   6.8259897  46.5722885  78.1075439
   7.5297647  46.9067535  77.5516052   6.0903411  47.1623688  77.9436569
  62.5479774  50.7176781  84.5083694  63.0177879  51.4974594  84.2126389
  63.2155876  50.1856422  84.9413376  82.5968704  31.5371666  83.7230072
  83.1701126  30.7962112  83.9195023  82.9361877  31.8910789  82.9009094
  24.2814503   3.2329621  53.9501534  24.8707809   2.8536386  53.2982063
  23.6552486   3.7446592  53.4380302  41.1981430  20.1669769  69.7498169
  42.0109329  20.6163921  69.9813995  40.5055466  20.7394981  70.0796051
  13.2768335  36.2998276  78.2623138  13.0546227  36.8709602  77.5270157
  13.6848841  36.8821602  78.9031067  85.7968826  63.3526459  16.6873150
  86.3780670  63.9951515  17.0942993  86.1682053  62.5049934  16.9319324
  52.0724297  71.4762039  53.9080620  52.8546143  71.3880386  54.4527168
  52.3842545  71.8985672  53.1076851  83.1374969  49.3174324  39.0848083
  84.0215530  49.5902824  39.3302193  83.2714691  48.6288185  38.4335861
  20.8809185   3.7471068  68.2209167  21.3500862   3.6849279  67.3889008
  20.6973400   4.6809578  68.3231583  27.6651421  35.8450584   9.9894009
  28.1576691  35.9660263   9.1776037  28.0261230  35.0451698  10.3716307
  44.8326073  54.5327988  55.4287224  44.6802864  55.3776512  55.8521080
  43.9856224  54.0886726  55.4687500  57.2488785  20.9557495  75.2744064
  56.7278671  20.1599483  75.1672440  56.8654137  21.3924751  76.0349655
  58.4792595  57.2241745  73.4551849  59.1763725  56.5731239  73.3751755
  57.9079666  56.8802032  74.1418762  33.1244888  56.5469971  27.4934311
  32.2085609  56.5720177  27.7703400  33.1120110  56.0624924  26.6680031
  73.8092880  26.9129848  48.2688751  73.7144241  27.4797707  47.5033760
  73.2371674  26.1673927  48.0872192  51.2033768  13.1130219  66.9216309
  51.6908531  13.9281902  67.0403671  50.8981628  12.8863373  67.8000870
  36.5940323  40.4546852  31.1166782  36.6801834  41.3625641  31.4074821
  37.3293724  40.3241615  30.5179558  60.3235664  10.3877420  72.0374451
  59.5941429  10.9480028  71.7723312  60.2328224  10.3097820  72.9871368
   1.3473831  37.1924210  39.1991997   2.0774870  36.9247322  39.7573395
   1.5056095  36.7460327  38.3673744  52.3410339  13.3117466  23.5439873
  52.4331093  13.3169680  22.5912399  51.7329521  12.5942440  23.7219200
  67.7922134  57.0073280  83.2488174  67.7050247  57.9340324  83.0255508
  67.2761307  56.5512314  82.5840836  65.5208130   3.8850293  83.6874924
  65.3405609   2.9507284  83.5834579  66.2272720   4.0632396  83.0666962
  58.8327789  66.9844284   1.2130576  58.6547203  66.3000717   1.8581781
  59.7870903  67.0033798   1.1411855  67.1214676  52.8364143  34.3389206
  67.6940842  52.1316185  34.0362549  66.7348328  52.5003395  35.1474991
  28.8832874   2.8727267  22.5976048  28.9625206   3.4309266  21.8240623
  29.1406403   2.0027106  22.2925262  85.6522522  31.4849186  31.4739990
  85.8962936  30.8723392  32.1678467  85.4596329  30.9280357  30.7196712
  83.3341904   0.5888455  57.0808716  83.2618561  -0.0998979  57.7416534
  84.0812531   1.1156465  57.3647957  52.2628937  32.6549301   8.7394409
  52.0244179  31.9500942   9.3415737  52.4134254  32.2146568   7.9029412
  60.0249329   7.9726582  70.8344116  60.0302238   8.8956013  71.0881424
  60.6482086   7.5569053  71.4301529  77.2612610  67.4914169  70.5507584
  77.5701218  67.2629623  69.6740341  77.9528885  68.0462723  70.9113312
  19.6272812  36.3426819  82.7374420  19.3349457  35.7927055  82.0106049
  19.9858036  37.1243896  82.3171768   3.0190306  55.2524071  56.6219330
   3.2080917  56.0719376  56.1649246   2.2691274  54.8848343  56.1542053
  79.8212662  32.8805313   7.7414937  79.0764313  33.3592033   8.1052504
  79.5712128  32.7012863   6.8350859  65.9681168   2.8004549  72.4397354
  65.6550217   2.9425881  71.5464325  66.5922470   2.0788045  72.3628082
  55.7885170  59.8337669  66.8768234  56.3327789  59.2189751  67.3688049
  55.8324928  59.5221939  65.9728241  86.0302353  12.2184668  55.9772606
  86.0927200  12.8414536  55.2532349  86.8472137  11.7213449  55.9366646
  53.9853821  57.7740326  65.3571777  54.3345490  58.5205803  64.8703690
  54.7581139  57.3456345  65.7254028  42.1381264  28.4002113   8.8688240
  41.6608620  27.7441216   9.3767595  41.9486465  28.1811638   7.9564924
  39.4602776   2.0149183  79.7594757  39.3308678   2.2072175  80.6881866
  40.1728439   2.5952621  79.4917374  29.0803890  59.4453850  24.5973606
  28.9140377  59.0912590  23.7237740  28.4879665  60.1937828  24.6692295
  80.7802582  14.5553942  62.0468330  81.1314087  13.9227123  61.4202232
  79.8312302  14.4413443  61.9960365   2.7871497  60.6158867  28.2194958
   2.7818699  61.2543602  27.5063648   2.0304196  60.0561523  28.0454502
  11.7483091  47.1197968  84.5669022  12.4099140  47.1703224  83.8770065
  11.8738232  47.9192467  85.0781326  71.0891571   6.5086756  14.2801113
  72.0163040   6.5928011  14.5026999  70.7055588   7.3492155  14.5302649
  70.3953934   8.6983461  83.8019562  69.7996597   8.7485285  83.0544128
  71.2491379   8.9426861  83.4446793  35.8310661  50.7586517  86.2454376
  35.8634720  51.7118111  86.3270874  36.7416115  50.4992371  86.1045761
  77.6143341  67.5455093  80.6606140  77.0115128  67.1208344  81.2709351
  78.3332138  66.9214249  80.5607758  29.5719795  49.2529488  56.2097244
  28.8908234  49.6765480  55.6874008  29.1131573  48.9303818  56.9853935
  11.5572519  70.0311432  26.9519596  12.4796371  69.7796783  26.9988594
  11.1126528  69.4219894  27.5414467  51.1166382  60.1628571   9.7913895
  50.7014580  60.5129776  10.5795975  51.8441696  59.6338997  10.1187057
  37.6432114  65.6639328  66.6191406  38.2377281  65.6566162  65.8689880
  36.8287010  65.2901306  66.2828903  37.8730812  34.8369560  73.8967361
  38.0409698  34.6132545  74.8121567  37.3629532  35.6458664  73.9375229
   0.0991215  25.9817486  48.9602394   0.6740898  26.5124245  49.5116234
   0.2026929  26.3494415  48.0825653  17.7992439  49.6534462  17.2812977
  17.0727386  49.2842484  17.7834091  17.9452705  50.5158463  17.6701088
  16.0931759  67.0078735  72.9930115  15.1664982  67.1512375  73.1852264
  16.0995808  66.6281204  72.1143875  72.5104752   6.8148813  51.5082817
  72.0711975   7.3908243  50.8825417  72.8691559   6.1077671  50.9720268
  83.3045197  57.8501244  24.5267467  83.1330261  57.0432739  25.0123558
  83.0148087  58.5488701  25.1133041  59.1546021   1.0948675  30.8008518
  59.6682930   1.6310651  30.1968288  58.5312004   1.7062821  31.1929951
  22.4616108  10.0722647  62.1970482  22.4395580   9.9429865  61.2488747
  21.5440102  10.1859131  62.4446831  20.0015774   1.1112112  44.4643974
  20.1862965   1.3008499  43.5445366  19.1037369   0.7793739  44.4649239
  46.9475784  67.7729950  25.9714909  46.2739067  67.6574478  25.3013802
  46.6651154  67.2125320  26.6942120  70.2925873  31.7464695  62.2568436
  70.4221344  31.5068989  61.3392067  70.0565491  32.6737595  62.2312698
   8.3257580  64.9688492  59.5960121   8.6304045  64.0735168  59.7436333
   8.7602320  65.2393799  58.7871361  46.4816360  67.3978500  18.0854073
  46.2315063  66.9320526  18.8833408  46.6804314  68.2868423  18.3793583
  67.4545059   2.6646044  65.4404602  67.0725250   2.5389736  66.3091049
  67.8313217   1.8130037  65.2190704  17.3321438  14.8369722  86.1664124
  16.3935528  15.0074692  86.2452164  17.7425060  15.4885960  86.7349396
  36.9616165  38.6488571  84.4979782  36.7403297  38.2670288  83.6485825
  37.7168465  38.1432838  84.7984009  13.6303778  41.9544754  27.2492676
  13.5992203  42.4459648  26.4284744  14.2398071  42.4461060  27.7998371
  45.2353973   4.7424526  27.8582268  45.0340385   4.8328094  26.9268188
  45.3764191   3.8039341  27.9828377   2.5403986  51.9988403  68.4593430
   1.9211388  52.5872040  68.0273972   2.7663286  51.3544884  67.7885284
  67.0831451  35.3193321   5.9032722  67.9335022  35.3003578   6.3423262
  67.0867920  36.1393242   5.4094820  74.6372223  42.0143204  18.1284332
  74.0469360  41.2676163  18.2295589  74.0775070  42.7199135  17.8042622
  52.1690292  63.6472359  40.1409378  53.0710754  63.8026772  40.4209061
  51.6758499  64.3838272  40.5020943  41.3844070  70.9545975  10.9307566
  41.5627022  70.3986816  10.1722050  40.7110443  71.5639038  10.6281776
   3.0078173  16.7160892  53.2824059   3.6162391  15.9805145  53.3530083
   3.2067285  17.1107979  52.4333649  52.5948143  34.3489761  20.4033546
  52.5699921  34.4141769  21.3580074  51.6902351  34.5002747  20.1293488
  45.0000305   9.0806532  40.5824890  44.1187859   9.3608751  40.8297081
  45.1312561   9.4467964  39.7078743  15.9256639  34.5844612  24.2438297
  16.7062244  35.1357956  24.1891823  15.8215599  34.4087105  25.1789799
  49.2412071  21.5772743   1.3267173  50.0555153  21.2136288   1.6744177
  48.6654205  20.8196239   1.2234391  20.9709835  53.4914131  56.4802742
  20.6358433  54.0604553  55.7873764  20.4918098  52.6703415  56.3686066
  18.6564369  30.4105434  15.2998390  18.7068291  31.3049049  14.9624777
  19.2110596  30.4172211  16.0799541  77.1920547  49.5543327  68.8136520
  76.6699524  48.9300804  68.3097229  77.1787872  49.2113686  69.7071991
  65.8690567  67.6061020  62.7107658  65.9136887  66.6519547  62.7727089
  66.3414917  67.9185715  63.4823875  56.0892868  30.0422802  21.6780205
  55.6446457  30.8657990  21.4771614  55.5281181  29.3676434  21.2956715
  83.2883301  28.1187687   2.5974474  83.4676819  27.8236370   1.7047211
  82.8127213  28.9420090   2.4865425  22.5958061  12.6942949  15.5370770
  21.7987251  12.2659130  15.8491354  22.2870464  13.3438454  14.9054251
  75.6164932  11.1907749  17.5840034  76.5155029  11.2060699  17.9122906
  75.2046204  11.9599199  17.9777164  10.1560984  12.3748770  28.3891144
   9.9363880  12.8107939  27.5657463  10.6224489  11.5822897  28.1234951
  45.1869469  52.7951393  86.7873077  44.4896164  52.2598305  87.1660004
  45.9555779  52.6018410  87.3240356  26.8106632   0.7855064  86.1945496
  25.9734230   0.6702731  85.7451248  26.6344280   0.5271632  87.0992279
  48.4929352  62.5238571  78.2050476  48.4203796  63.1340790  78.9389420
  47.8162308  62.8071518  77.5902023  58.9319954  40.3800507  65.6143417
  58.1781235  40.4767113  65.0324860  59.2270775  39.4799614  65.4765091
  56.1143227  33.3238144  73.9400253  55.3540039  33.9053001  73.9352646
  55.9631691  32.7379875  74.6817703   7.0907140  32.6422768  29.6461849
   6.2734122  32.1534119  29.7424240   7.2517796  33.0127945  30.5139446
  75.5455322  43.1985397  35.7067337  75.7295151  43.8059044  36.4233131
  76.3149109  42.6301918  35.6709824  28.6526661  47.6870995  74.5427780
  29.4129601  47.6884766  75.1243134  28.1349945  48.4416924  74.8235626
  12.2760878  58.1330452  61.4933281  13.0061178  58.6013107  61.0883408
  12.6919146  57.4486389  62.0176468  43.3063622  60.4898491  46.1727905
  42.6334648  61.0160522  46.6047020  44.0480766  60.5061913  46.7776299
  40.7390556   3.9621046   4.8127537  40.1497917   3.5734131   5.4592228
  40.5420876   3.4976227   3.9993093  26.4202862  71.0886917  71.6215210
  26.1268082  70.4877777  72.3063660  25.7612534  71.7828369  71.6134109
  75.1132202  18.0388565  84.3624115  74.7532425  18.7380600  83.8167343
  75.9499664  18.3844185  84.6733475   8.6334743  20.0820293  82.7991562
   8.9160299  20.6930885  83.4795990   9.0784769  20.3831768  82.0069962
  62.0617104  37.0938416  70.2478561  62.3065796  37.6829910  69.5342941
  62.4849091  36.2636566  70.0289307   2.8597353   1.8271139  41.7598267
   2.4999795   2.3172023  42.4991646   3.5349801   2.4009595  41.3979187
  65.8559875   6.6662145  27.4572296  66.2265396   7.5082159  27.7217216
  64.9089432   6.8031330  27.4813690  51.2265663  44.1167183  79.8317642
  50.4063454  44.1965790  79.3448410  51.5905304  45.0020180  79.8347015
  65.9266891  70.1416016  30.7345505  65.5690079  69.5066452  30.1139679
  65.3242645  70.1154633  31.4779434  71.0754166  64.0415344  61.4482536
  71.3086395  64.5420456  60.6663818  70.6100693  64.6673355  62.0032730
  38.9131622  58.5263557  31.8648949  39.0487289  57.9694366  31.0982838
  38.5637360  59.3432274  31.5087261  19.2522907  31.9379330   9.0633564
  19.2807388  31.1365166   9.5859976  19.8845196  31.7880573   8.3604660
  71.6817245  40.4017143  40.2461052  71.2384872  39.7587242  39.6926270
  71.0167694  41.0683365  40.4183960  17.0939369   3.0357337  47.7945824
  18.0264740   3.2478712  47.8346291  16.9876308   2.5799468  46.9596024
  12.0125551  71.1611862   4.5960894  12.7706394  70.6827621   4.9317303
  12.2437582  71.3721161   3.6914988   9.3096848   7.4043064   6.0167427
  10.0543652   7.0748005   6.5198417   8.6308765   6.7390194   6.1300759
  45.9552612  17.7206020  81.2106552  45.5275269  18.5760593  81.1723251
  45.7051430  17.3657665  82.0637436  72.2957840   6.3559232  42.1265640
  73.2184906   6.2103519  41.9176178  72.3085556   6.7805605  42.9843254
  85.2899780  63.1836395   9.3105497  84.5530396  62.6996346   8.9378691
  84.8996124  63.9874306   9.6537247  23.8520145   8.0272064  76.5801392
  24.4594307   8.7393026  76.3796463  23.3417854   7.9146724  75.7781219
  41.3713951   2.6730444  51.9549217  40.7448845   2.7653079  51.2371445
  40.9150238   2.1374285  52.6038208  71.0870209   6.6806607   7.6207681
  71.4157867   6.0056076   8.2144413  71.6578979   6.6244173   6.8545003
  26.0990429  31.6802502  14.7595682  25.9076366  31.8976269  15.6718969
  26.4771671  32.4812622  14.3967533  57.6456146  66.2006760  43.6833801
  58.5480652  65.8890915  43.6145859  57.1298065  65.5466232  43.2117958
  64.9999313  20.5181828  62.4564247  65.3049240  20.3631763  63.3503952
  65.1468048  19.6866226  62.0056801   5.9318261   3.7879086  58.0484428
   5.8373899   3.2855601  57.2391472   6.2791882   4.6339655  57.7660255
  70.4598618  12.4085970  34.8700981  70.0420837  11.5983982  34.5780869
  70.3444214  12.4086199  35.8203087  15.7959805  26.3009968  73.5771942
  16.0339928  26.2643089  72.6507797  14.8410788  26.2348824  73.5819473
  73.6358261   2.9325337  79.7845001  74.1457748   2.3792577  79.1928253
  73.9528580   2.7045469  80.6584167  59.1251602  48.9786606  50.0114822
  58.4036713  48.6325874  50.5367622  58.7032738  49.3317261  49.2281647
  73.8464661  25.2606411  35.7638512  74.2824097  26.0510845  36.0822678
  74.5619049  24.6590405  35.5577812   7.8442845   1.5119820  62.1624794
   7.8553395   2.3419883  61.6858253   8.2276011   0.8808705  61.5533829
  61.7712593  16.1991138  20.8588467  62.4848633  15.7585754  20.3974056
  60.9943695  15.6807642  20.6491127  20.7468395  27.9532356  70.6252594
  20.8096256  27.1982498  71.2103119  20.9763412  27.6075459  69.7626648
  28.7945328  26.5899410  75.4164734  28.3485813  26.6011009  76.2633743
  28.0976753  26.4263306  74.7809830   8.8587055  57.0701218  37.4606476
   9.7873325  56.8381538  37.4519882   8.4744272  56.5463181  36.7576599
  25.2026615  18.5635319  22.1020565  25.9174290  18.3458214  21.5037746
  24.4338322  18.1392288  21.7211342  73.3741379  69.8187943   4.6401644
  72.6936493  69.9778976   3.9860599  73.2911911  70.5482407   5.2543836
  39.5415688  14.9207735  84.3187408  40.3215027  15.1779709  84.8104553
  39.6368446  15.3580923  83.4726257  49.3157120  18.8418064  69.1334381
  49.2253914  19.1202126  70.0447922  48.4842834  19.0838394  68.7255402
  55.9616051  43.2223053  76.4597855  55.2947655  43.2858810  77.1435394
  56.7664909  43.0042763  76.9297409  11.8804522  34.4037056  86.8975220
  12.5285530  35.1037254  86.8189697  12.0730219  33.8159370  86.1669922
   1.2387544  27.5850239  62.3155594   1.6126426  27.3429165  61.4683151
   1.3212767  28.5380306  62.3502388  77.5674667   6.0779119  16.3432598
  77.9723129   6.8819380  16.6686459  77.8957901   5.3921275  16.9247570
  10.3872433  64.5337982  67.3456192   9.5386591  64.0914230  67.3666687
  10.3855114  65.0160217  66.5187607  51.1581802   2.9154322  88.8825226
  50.3229446   2.9991887  88.4225235  51.0982742   2.0749509  89.3366547
  15.9089146  15.2570095  59.9854088  15.9917145  15.2516088  59.0318108
  16.5301590  15.9247322  60.2759857   4.5803003  50.0529366   5.1849318
   4.3678803  50.9809380   5.2845716   5.3969388  50.0464287   4.6856408
  28.3792992  55.8353043  82.6606522  28.7781143  54.9655457  82.6342163
  28.1781616  56.0344620  81.7462616  67.3417130   7.8855147  58.9400330
  67.8010025   7.8006539  59.7755470  66.9446335   7.0264401  58.7966576
  24.3320808  68.6135712  55.4382858  23.3786983  68.5454788  55.4898300
  24.6297302  68.4958649  56.3403816   1.3729986  49.2594261   1.8439683
   2.2725811  49.0149841   2.0612969   0.8596785  48.9832649   2.6032240
  13.0517225  18.3060741  12.0605297  12.3781672  17.9981327  11.4541245
  13.2443914  17.5465508  12.6102886  11.3741398  71.6427536  32.5461922
  10.6992645  71.4481964  31.8958683  11.8711386  70.8286438  32.6265221
  21.3861217  33.5100861  16.1347466  20.7067146  33.0431366  16.6211567
  22.0070534  32.8288383  15.8767242  84.2918701   3.7859302  37.4924126
  84.9216461   3.8459516  36.7740707  83.4385452   3.8942940  37.0725060
  74.6688080   1.3178161  45.0888405  74.7408981   2.0823181  44.5173759
  74.8163528   0.5706230  44.5090408  69.2580185  49.1791916  15.5070019
  69.3687134  49.6346092  14.6723938  68.4258118  49.5054626  15.8493547
   4.8584580  24.9542274  42.1347923   5.4838548  24.4849281  42.6869392
   5.0229383  25.8789711  42.3192596  19.6311150  49.3968239   7.6368175
  19.8043728  50.3332405   7.7334538  20.3963909  49.0583725   7.1720200
  82.5364380  12.6395731   8.0807381  83.4416656  12.4991693   7.8030920
  82.1188889  11.7844534   7.9775310   1.2193171  32.8226814   1.1184396
   0.5756470  32.6864204   1.8136762   1.4855796  33.7370796   1.2144070
  76.9376831  16.2692051  45.5459709  77.8927002  16.2388573  45.4889374
  76.6977310  17.0879803  45.1120834   1.3163316   6.9224434  27.9063625
   0.7150742   6.7878642  28.6388988   0.7928653   6.7301044  27.1284027
  32.1612892  66.9903336  79.4709930  32.9810715  66.9695129  78.9772797
  32.4303932  66.9061584  80.3857269  43.2975693  48.6817398  53.2943115
  42.3636131  48.8484039  53.4215202  43.7329445  49.2902260  53.8913269
  16.1387272  46.7655067  59.2479324  16.4988365  46.5161667  58.3968239
  15.2407999  46.4341812  59.2344437  29.4864082  55.7954445  16.1963406
  29.4046173  56.1515045  17.0810795  29.7133598  56.5509300  15.6541529
  30.6171112  58.0302200  84.3282242  30.2060089  58.3299751  83.5174408
  31.1283646  58.7812996  84.6294479  27.9992237  52.2771912  33.8237610
  28.1709137  52.0130310  34.7276268  28.8624878  52.2921066  33.4104996
  16.8469353  19.9615841  24.7695694  17.2683239  19.2998028  24.2212009
  17.5621014  20.5349731  25.0452366  24.7020950  65.1442795  25.3143139
  25.5949135  64.8643723  25.5162086  24.4725933  65.7435760  26.0245266
  78.9581757  50.7006149   4.3889174  78.6039124  51.4800873   4.8168764
  79.2778168  51.0159073   3.5435476   7.9564633  15.2824106  31.2147427
   8.2990961  14.9589996  32.0479546   8.6068363  15.9196491  30.9194889
  34.2683716  24.1662369  37.4913864  34.5599785  23.6769905  38.2606964
  34.1979942  23.5070953  36.8008728   9.7864857  17.4838619  32.1532936
   9.0157309  17.8413811  32.5941429  10.2843437  17.0565147  32.8502464
  57.8281174   0.8864304  43.2674904  56.9551811   0.8714373  43.6599045
  57.6744919   1.1125134  42.3501472  52.6518478  46.2126465  21.5180168
  52.1785545  46.9185677  21.0776749  53.5676231  46.4906082  21.4999619
  72.7299576  54.7691345   0.3597482  72.0691071  54.8907509   1.0414473
  73.5565186  54.6986198   0.8373045  29.7598057   1.8408629  66.7033386
  30.3937969   2.1468391  66.0547485  29.0543480   1.4540449  66.1847534
  42.5919266  53.7083168   2.2031238  43.3378830  53.2856331   1.7775432
  41.8246613  53.2916946   1.8107469  85.3129272  44.5601349  32.7114906
  84.4780273  45.0282135  32.7034454  85.0692444  43.6351013  32.6774216
  61.6934586   6.3977737  11.6935616  62.5839996   6.1652842  11.9564657
  61.1908913   5.5916352  11.8110161  36.3929863  52.9103050   1.5047432
  36.8141747  53.6953468   1.1546861  35.6208611  52.7863884   0.9527475
  81.6447983  40.3091545  20.5555916  81.1106796  41.0364914  20.2363281
  82.3584976  40.7288857  21.0358982  22.6525650  67.9894791  49.2846107
  22.0151443  68.5951385  48.9063225  23.4582291  68.1525192  48.7941475
   7.8918753  60.0486069  74.7228775   8.6111879  59.9750443  74.0956573
   7.1028209  59.9053001  74.2003021  80.0061951  53.7328415  85.3693314
  79.2646332  53.1770859  85.1296387  79.6073380  54.5562668  85.6506042
  82.4769745   6.0317144  73.7197723  82.9558029   6.3905139  74.4669113
  82.9803848   5.2598028  73.4609909  43.9476624  36.9930115  86.9653397
  44.5649185  37.5562553  87.4322281  44.3463898  36.8621254  86.1050415
  36.7922668  60.7096443  87.7503433  37.1811295  60.2174759  88.4733887
  37.2075653  61.5708427  87.7961273  15.7673779  45.1940918   2.7007427
  15.7449055  45.5944519   3.5699029  15.1235762  45.6878738   2.1928749
   5.3853784  14.5541506   7.5746202   6.2513223  14.2044811   7.3646102
   5.4543400  14.8320074   8.4880047  47.2013092  35.2971535  13.1320934
  47.1053162  34.5070305  12.6003771  46.3039513  35.5920830  13.2870026
  72.1962814  70.5034714  59.4204216  72.5750885  69.6370468  59.5689125
  72.0567245  70.5449142  58.4743576  46.6120224  46.5621719  52.7361221
  46.8176270  47.4421921  52.4206543  47.3487854  46.3325157  53.3023949
  10.9222775   1.0232947  27.9946136  11.6448936   0.8011648  28.5817394
  10.9263773   0.3285016  27.3362236  14.3995028   8.8863363   8.0349884
  14.7927856   8.3403206   8.7157431  14.0590115   8.2620707   7.3942151
  47.7073288  31.4981766  23.1332092  48.1538582  32.2100525  23.5915489
  46.9017944  31.8948994  22.8016148  63.6445999   6.6116581  57.3983269
  64.0165100   7.4140148  57.7645721  63.7164116   6.7252359  56.4506073
  52.9022255  21.2230301  81.3622360  53.2547035  20.6178913  82.0147705
  53.6528053  21.4448891  80.8112030  17.9747734  36.1624756  15.2505026
  18.2301216  37.0599213  15.0369091  17.1199589  36.2505798  15.6721201
  16.1389694  16.4398975  26.0933228  15.4874287  15.7388725  26.0763054
  16.7719631  16.1625462  26.7556133   5.8315911  55.6743927  45.7301826
   4.8909225  55.6778564  45.5530891   6.2303209  55.4084015  44.9016342
  74.6917801  51.4864044  68.5441284  74.2610092  51.5081863  69.3986435
  74.5844650  50.5835800  68.2447586  86.2143555  35.1020889  37.4236755
  86.1322784  34.8859406  36.4948158  85.3169250  35.0768623  37.7556648
  16.2098827  51.8271713  51.4602432  17.1437283  51.9547691  51.2932549
  15.8094549  51.8232155  50.5908318   4.8717961  21.9004879  30.0101566
   4.1623650  21.2773075  30.1669540   4.4427233  22.7561283  30.0073528
  80.2742996  62.6863708  23.3265343  80.1673889  63.6352806  23.3926201
  80.9314270  62.4726753  23.9889202  62.2388077  51.7353477  81.4001007
  62.2989349  52.6851006  81.2972107  61.3188019  51.5749512  81.6100998
  81.3609695  16.6933994  76.2943420  80.6453400  16.0583439  76.2659378
  81.9085541  16.4046955  77.0244293  27.9290180  68.3419037  11.4084387
  28.8020000  68.4777298  11.7767925  28.0821400  67.8386917  10.6087093
  53.5411339  40.1910477  27.5764370  53.8565598  39.9591026  28.4499016
  53.0481415  39.4229317  27.2880230  15.6085272   5.0972695  31.6183643
  14.9542866   5.6158643  31.1501122  15.2014408   4.9041672  32.4628906
   1.2658682  53.6942711  55.1368752   0.4402380  53.8504333  54.6784210
   1.3006940  52.7445030  55.2507172  11.2046995  42.3267517  12.7247438
  10.7939110  42.4032440  11.8635626  12.1390152  42.2365341  12.5372734
  39.3327599  63.8885880  11.9007530  38.4586639  63.5439224  12.0834818
  39.6610641  63.3424683  11.1864681  61.8237419  55.0379677   3.2591608
  61.0945473  55.6327324   3.0837660  61.9658051  54.5820427   2.4295950
  33.2169075  53.7555885  68.5491028  33.7491493  52.9697914  68.4247360
  33.7790184  54.3492966  69.0468674  73.8834686   3.6451914   9.1215305
  73.8248138   3.3671546   8.2074804  74.5571518   3.0807993   9.5007973
  69.3802338  50.0852089  40.1772728  69.5486755  49.2005310  39.8529167
  70.2340317  50.3968277  40.4775429  39.8934555  17.9429855   4.5066242
  40.1065674  18.1992855   5.4039125  40.6177330  17.3763504   4.2409525
  46.4433250   9.1537628  84.9794617  46.2792549   8.9626904  85.9029388
  45.9656067   9.9666662  84.8145218   2.9160342  60.4936371  14.0693121
   3.7331655  60.7850304  13.6648140   3.1325350  59.6495438  14.4653778
  72.2309265   3.1452346  57.3873863  72.7635193   2.4644544  57.7986259
  71.4142761   3.1447208  57.8866920  59.1252785  30.1330872  35.2840233
  59.0735741  30.0877075  36.2387466  59.1236839  29.2188873  35.0003510
  79.5892944  63.2604828  49.9357948  80.1155090  63.7733154  50.5492554
  79.6498489  63.7397766  49.1094551  79.7901077  12.0789328  70.4133606
  79.6948395  13.0026636  70.6454773  80.2849808  11.6993198  71.1394653
   9.8230705  24.7159214  36.0397415  10.2028933  24.5157280  36.8952484
   9.2236919  23.9896603  35.8679199  55.4365196  42.9784660  66.5515594
  55.6219063  42.1582909  66.0942001  56.2907715  43.2771912  66.8634033
  79.8316650   1.9560192  13.9003296  79.6405411   1.2372847  14.5029287
  80.7407684   2.1900597  14.0873537  75.8414993  64.8281555  44.5336113
  76.6530762  64.3878479  44.2812080  75.9556885  65.7304230  44.2351074
  46.8114204  13.6550808  57.4462128  47.1814804  14.4959888  57.7148399
  46.3121262  13.3590355  58.2073288  64.2734985  29.4909973  43.5855408
  65.0895767  29.8207169  43.9617615  63.5859680  29.9731579  44.0449409
  77.1339645  11.0815954  22.2698650  76.7872543  11.3540916  23.1194363
  76.4173660  11.2424345  21.6559811  83.9856491  33.3560143  17.2323780
  84.8875275  33.0489578  17.1398525  83.4645462  32.5550766  17.2887688
  23.4778919  67.7344818  86.9430923  23.8849640  66.9120865  86.6707230
  23.7769966  68.3750381  86.2977600  32.5687714  47.1947212   3.4773324
  32.5591660  46.2629433   3.2584085  33.4944878  47.4369621   3.4529130
  23.4743519   5.1390200  34.2049332  22.9880524   5.9609714  34.2692795
  22.8085804   4.4584494  34.3039436  16.9286251  61.6668129  10.1026087
  16.7157574  61.6003189   9.1717501  16.9532642  62.6078453  10.2760429
   2.6550541  19.0911980  22.9342613   3.4776351  18.7103844  22.6267319
   2.6936383  19.0071907  23.8869858   5.6558952  29.3011684  11.9968824
   5.5161881  30.1826324  12.3429108   5.4485478  28.7207260  12.7292242
  79.3371124  70.3200226  13.6996403  79.0423508  70.5081253  14.5906887
  78.5513687  70.4177628  13.1617880  32.5956039  69.8120956  69.4754486
  32.7149315  68.9870071  69.0051041  33.1969757  70.4211884  69.0469742
  63.3318253  46.4804993  47.3922653  62.7096405  46.8589325  48.0134735
  62.9521446  45.6333466  47.1590042   4.2694135  68.5076370  72.0880814
   3.7878869  67.9214783  71.5043182   5.1851544  68.2484818  71.9856720
  20.0027981   2.4243674  31.6241570  19.0672436   2.5416563  31.4591904
  20.4328632   2.9235466  30.9298267  21.9887238  13.8574553  26.0280876
  21.5774860  14.4460802  25.3951283  21.2564087  13.4821043  26.5170231
  17.7912540  62.4557343  80.1485672  18.6087608  61.9739838  80.2743988
  17.6414509  62.8959541  80.9852219  79.3020325   5.5161629  65.5311508
  79.7738495   5.3043070  66.3365936  78.4055023   5.2233758  65.6946716
  78.4655457  51.7807808  46.9653778  79.1081161  51.7996635  47.6745834
  78.4068756  52.6897240  46.6710663  34.2882614  49.1651573  25.6826744
  34.0853081  48.2419167  25.8332405  35.1382256  49.1548576  25.2425690
  77.4364548  50.1437836  51.9354362  77.5391693  49.2362175  51.6490707
  78.3119507  50.5217056  51.8523102  35.8089867  49.9407082  83.3619919
  36.2553864  49.5594521  84.1180344  34.8808060  49.7679367  83.5196686
  34.2975159   9.5479908  33.8305588  34.3532906   9.9296074  34.7066269
  33.4196091   9.7765903  33.5251808  63.5101089   5.9245410  80.9138184
  64.0289764   5.2137179  80.5373383  63.1196060   5.5450664  81.7010574
  38.1756020  37.1056480  19.4304543  38.0732651  38.0342484  19.6389275
  37.4549179  36.9140663  18.8303356  85.0763550   7.0071688  72.0129547
  85.1186447   7.6922488  71.3457947  84.9450684   6.1985178  71.5179062
  42.4179764  37.8193016  89.4050293  42.4480667  38.7629433  89.2473373
  42.7293129  37.4298744  88.5879288  67.6450043  49.9564018  23.9032402
  66.8785934  50.4586830  24.1799221  67.7696609  49.3082848  24.5965233
  71.8232040  48.8309631  69.0474625  71.6697998  49.3912392  69.8082428
  70.9785690  48.4108467  68.8852005  15.9866991  55.6082802  82.2638016
  15.2724276  55.3870392  81.6662216  15.9123421  56.5547447  82.3859177
  55.2204361  61.4093552   1.7973919  54.4564285  61.3615379   1.2227275
  55.2909126  60.5328598   2.1755729  84.5061798   6.8142390  12.5741768
  84.6394196   7.0103774  13.5015450  83.6268616   6.4383268  12.5327969
  32.8438301  57.5231934  64.0651627  33.4584618  58.2295265  64.2640457
  32.9181519  57.4004097  63.1187897  24.6499901  41.6096382  17.7300606
  24.5656319  42.4621010  17.3029537  25.1882477  41.7811203  18.5027866
  67.1697845  62.1651192  79.2656403  66.8036880  62.7564545  78.6079636
  67.4355011  61.3905983  78.7699203  51.0193558  36.8303070  14.0427284
  50.4912758  36.2136497  13.5356836  50.3836327  37.4443779  14.4101639
   0.6846920  64.1634140  29.7176285   0.5880128  65.1050720  29.8596573
   1.2719998  63.8748779  30.4162331  79.5457535  38.9493103  62.0420570
  79.9573517  38.2318344  61.5603447  80.1102676  39.0813065  62.8037262
  12.5099449   3.4796224  47.8193054  13.2340069   3.1294692  47.3003044
  12.3605375   2.8205905  48.4972305  46.7741203  66.4157028  43.8761597
  45.9779930  66.3171310  44.3983650  46.4678345  66.4109879  42.9692955
  66.7804260  15.3794956  69.9270172  66.8658600  16.1521320  69.3684769
  67.0413361  14.6487408  69.3665237  70.4074249   2.0184836  39.0538101
  69.6305313   1.7171427  39.5248337  70.2273331   1.8105215  38.1369934
  79.9032898  20.1542950  14.0411034  80.2600327  20.7550869  13.3868752
  80.2718277  19.3017597  13.8095884  36.7699585   4.7100620  76.3574524
  36.8929176   5.0508962  77.2434235  36.8316422   3.7599120  76.4556427
  39.8806419  24.9260311  80.0324936  40.3510361  25.0642643  79.2103882
  39.1302986  25.5181675  79.9815903  72.3518219  56.3031616  68.3805161
  72.2396469  57.0193405  67.7554245  72.7541885  55.6005020  67.8700180
  19.4024658  70.1885605  82.7109985  19.2389545  70.4333420  81.8001862
  19.4328384  69.2319031  82.7001572  60.9184761  48.6635933  77.1646500
  61.5435677  49.1396217  77.7113571  60.6224480  47.9385796  77.7150574
  44.9485855  45.3928604  32.6792717  44.3619766  45.2915573  33.4288445
  44.5613785  44.8451805  31.9963722  33.2466431  46.9377785  69.5389862
  33.7115288  46.5281792  70.2686005  33.8480492  47.6102409  69.2190857
  60.1517220  21.1884079  52.7376709  60.5842972  21.3584576  51.9008980
  60.0506973  20.2369785  52.7660789  10.0197678  35.8470154  47.8753395
  10.5919743  36.3085060  47.2622833  10.5147581  35.0662498  48.1235733
  77.8601379  21.2734470  24.4127235  78.4758530  20.8140984  24.9837971
  77.0039825  20.9140701  24.6452770  39.1666679   7.0386891  34.7390404
  39.3691330   7.9315963  34.4598312  39.9784431   6.5525899  34.5942535
   8.4526558  46.4201660  42.5533562   7.5032301  46.5414009  42.5644760
   8.5814238  45.5123405  42.8281326  70.0903854  58.1086693  45.3681068
  69.2828674  57.6211700  45.2053413  70.7598343  57.6348076  44.8746223
  19.3057709  42.6455460  65.9622040  19.8431740  42.0564766  66.4917603
  19.7818127  42.7260056  65.1356812   3.9674096   0.3755072  35.2289848
   3.2865076   0.3377263  35.9006805   3.7710826   1.1705247  34.7333679
  30.0120583   8.2613888  54.5628853  30.8965378   7.9932079  54.8118935
  29.7156734   7.5792680  53.9603081  44.3305588  32.5830078  19.9401608
  44.2846222  33.2543297  19.2593899  44.9460983  31.9353828  19.5967598
  47.6344528  20.3213596   5.1371589  47.6757927  19.4739056   5.5802689
  46.7942352  20.6920414   5.4070897  81.5421066  62.8279114  38.8534622
  81.1070786  62.8203125  38.0008621  81.0049744  63.4097290  39.3912392
  29.3481846  70.3991852  23.8740005  29.0807686  70.5868149  24.7737312
  28.7684193  69.6906204  23.5946388  63.1135635  11.2883987  41.7790565
  63.1787949  12.0960617  41.2694893  63.6636963  11.4444141  42.5466805
  51.9675293   4.6506743  81.3943176  52.1783218   3.7573714  81.6659927
  52.5646896   4.8271384  80.6673431  11.1280012  43.1280289  31.9553852
  10.3391933  43.2016945  31.4181805  10.9575710  42.3817558  32.5300713
  59.0611763  28.0946655  26.1589069  58.3628502  28.4232330  25.5926800
  59.7656136  27.8558521  25.5564384  32.9888039  58.0013275  70.5923004
  33.2153587  58.9313011  70.5995407  32.0430107  57.9840736  70.7386093
  37.1607971  66.4179001  50.6097679  36.6430168  65.9804077  51.2855911
  36.9126701  65.9788284  49.7962036  40.5134811  29.3579006  86.4950790
  40.6400146  28.4367619  86.2676544  40.2067604  29.3408222  87.4016495
  60.1856346  57.7531738  68.4617844  59.5290451  57.8454399  67.7714157
  60.2197304  56.8125267  68.6357269  36.5548210  11.0548429  19.7303467
  37.3584671  11.4582996  20.0583801  35.8988342  11.2489195  20.3998566
  38.6144753   8.0191336  82.4212418  38.3364029   8.6663370  83.0693436
  38.2197418   8.3162708  81.6014099  61.0301437  59.1925430  57.8279762
  60.7047386  59.8331223  58.4604340  61.9271736  59.4715881  57.6443901
   1.3407054  70.5048294  59.6929131   0.9640644  71.3032074  60.0630112
   0.7258707  70.2457962  59.0065384  69.1486435  40.0860519  35.4411621
  68.8859024  39.4008446  34.8265991  70.1026840  40.1182594  35.3704185
  22.1280499  32.6855621  71.4408951  21.4689674  32.6150970  72.1314545
  21.6569080  33.0622292  70.6976700  69.2482376  61.8897781   2.9431906
  69.4779282  61.0027580   2.6663041  68.4921875  62.1209068   2.4035642
  50.5659142  35.0878868   8.7191448  49.9926109  35.0951080   9.4856310
  50.9817543  34.2259674   8.7391901  78.5347824  53.0798912  56.6728439
  78.6585617  52.8873672  55.7434082  79.4145355  53.0308609  57.0468254
  30.3814373  18.2567692   3.8227017  31.0362339  18.9205379   3.6061761
  30.8924198  17.5058098   4.1246824  71.2821121  63.5365448  40.2048531
  71.3619080  63.7580833  39.2770691  72.0749283  63.8933258  40.6053352
  85.2911072  28.8563385  64.5688629  85.6672287  28.0342007  64.2544479
  84.3844833  28.8376312  64.2623978  54.2266235  58.7607689  54.8013916
  53.5248108  58.2520752  54.3952827  54.3884354  58.3216133  55.6363716
  53.7299194  49.6951981  19.7986526  54.3099098  49.2522583  20.4180489
  53.2572250  48.9855614  19.3636703  69.3649521  14.3556929   8.4331017
  69.9147110  15.0055723   8.8708906  69.0353165  13.8039408   9.1424236
   0.4501422  36.1188660  13.5423307   1.0427667  35.8629341  12.8355598
  -0.3635578  35.6513786  13.3537111  64.4249725   9.7741947  73.6869812
  64.1109848  10.6507492  73.9090042  64.3395844   9.2761488  74.4999313
  41.4547234  53.0250130  50.5837402  41.6188583  53.9509735  50.7623177
  40.9724541  52.7150764  51.3502846  79.2122726  54.4493332  11.0445871
  79.3402405  55.3940849  11.1300459  79.2483902  54.1205215  11.9428139
  80.4857788  60.6720467  51.4948502  80.4663620  60.9240265  52.4180832
  80.4590530  61.5023575  51.0193481  24.6552029  21.9137135  87.6548386
  25.0089359  21.1692104  87.1681976  23.7194996  21.7270660  87.7313461
  79.5034027   8.5644522  85.1406937  78.9732056   7.8006077  85.3680038
  78.8705521   9.2768297  85.0498581  42.5805855  51.5973167  25.9159412
  42.6377373  52.2599983  26.6042862  41.7064247  51.7134399  25.5436649
  38.9919930  26.1310349   1.8921528  39.2057304  25.1980057   1.8898867
  38.0354233  26.1575680   1.9145000  81.7858887  68.9526215   2.6626985
  81.3566513  68.4775238   1.9511743  82.2364731  69.6773682   2.2291620
  44.6508255   6.3456907  53.1036644  45.4793701   6.2933502  52.6272163
  44.2183304   5.5107832  52.9244652  26.6028805  44.6965752  74.7544174
  26.1700420  45.5322571  74.9291000  27.1882267  44.8790550  74.0193710
  54.7862473  18.4464188  26.1661987  54.4273033  17.9421406  25.4360638
  54.9503403  17.7958279  26.8488655  68.8594208  53.6994133  43.9720116
  68.8918533  54.3235588  43.2470131  68.0183792  53.2544746  43.8675652
  19.2328281   7.2778616  37.5928955  20.1772900   7.1913481  37.4635162
  18.8643417   7.2237782  36.7111206   5.5733752  29.6288738   9.1506433
   5.6067295  29.5337868  10.1025238   6.1572533  28.9457111   8.8210897
  74.0328064  49.1499290  63.1532745  74.4773941  48.9270668  62.3354034
  73.4770584  48.3927498  63.3378105  63.7837944  40.4814072  62.4229851
  63.8742294  39.5820961  62.1078835  64.1699524  41.0177765  61.7305794
   7.5605998  31.2969494  32.9775848   6.8197122  30.7014599  32.8648529
   8.2093573  30.9951515  32.3417702  86.3294678   9.2918978  83.8533096
  85.7673721   8.8457603  84.4867554  86.0644531  10.2103338  83.9030838
   6.2588263  42.0861778  79.8469009   5.9610968  41.1831551  79.9570847
   6.7376919  42.2804832  80.6526108  81.9457397   4.6836934  67.8603134
  81.0910492   4.2541952  67.8960342  82.3746719   4.4319267  68.6781540
  58.3025589  37.7933846  62.6174545  58.5597229  37.5848274  63.5155640
  57.3459358  37.7622108  62.6288643   3.9848597   9.5541315  51.3422203
   4.5620947  10.0452194  50.7575264   4.1731987   8.6357660  51.1489182
  21.3962784  50.0460663  26.4159184  20.8115826  50.2431259  27.1477165
  22.1796951  49.6806564  26.8269711   5.6759777  32.5560951  55.1648941
   6.1835885  32.6672249  55.9687691   4.7679181  32.6950150  55.4338951
  26.3573399  23.5497074  74.8643417  26.7979641  23.4360752  75.7064667
  25.5712395  23.0075512  74.9302521   4.2564168  36.4629898  66.1175537
   4.9623628  35.9417801  65.7351837   3.4716685  35.9282875  65.9971619
  50.4838371  20.7062473  80.4477005  49.9797020  20.1829681  81.0708084
  51.2789383  20.9454689  80.9239578  21.9040146  68.2398376   6.5359869
  22.0792408  68.0019226   7.4464383  22.6758919  68.7371521   6.2655787
  26.8387451  68.0448914  74.5247574  26.3155594  68.6112976  73.9575806
  27.6833134  67.9746628  74.0797806  73.6678848  19.1612320   1.1319499
  73.9617386  20.0076847   1.4686968  72.8110428  19.0267544   1.5368713
  15.2259588  12.1267395  79.0222473  14.7695122  12.9129286  79.3219070
  15.8972521  12.4532413  78.4230881  36.9434052  46.0023842  60.6584473
  36.3694839  46.7678299  60.6277466  37.5850296  46.2111855  61.3373833
   1.7921762  33.6155281  24.3281441   2.3045084  33.5779800  23.5204697
   2.3537531  34.0829811  24.9464893  43.0346489  51.1255913  49.2398453
  42.3963623  51.5022697  49.8455925  43.7382889  50.8034058  49.8031578
  43.6985283  47.1115875  67.8696060  42.9469566  47.1272888  67.2770462
  44.2668152  46.4264984  67.5175629   3.3295875  28.7939568  14.3583326
   3.9973099  28.6746464  15.0337172   2.6965635  28.0946789  14.5211926
  30.1253986  34.0072823  76.5784531  30.5468349  33.1787910  76.8069763
  29.4953346  34.1578789  77.2831268  54.0729103  54.2142410  47.3984756
  53.2899780  54.3867264  46.8755074  54.0365486  54.8598480  48.1042366
  14.2452755  69.3293839  81.9389877  14.6892557  70.1626892  81.7817688
  14.9374800  68.7431107  82.2445450  23.2294922  60.6553001  48.4082146
  22.3241425  60.3560600  48.4920616  23.5670013  60.6513023  49.3039284
  72.0470581  47.6192131  20.2826824  72.7735519  48.1300926  19.9257011
  72.0655594  47.8007317  21.2223320  23.0383339  63.5246620   2.0764427
  23.8417320  63.7599602   2.5405726  22.5528755  62.9820862   2.6978719
   9.0155048  10.7425823  70.2426376   8.3322945  10.3359108  70.7756195
   8.8760519  11.6832914  70.3515015  79.3077087  23.0528297  88.0972977
  79.9793625  23.3362732  88.7175980  78.6802521  22.5644836  88.6302490
   2.7343776  19.1776791  87.1260071   3.3430915  18.4546261  87.2773132
   2.0059226  18.7814407  86.6479034  50.2664299  55.5192337  54.5570259
  49.7047157  55.7891273  55.2835693  49.9890823  54.6246758  54.3593521
  85.9853897  53.9265785  11.6279001  85.5576096  53.3871346  10.9628868
  85.4842682  53.7638054  12.4270344  58.9849014  34.4434204  50.8801460
  59.2427368  34.8053703  50.0323601  58.0359001  34.5639496  50.9134102
  10.7363501  61.0354652   7.7112117  10.4924650  61.9594841   7.7654328
  11.5384932  61.0297165   7.1889424  83.5592194  17.8406620  14.5519543
  83.5430222  17.5606174  15.4671288  82.7176895  17.5524864  14.1983700
  37.9247704  67.6142578  88.8076324  38.7717819  67.1689987  88.8310471
  37.9935913  68.2952576  89.4767685  52.5495300  68.5843124  78.8780441
  51.7625809  68.0799103  78.6718597  52.6932068  69.1305618  78.1052551
  46.8995819  17.2586460  66.7023773  46.4345093  17.3537693  67.5335770
  47.3460197  18.0965366  66.5804520  34.2638855  36.5113907  32.5015373
  33.5790901  36.4595795  31.8347511  34.0391541  37.2867165  33.0159264
  66.9100113  44.5181580  52.3022614  66.4039154  44.7919464  53.0671997
  67.8223495  44.6566391  52.5566063  55.9698105  12.7788315   3.3470230
  56.2087593  12.8498621   2.4228530  55.1112747  12.3556242   3.3405893
  44.4471397  20.6350384  81.0842361  44.6965141  20.7760296  80.1709061
  44.4298935  21.5126343  81.4660187  74.7490387  30.0828438   3.1704745
  74.4497604  30.8062172   3.7212870  74.8309402  30.4650993   2.2967439
   2.8377237  25.5585213  40.3943253   2.6985242  24.7008362  39.9927864
   3.5994663  25.4368725  40.9610519  43.3157616  55.0735626  71.8159714
  43.9499397  55.7899666  71.7874451  43.5465279  54.5806160  72.6033630
   8.5349321  37.8611565  13.9637613   8.1832829  37.6016884  14.8153782
   7.7655454  37.9336205  13.3989382  22.3337498  50.8405838   1.6450950
  22.3839283  51.6854172   2.0922787  21.4337273  50.7933388   1.3226676
  86.5124893  30.7177429  50.1007767  86.4066010  30.4437656  51.0117950
  85.6762848  31.1248379  49.8743553  53.6694489  13.7691956  87.5038910
  53.5605392  12.9990988  86.9459305  54.2523842  14.3439064  87.0077820
  48.5016098  30.5763836  17.1991959  49.0848999  29.8185959  17.1571808
  48.7500763  31.0253735  18.0072212  16.2253876  16.5266228  71.3312378
  16.1375599  17.2728920  70.7382736  15.4867496  15.9585381  71.1123123
  16.0574284  22.3530388  56.8707161  15.7018623  21.6891975  57.4615822
  16.7700653  21.9082680  56.4118500   6.8170104  62.4687729  75.7889938
   6.2596855  62.2915268  76.5467529   7.0355744  61.6028175  75.4446411
   3.5867352  10.2992859  88.8461304   3.1844511  10.8010540  88.1371689
   3.7349825  10.9417124  89.5400620  72.9107208  31.1115952   7.4648314
  72.8569336  30.3245773   8.0069933  72.0255890  31.4755516   7.4824891
  34.4878616  40.5205498  76.2097321  34.9749222  41.0898476  75.6139908
  33.9158897  41.1151047  76.6950989   6.1166353  24.9402008  63.8754692
   5.7737861  24.8705750  64.7664490   5.3936563  25.3101807  63.3688660
   1.6150644   2.6800795   5.7009664   0.6636366   2.6175663   5.7852821
   1.9506569   1.9599464   6.2348371  41.3459167  59.3663788  53.0153542
  41.8056831  59.8645248  52.3395615  40.7601585  60.0028534  53.4252548
  75.0618744  60.5850906  76.0168304  75.5318680  59.8046417  75.7231674
  75.3878098  61.2870636  75.4535980  44.0670738  35.0587120  84.9857712
  43.7511368  34.9911232  84.0847473  44.7113152  34.3554535  85.0670700
  15.8547192  19.8037243  53.5047073  15.6303406  20.6957760  53.7695236
  16.6256714  19.5852146  54.0282707  50.2403564  43.8349037   2.3688848
  50.3905258  44.7074471   2.0050852  49.9070892  43.3224106   1.6323282
  21.4217014  60.7281151  16.2527046  21.8018818  61.0159149  15.4227257
  21.9225540  59.9469185  16.4874668  12.0673189  41.7555962   4.5181527
  12.1916513  41.3631248   3.6540117  12.8752089  41.5551071   4.9907527
  77.9377594  59.1177406  59.6561470  77.6312637  59.9592743  59.9939499
  77.7849426  58.5019531  60.3728676  53.0246239  49.8658257  52.3803482
  53.4811935  49.3556747  51.7113762  52.7647133  49.2204971  53.0377884
  44.4196014  55.4100838  86.5812607  44.6849670  54.5045929  86.7421722
  44.0311737  55.3939934  85.7065582  63.0272827  44.7994728  43.5010338
  63.1620407  45.0455589  42.5858765  63.4192085  45.5150070  44.0016670
  64.7253647   2.2927666  35.9785538  65.0867386   3.0647180  35.5429726
  64.7803345   1.5991359  35.3212242  65.7322159  58.2745361  40.3832474
  65.3195572  58.8719101  39.7594757  66.2656708  58.8411751  40.9405365
  14.8095808  26.0487366   0.6164579  14.2489014  26.4270725   1.2937559
  14.9953241  25.1624908   0.9267800   2.4143481  32.2902412  71.3825150
   1.8118380  32.8778534  71.8385010   2.9046798  31.8595009  72.0827103
  41.2580299  39.5005836   6.6487627  41.2288513  39.6785622   7.5888181
  42.0370483  39.9640884   6.3413076  40.3945351  44.2226219  68.2419281
  40.2575226  43.3777847  67.8133163  40.6811104  43.9983559  69.1272583
  50.3737831  17.6700420  24.6366787  50.7401466  16.9993916  24.0602760
  51.0623589  17.8342915  25.2809753  33.5324440  35.8088264  84.6580276
  34.2859535  35.2204666  84.6101685  33.3566208  35.8971062  85.5947876
  41.2148552  69.6368027   8.2014847  40.9165459  70.4642105   7.8238177
  40.4169121  69.2211838   8.5282574  37.4442787  51.3201141  79.9367142
  37.4058342  50.3637695  79.9493866  36.5829315  51.5985870  80.2477798
  54.7393723  15.4604130  50.7696266  54.5281677  15.2396154  51.6767502
  54.2648773  16.2752132  50.6047440  62.1413727  47.5711098  74.7725754
  61.9442787  46.6857719  75.0784531  62.0800323  48.1150208  75.5578308
  45.6222076  38.9756775  24.7600613  46.1908989  38.5957146  24.0903950
  45.8666611  38.5226364  25.5670509  38.1243210  54.7898903  84.7379837
  37.7058220  53.9987297  84.3986435  39.0189514  54.5183830  84.9432907
  53.7574844  62.3283501  54.5947914  53.5164452  61.8876228  53.7799950
  52.9437332  62.3641396  55.0975380  21.1316357  11.4968815  52.1644745
  20.3741131  10.9815044  51.8873863  21.0654144  11.5258961  53.1189384
  10.5092831  65.6675262  61.4127693   9.6919889  65.6258850  60.9162521
  10.9302330  64.8229446  61.2524300  44.4410591  19.3921452  71.3907852
  43.5659485  19.1065693  71.6532059  44.8455505  19.7005405  72.2016602
   7.5205932  63.5979347  13.0996523   6.9633670  62.8465843  12.8966618
   7.7201772  63.5034180  14.0310307  36.4757729  45.2583580  16.2281952
  35.5505600  45.5035324  16.2383213  36.8982201  45.8935623  16.8063717
   1.9124880  27.2257195  77.8114090   1.2802930  27.0980854  77.1041107
   2.5152507  26.4865932  77.7301636   3.4372952  68.8840637   3.0391979
   2.9968824  69.6755981   3.3486192   3.6532230  68.4024200   3.8377109
  82.8117371  40.8704376  34.7445183  83.3083572  41.1571693  35.5109291
  83.3801270  41.0727463  34.0013885   8.8516302  24.8684597  43.6053543
   9.0309486  25.5531960  42.9609833   9.6982794  24.7017956  44.0196495
  10.2111273   4.9243593  71.0397949  10.4359016   4.3089542  70.3419571
   9.2548418   4.9053564  71.0770645  56.7998123  26.5300941  49.6676369
  56.8255119  26.4158516  50.6176491  56.8245392  27.4783821  49.5396805
   9.2394934   6.3339853  82.8815079   9.1610937   5.4884548  83.3232803
   8.3669491   6.4994578  82.5244141  44.0356712   3.9377646  79.6860504
  44.8960457   3.5197144  79.6511307  44.0877914   4.5308285  80.4355774
  23.9692402  24.6566162  80.4497299  24.0769386  25.6000824  80.3292923
  24.7508850  24.3858738  80.9313507   0.9585220  52.1773262  82.6013718
   0.2541212  52.3821297  83.2162704   1.3915356  51.4119720  82.9794769
  29.3616104  35.1874428   7.8893290  28.5304451  34.8689117   7.5372891
  30.0254059  34.8203011   7.3055353  37.8490753  67.3826752  55.5628815
  37.6484718  67.8355942  54.7438202  36.9941521  67.1363983  55.9159927
  82.3564911  52.9674950  70.0144806  82.8707581  52.1845207  70.2112427
  81.4587479  52.7286415  70.2452240  71.6124725  46.7424660  71.7905121
  72.4471512  47.2071228  71.7302322  71.0762711  47.1219330  71.0942841
   7.8658085  25.4593182  81.8318634   6.9912753  25.7763577  81.6062317
   8.3724566  25.5602551  81.0260391  37.1922836  54.5973587  26.6785202
  36.6179237  53.8318901  26.6585102  37.9265747  54.3314285  27.2319908
  61.3892822   4.5271549   3.1230066  61.9514503   3.8289719   2.7872357
  61.4870186   4.4769230   4.0738778   4.0631571  14.6651945  18.0283127
   4.0602779  14.6654606  18.9855080   4.7049484  15.3343744  17.7905445
  82.2944031  56.0984993  46.3045464  82.0380173  56.2921219  45.4028778
  81.9431610  55.2237358  46.4708405  66.6572800  21.9853401  73.5377350
  67.4952240  21.5730591  73.7477264  66.0948715  21.7785454  74.2841721
  33.9105301  27.0146122   8.9212618  34.5170135  27.7547874   8.9447327
  33.4258308  27.0759239   9.7443895  85.6417618  46.5237579  34.9014206
  85.5048523  46.1214523  34.0437279  86.2090683  45.9089088  35.3665581
  17.2965012  30.2261372  10.3145094  17.4254742  30.8614655  11.0187502
  18.1013947  29.7081127  10.3088932  14.4056511   4.0651751  15.4473047
  14.1502390   4.6876364  16.1281414  14.9261713   4.5825644  14.8328133
  72.8948288   0.5081923   0.9807797  72.9302979   0.7282556   0.0498953
  72.5407028   1.2929476   1.3990868  12.7033691  49.8137856  82.7496414
  11.8761978  49.8097801  82.2679749  13.3740931  49.9061241  82.0730133
  76.0104599  26.1268559  52.7461014  76.5700684  26.4545517  53.4501572
  76.1962204  26.7030296  52.0046501  27.1608963  66.5155106  46.5877876
  26.3583527  66.1337509  46.9433441  27.7729721  65.7813797  46.5363197
  38.8871460  48.3441162  15.4396105  38.3427086  48.5869026  16.1885262
  39.4310150  47.6253777  15.7618675  63.2535057  59.8019218  22.0900574
  62.4000053  59.3967361  22.2436676  63.4839211  60.2005234  22.9292564
  29.1478863  13.6957932  22.0575657  29.3295231  13.9709282  21.1589336
  28.3736401  14.1987438  22.3101826   9.8598995  65.4333191  74.9685364
   9.6440058  66.3567810  74.8387833   9.3418617  65.1708603  75.7294464
  61.8483810  10.2191935  78.6819534  62.2250557   9.5077591  79.1998444
  61.2694473  10.6780348  79.2906647  39.2407112  14.2926311  54.4686584
  38.7704544  13.9881897  55.2448044  39.3615952  15.2308931  54.6145477
  33.2988205   3.9812460  74.3806915  33.6928711   3.1351888  74.1682205
  32.3902283   3.7741404  74.5993271  52.6544380  64.7164841  58.4700623
  52.9945679  65.1067429  57.6649284  53.1682167  63.9169846  58.5843315
  41.9215355   6.6204219  31.6110363  42.3779793   6.1967101  30.8841515
  41.1148758   6.9589710  31.2225571  47.6562538  69.0276871  20.3563442
  47.8361244  69.5809097  21.1164913  48.1172943  68.2094421  20.5411510
   9.7086067  57.8424873  17.0056095   9.0948172  58.5538979  16.8228893
  10.0746918  57.6164589  16.1505489  25.1272964   3.0572393  49.8188095
  24.2854271   2.6280644  49.9714394  25.6839561   2.3695619  49.4534836
  18.9480534  20.3730297  53.5332260  18.6264038  20.8436012  54.3022079
  19.0558987  19.4702778  53.8326263  21.8737278   0.0483658  37.7866974
  20.9174442   0.0516503  37.7449493  22.0775051   0.4300782  38.6405144
  36.8695183  43.5841599  59.8624115  36.9821434  44.4095840  60.3338165
  37.7183838  43.1481209  59.9367752  69.7781601  28.2892361  49.6965103
  69.0634308  27.8971100  50.1981316  70.5666656  27.8578148  50.0257111
  15.9400988   9.0642920  78.0178146  15.9667511   8.7458992  78.9201202
  15.5971203   8.3265305  77.5135345  33.9644470  62.6179161  63.8217697
  34.4584732  61.8154411  63.9897041  33.4769402  62.7727966  64.6308289
  74.5198288  45.1739693  23.6529942  74.9455414  46.0292053  23.5932522
  74.8313217  44.6971130  22.8836994  65.0764618  24.2128506  78.3814926
  65.3556213  24.2462883  77.4665146  64.6447830  25.0539837  78.5310974
  67.2708664  13.1359005  56.5840797  66.9365234  12.9379807  55.7092819
  68.0062485  13.7291708  56.4308624  76.5283432  35.7315102  67.4704208
  77.2341537  36.0160370  68.0510254  76.9410400  35.6580200  66.6098862
   0.8507827  43.7329025  60.7434311   0.9089411  42.7952499  60.5599785
   1.7497762  44.0500603  60.6570930  45.5071564  58.4438095   3.6279933
  46.1645775  59.1145859   3.4433575  45.6708794  57.7621651   2.9762371
  86.8677902  10.3955984   2.8913138  87.1168365   9.5036345   3.1333981
  86.4159088  10.2989426   2.0530457  12.4717903  34.8587341   4.9270744
  12.0689116  35.1330261   4.1032524  13.3776007  35.1614838   4.8631911
  18.0159321  63.3032150  13.3244228  17.6997433  63.7027969  12.5141201
  18.8136349  62.8405075  13.0679073   6.4227715  22.6699924  25.0428352
   6.6092033  23.6067142  25.1063042   6.0310340  22.4460144  25.8869972
   9.4998064  23.4891300   7.7271538  10.0289660  24.2697887   7.5634599
   9.8283386  23.1471081   8.5586100  65.8916779  62.2984924  63.7626839
  65.9893951  61.5525589  64.3545227  66.7512360  62.7196770  63.7642403
  83.5646439  49.1044006  33.8378487  83.3337402  49.1772423  32.9117775
  84.3974838  48.6325874  33.8406410  81.9617844  41.5942497  53.1074791
  82.5125732  41.3065567  53.8355522  82.4106140  42.3636703  52.7570839
   1.5554141  10.1952982  13.9671564   2.2045195  10.3367071  13.2780285
   1.6096435   9.2590485  14.1588011  59.7101440  20.0893803  82.2936935
  60.4970779  20.4830856  81.9169235  59.1274490  20.8304577  82.4595337
  50.0134659  27.9409847  10.2353563  49.4834862  27.2137489  10.5616722
  49.6698456  28.1133041   9.3587360  56.8431931  64.0075226  37.1334763
  57.6310692  63.6434174  36.7298584  56.3147621  64.3116837  36.3955917
  75.7979050  60.3512917  -0.1969254  75.6876602  59.4668503  -0.5459808
  75.7394333  60.2431526   0.7523475  64.1100311  31.4688396  74.5906448
  63.1855316  31.7075233  74.6582184  64.3290863  31.1129837  75.4518127
  61.1689453  12.2866783  30.3262596  61.1120377  13.0525866  29.7549667
  60.6050186  11.6348715  29.9098892  15.3656969  60.0910912  27.8215122
  16.2373199  59.9970551  28.2057781  14.7981529  59.5630417  28.3830166
  72.0555420  49.3052788  12.5212545  72.5929489  49.4797287  11.7486019
  72.4849167  48.5646324  12.9493980  40.2672081  43.2278595  85.2128983
  39.8539124  43.7889977  85.8690491  41.0258293  43.7286720  84.9130402
  83.3285904  57.6749611  34.1432571  82.9221497  56.9095230  33.7368736
  84.1935959  57.7307434  33.7372055   4.1636763  10.0963678  36.8172607
   4.1950006   9.4689503  36.0950432   4.9938374  10.5693998  36.7597656
  59.8669319  50.2409019  69.1951599  60.1926765  50.3937378  70.0821533
  60.1368103  49.3453102  68.9918976   1.3882750  55.6173897   4.2333899
   0.7469870  55.1053276   4.7261090   2.1396661  55.6903534   4.8218794
  69.9788895  50.9629898  12.9350834  70.7425613  50.4032516  12.7946386
  69.5173798  50.9533195  12.0965433   5.2212496  32.4923553  35.4194183
   5.8639779  32.0797768  35.9964027   5.4451356  33.4228210  35.4380226
  61.6178284   7.4086399   6.5065656  61.9079094   7.5272202   7.4110122
  61.0788422   8.1785517   6.3250103  45.8472176   1.2241340  10.8230944
  46.6176147   0.8076694  10.4367332  45.7713661   0.8286924  11.6914864
  73.4581070  43.4547348  30.7960224  73.8699417  44.0658646  30.1851616
  73.4288864  43.9295464  31.6266441  73.5260620  43.3269501  71.1213913
  73.4578552  43.7779579  70.2798615  72.6940460  43.5083885  71.5584946
  18.8639050  17.2747364  63.8916206  19.5200939  17.9479218  64.0718155
  18.2761230  17.3050575  64.6464844  85.1942215  55.9582329  55.5819893
  84.2653503  56.1864357  55.6186714  85.2155991  55.1126099  55.1339951
   5.2825480   1.5264106  77.7023010   4.5551867   2.1471808  77.6596222
   6.0026145   2.0271626  78.0856857  56.4383163  23.2902317  23.0239773
  56.5935593  24.1081219  22.5515480  56.4641647  22.6139965  22.3470211
  86.2539291  51.2672272  17.6470604  85.9416809  52.1696129  17.7136364
  86.8403320  51.2718887  16.8905258  78.7124863  24.2561684  17.5039635
  79.1751022  24.2614822  18.3419304  78.9825592  25.0687218  17.0761185
  38.9260559  39.2091026  24.2062550  38.1886749  38.6320267  24.0075493
  39.5286331  39.0891533  23.4722652  35.9244919  58.3096924  47.5219955
  35.1094398  58.4932632  47.0548515  36.4315071  59.1180000  47.4457817
  63.6400604  12.7438974  78.6058350  63.1741562  11.9140930  78.7087326
  64.4798355  12.5003796  78.2163315  60.7949562  54.8401871  36.5320358
  60.9045525  53.8926506  36.6120071  59.9502449  54.9475365  36.0948067
  16.9632034  60.9894295  15.3508091  16.5896416  61.8141289  15.6615505
  16.6259232  60.8942871  14.4600658  48.7510643  29.4219627  21.7435932
  49.6110039  29.8223286  21.6153450  48.2292366  30.1050491  22.1646862
  48.3480873  52.7510529   2.9181843  47.8762970  52.9421577   2.1075511
  48.8228760  53.5585518   3.1150408  63.0240784  34.4175224   3.4930050
  62.3055534  35.0460243   3.4227307  63.5274239  34.7130165   4.2516608
  10.4384279  44.0673866  78.3805084   9.4910574  44.0243988  78.2506104
  10.7784405  43.3005638  77.9194183  13.7674980  11.4145069  40.3767509
  13.9357843  12.2394495  40.8321419  14.3264923  10.7771864  40.8212471
  82.8887177  12.7476406  42.8049126  82.1742935  12.1215792  42.6870956
  83.0799179  12.7192297  43.7423897  77.0643768  65.9180908  36.1525764
  76.6577225  65.1806870  35.6974945  76.9665527  65.7095642  37.0816536
  75.1993332  45.5209274   3.6278384  75.6936264  46.0164566   2.9748783
  75.8208008  44.8712425   3.9563549  43.6995926  59.6505508  72.7918701
  42.7791977  59.8054008  73.0043030  44.1132584  60.5093498  72.8789139
  37.9808426  35.7478752   9.1332865  38.7002411  35.9853325   9.7183599
  38.3546715  35.0875893   8.5497608  24.8926144  30.4218121  12.5923672
  25.0297203  31.1260128  11.9587002  25.0510406  30.8309326  13.4431047
  80.0822983  18.7653122  87.9059906  80.5348663  18.2739582  88.5915451
  80.7001419  19.4523983  87.6561661  41.7912598   2.6339664  69.7077713
  41.1377563   2.7155354  69.0131378  41.7176819   3.4498818  70.2028427
  64.9117050   8.9328279  58.2303581  64.4769592   9.4770489  58.8869057
  65.7863998   8.7793770  58.5875587  67.5500412   0.3648281  62.2628326
  67.1447678  -0.0929775  61.5263596  68.0364838   1.0838106  61.8595085
  70.4338226  60.1574135  58.5748062  71.0643387  59.5043106  58.2712631
  70.9090500  60.6595764  59.2367859  27.5407429  27.0438290  19.5235825
  27.7447128  26.1248817  19.6972542  27.7559681  27.4953213  20.3397102
  34.7942390   6.3701663  34.1287956  34.8419685   6.6032615  35.0559502
  34.2639732   7.0627942  33.7346878  11.3469028  67.3549347  41.1289062
  11.2494135  67.4934235  42.0710030  11.1341887  66.4307022  40.9994011
   9.2653761  17.4346256  65.9836502  10.2054005  17.3374901  66.1358032
   9.0864906  18.3562279  66.1704178  53.6836700  23.1185207  79.0563049
  53.9407845  23.9569778  78.6727448  52.8951454  23.3177814  79.5610352
  39.9216499  58.3958244  39.1162186  40.0922852  58.9897423  38.3852081
  40.5696259  57.6986542  39.0146713  10.4870167  25.3474140  83.7510681
   9.5843477  25.5396042  84.0050049  11.0141659  25.9718380  84.2495041
  19.1778240  37.6796188  66.5735703  18.4992123  37.8867683  67.2160721
  19.2794685  36.7295303  66.6304092  37.2670326  26.0489635  79.2817535
  36.7014847  25.5619793  78.6823883  36.8480339  25.9536324  80.1370773
   8.6588564  40.9292068  76.0999756   8.4097061  40.4083023  75.3365555
   8.9380159  41.7693176  75.7359467  10.0412312  42.2476349  28.0164394
  10.4443569  43.0464363  27.6763821  10.0867062  42.3426895  28.9678230
  69.0547714   8.1104679  12.6272106  69.3733292   7.2399273  12.3886538
  68.1239700   8.0942307  12.4045343  11.1962280  43.8941307   7.8854542
  11.7834663  44.5790024   7.5655584  11.7772865  43.2505455   8.2909184
  26.0154743  39.6433372  80.8986969  25.4206905  39.8172760  81.6282196
  26.1875591  38.7030754  80.9489212  43.3547592  64.2181549  21.9620113
  43.0162506  64.2366714  21.0668583  42.6160851  63.9172935  22.4912357
  38.1681824  17.4420624  71.5220108  37.2278442  17.3972359  71.6951981
  38.2702904  18.2022896  70.9494171  85.6093216   7.4760966  16.5848198
  86.2548828   6.9228911  16.1449947  85.7497177   8.3479586  16.2155266
  19.9612160  30.1106472  22.9360867  19.8350468  29.5122566  22.1997166
  19.7995415  30.9797115  22.5689049   7.2495198  39.3848572  24.7260551
   7.0226350  40.2704430  25.0097733   8.1687250  39.2824707  24.9726562
  19.3608379  20.7241745  65.0338058  19.8013287  19.8880119  64.8820267
  19.8057537  21.0943527  65.7962036  10.0258589  30.9537487   8.3844662
   9.8790922  30.2838326   7.7167053  10.1423674  31.7643738   7.8889432
  59.6658363  10.1211224  67.7829285  59.2427864   9.6696291  68.5132828
  59.5164604   9.5500021  67.0294418   2.0041173  22.4159527  84.8631668
   1.9798266  22.8816242  85.6991043   2.5724761  21.6629333  85.0249100
  79.6897659  46.4556618  28.5002537  79.4426804  46.4711914  27.5756245
  79.1110535  47.0963287  28.9136124  83.1918259  67.6711197  37.1019554
  83.0342026  67.3048248  36.2317734  82.3408966  68.0137863  37.3753128
  76.6616364  28.1865730   3.3936403  76.0150223  27.7062359   3.9107418
  76.2631683  29.0448303   3.2492509   7.7644968  31.6074696  35.8165932
   7.7811036  31.2488251  34.9292793   8.2527637  32.4282608  35.7523537
  19.0787716  43.4142151  12.7992058  19.5794773  44.0984650  13.2434206
  19.7252808  42.9529533  12.2648869  62.1575508  14.0133057  50.8255196
  62.9156494  14.5966549  50.7905350  61.8666267  13.9438438  49.9162521
  -0.0709932  19.3036747  66.0681915   0.1949238  18.3843555  66.0875168
   0.7166499  19.7861633  66.3192978   6.0359406  16.4050922  64.4256058
   5.8156414  17.3262596  64.5639954   5.2106943  15.9985876  64.1611176
  76.3344193  13.6816158   0.3685205  75.5605621  14.0197029   0.8191499
  76.8480148  13.2604246   1.0577586  44.7959290  43.3952904  17.3747444
  44.4445381  42.9382858  16.6106129  44.3299103  44.2312660  17.3891029
  72.6934128  33.0586205  69.9205475  72.1751328  32.6371117  70.6060715
  73.0460510  32.3324394  69.4062119  73.6168365  53.1764908  48.6215744
  73.0725327  53.3632774  49.3864746  74.3196564  52.6203880  48.9577751
  15.0319376  41.3057327  31.7613125  14.2833843  41.6590538  31.2806206
  14.7365999  40.4484596  32.0680466  80.3777542  58.8887215  44.0344086
  81.2610550  59.1603928  44.2838097  79.9602051  59.6907463  43.7203369
  68.4125900  32.2271500  85.9637146  69.3061142  31.9514790  86.1682816
  67.8590622  31.5400372  86.3348083  71.4401016  46.0547638  60.9044189
  71.7551422  45.2474022  60.4980316  71.4722824  45.8780327  61.8446121
  70.6341248  59.0467911  19.4364948  70.6338348  59.8991280  19.8721008
  69.7290726  58.9238434  19.1501503  62.0091515  14.2025604   4.1235723
  62.1419182  13.2667809   3.9721756  62.3995171  14.6265812   3.3593380
   2.4243093  30.2185135  55.1677856   3.1069298  30.4436264  55.7999115
   1.7219461  29.8416519  55.6977806   7.2543821  60.8813667  56.2266846
   7.3325863  60.2873268  55.4802017   7.0380321  61.7284737  55.8370209
  61.5123672  51.2276421  58.7248840  60.6231194  50.9995689  58.9959068
  62.0745697  50.6381836  59.2275772   8.7125902  43.9652367  43.8008270
   9.3973923  43.3612366  43.5136642   8.3884668  43.5884056  44.6188583
  25.8558254  11.1174612  30.9229546  25.0825405  10.5936689  31.1324883
  26.5769291  10.4880161  30.9165611  66.5873260  16.6568966   4.8794880
  65.8631439  16.9746952   5.4187431  66.1715546  16.0892735   4.2305112
  31.5212021  46.8350410  61.6457977  31.8896809  47.6050720  62.0788193
  31.1160545  47.1788940  60.8496475  67.5147705  40.8449249  58.8498306
  67.7279510  41.1675835  59.7254295  67.0555878  41.5731659  58.4314423
   4.6830068  63.1275444  85.7573242   3.9544168  63.7012482  85.5201492
   4.6218133  62.3961754  85.1428452  35.8111839  67.4904099  38.4395714
  35.6043816  68.0209961  37.6701927  36.7213898  67.7066727  38.6420326
  13.1672773  43.0277367  61.6015244  13.8802042  43.2823219  62.1873169
  13.5413857  43.1000481  60.7234306  46.9808235  31.8751011  79.5258331
  47.1951599  31.9287701  78.5944824  46.5336037  32.6996269  79.7165833
  82.1981735   0.6815781  61.2233887  81.6261673   1.0798557  60.5673294
  81.7762375  -0.1510867  61.4352264  20.6482754  44.7044296  76.2046738
  19.7329884  44.7313728  75.9258270  21.1218357  44.3754349  75.4406509
  83.5944672  26.8974304  31.2412472  83.5095062  26.9595318  32.1926460
  83.5462265  25.9593296  31.0571995  42.0085258  47.2792816  13.9314775
  41.7284737  47.5029488  14.8190441  42.5642166  46.5079041  14.0429010
  46.0721931  54.0751801   4.1635456  46.5822639  53.6787834   3.4571953
  45.4084167  54.5989342   3.7148647  13.4638004  19.9921913  77.3177948
  13.7308731  20.9098454  77.3708344  12.5667496  19.9841385  77.6516647
  62.3124504  21.5185566  31.1510563  62.2031517  22.2420120  30.5338860
  63.2082405  21.2137394  31.0065727  42.8981895  44.4933243  72.8488159
  43.6952362  44.1096535  72.4831009  43.0750465  45.4336891  72.8746109
  49.8546333   0.4124760   3.4787209  49.0364647   0.0343078   3.1565087
  49.7209167   1.3584404   3.4195309  63.6295815  46.2443314  63.6015778
  64.5655594  46.0873604  63.4769249  63.2014275  45.5942612  63.0445061
  26.7274475  68.4727325   6.4911947  27.2445278  68.6823120   7.2689700
  27.2881069  67.8880692   5.9812365   9.5223608  46.7375908  87.1993332
   9.7376928  47.5087814  86.6748123   9.7281380  46.9942322  88.0982361
  19.2702236   8.3510523  49.0899353  18.5030727   7.8225217  49.3098602
  19.7923050   8.3608456  49.8921623   4.5860548  51.1355705  58.8104401
   5.3554711  51.3612251  59.3332291   3.8457143  51.4679413  59.3180389
  46.2458534  40.6583977  81.8576584  46.4995461  41.0053864  81.0024033
  45.9661674  41.4271660  82.3546600  31.8857307  64.9176636  49.6580162
  31.0609837  65.1004944  50.1081238  31.8751621  65.4951630  48.8947258
  41.0455933  42.3020630  28.1528778  41.7122841  42.8224030  27.7045498
  41.2616577  42.3848915  29.0816860  59.3301277  44.0373230  74.9890518
  59.1582260  43.1408081  74.7010651  60.2842636  44.1132431  74.9792633
  60.6517334  40.5582008  28.8538895  59.9314995  40.0801544  29.2649403
  61.4297256  40.0377045  29.0539932  66.8638611   6.1910048  67.4844284
  66.4874115   5.5187197  66.9164963  67.2621231   5.7011843  68.2039413
   9.2199984  23.0585575  13.0262089   9.1863050  23.8540192  13.5575638
   8.4675446  22.5437298  13.3177528  57.5014458   2.5084877  40.9638405
  56.8399696   2.8948886  41.5377541  58.0901566   3.2336724  40.7546539
  70.4167404  39.8705025  12.2360792  69.8119278  40.1426392  12.9262810
  70.9916611  40.6253662  12.1100760  51.3010788  53.9201698   7.0678353
  51.6128769  53.2334518   6.4784031  50.5363998  54.2874222   6.6244183
  25.1735611   8.6263485   5.2791977  25.7713013   8.3143854   4.5997734
  24.3633175   8.1399145   5.1271486  73.5923233  56.0969810  80.3919601
  74.0167542  56.2816162  81.2298126  73.6752090  56.9119225  79.8967590
  12.5233383  64.5559845  50.0502129  12.0927896  64.1872787  49.2789040
  12.1695795  64.0543747  50.7847023  49.1011047  55.8270760  73.1723709
  49.8103294  55.7682800  73.8125076  49.4262390  55.3481865  72.4100113
  74.7405472  34.0277405  51.0045280  74.2700119  34.0711517  51.8369637
  74.6606064  34.9083672  50.6380081  47.4665833  60.5573158  44.5263481
  47.5339928  59.6174278  44.3581123  47.5154495  60.6341858  45.4792061
  13.7730675   6.0387607  45.5937653  13.7505322   5.0820851  45.6160393
  12.8798018   6.2940793  45.3632851  16.9591446  38.9634857  79.7528992
  17.0162735  38.1470833  80.2493439  17.4079475  38.7745934  78.9288101
  75.0840988  34.8687592  74.1506805  75.1766129  34.8228798  73.1990662
  75.1666412  35.8003120  74.3547058  81.7085800  20.0260124  76.3517685
  82.1588440  19.5939713  77.0776062  81.0324173  20.5576305  76.7717972
  50.1530037  59.9570656  50.0000000  50.9425392  59.4272652  50.1103592
  49.9817238  60.3159180  50.8707008  41.1705055   4.6931887  71.3012238
  40.5717087   5.4054322  71.0767670  40.9059677   4.4263439  72.1815872
   8.1618662  22.9037762  63.1893005   7.6913199  22.0795937  63.0646286
   7.5268888  23.4801426  63.6145515  30.9399090  54.6892471   7.3290925
  30.1033001  54.2242928   7.3176126  30.9313812  55.1773415   8.1524544
   1.5080086  42.1162796  14.0084372   1.7863635  42.9223328  14.4432135
   1.0412979  42.4141846  13.2276278  31.2524834  28.1367283  81.7089462
  30.4544048  27.7053814  82.0143051  31.0556469  28.3949757  80.8085022
  18.9297600  16.2137051  70.7570877  19.4403229  17.0083714  70.9122086
  18.0759888  16.3972301  71.1490402  85.1035004   9.3045197   6.5380640
  85.8012848   9.3734732   7.1896548  84.6379471   8.5009098   6.7698116
  15.1925182  48.2318993  88.7376709  14.5230970  48.6462021  88.1931915
  15.1412268  48.6947327  89.5739670  12.4711180  27.2460060  85.3452682
  13.2011929  26.7671547  84.9529343  12.4529800  26.9511528  86.2557449
  85.3209534  32.0454254  62.5882568  84.8594284  32.1122665  61.7523346
  84.6513596  32.2298203  63.2469482  83.9151154  27.3318405  85.1131821
  83.9972992  27.7702293  84.2662506  82.9715347  27.2801037  85.2655411
  14.6522999  25.4889965  85.1058426  15.3208790  25.4753113  85.7907104
  15.1161442  25.2200527  84.3129044  10.9009323   5.4225564  75.6541824
  10.3268127   4.6989260  75.4032288  11.3332319   5.1194992  76.4526215
  60.7473145  59.4552498  29.1039009  61.3140678  59.6130180  29.8589725
  60.1607475  58.7538490  29.3871040  25.9249096   9.9842319  72.1151505
  25.9611530  10.7372732  72.7049408  26.8008728   9.9376545  71.7320709
  31.1612873  34.6316757  10.2227116  32.0911102  34.5069046  10.4127035
  31.1453342  35.0146484   9.3456097  74.3274994  52.6439705  13.9439697
  74.8584747  53.1721230  13.3478594  74.0575867  51.8897972  13.4199448
  32.5269508  54.3203316  25.4171505  31.5879745  54.1356087  25.4378567
  32.9339752  53.5329895  25.7786160   9.0192404  63.2189980  77.2778397
   8.7628040  63.6085663  78.1137314   8.2014875  62.8867416  76.9075470
  29.2995071  22.8760910  80.8995132  29.7708836  23.6671734  80.6383133
  29.7123356  22.1741810  80.3963928  71.5091858  70.5796738  88.0483170
  71.6602402  70.5983582  88.9933395  71.3684006  71.4960022  87.8101044
  13.2687855  46.3796539  87.0015640  12.4772940  46.6903305  86.5619583
  13.8999634  47.0904045  86.8889694  67.6234818  27.3641243  22.0966129
  67.1546173  27.0080814  22.8513527  68.5285187  27.4508095  22.3959808
  58.3498230  21.1490059  86.3142242  57.9235153  21.9292507  85.9596634
  57.6483154  20.5008926  86.3780441  82.3853073  68.6049347  51.5653152
  81.6165314  68.6517944  52.1336555  82.7514877  69.4891205  51.5843544
  46.5606804  16.5474052  71.1304398  47.5095139  16.5431366  71.2566605
  46.2013359  16.4474678  72.0119781  42.4910736  68.0679855  34.1837730
  42.2518616  68.5550919  34.9722786  41.8616447  68.3574371  33.5232620
  15.5110960   9.1210270  43.3954697  16.2083530   9.1672068  42.7413063
  15.9339943   8.7514963  44.1706047  10.8441715  25.6782646  60.7346725
  10.7783709  26.4370174  60.1548500  11.7323399  25.3486023  60.5978851
  78.7321548   4.1535950  24.4544201  78.1163254   4.0394659  23.7305660
  79.5523071   3.7796266  24.1323528  10.0818443  33.5437431  11.0745764
  10.7479439  32.8995247  11.3144159   9.4962931  33.5758324  11.8311033
  41.2380905  12.7893753  14.9014006  40.7755241  11.9870510  15.1433554
  41.9231071  12.4986305  14.2993631  45.6419487  31.3451252  66.3290176
  44.8686104  31.8088951  66.0079269  45.8588638  30.7284184  65.6298370
  14.0827951  27.4349194  18.2476559  13.6486406  27.0541420  17.4842758
  14.6218987  28.1401787  17.8895912  63.7644730  40.8548279  12.2044830
  63.8228722  41.8031998  12.3203011  63.2565422  40.5524216  12.9573393
  12.1168118  27.5185089   8.6888361  12.1117706  27.6429882   9.6378937
  12.4320765  28.3521042   8.3396082  84.8166733  18.9651680  57.5857430
  84.9357681  18.6760883  58.4904442  84.7672882  19.9193325  57.6437187
  33.3536530  59.3937683  25.8637848  33.3497925  58.5894127  26.3826523
  34.2704620  59.5151138  25.6168690   1.7688450  51.8053246  12.4694643
   2.2603965  52.6227074  12.5500631   1.9524781  51.3342667  13.2822466
  82.3923798   8.1588383  65.8351288  81.8345032   8.0080166  65.0720749
  83.2723389   8.2599859  65.4722443  86.9697723  31.0073605  74.7814484
  86.7736053  30.2096882  74.2900467  86.4488754  31.6866951  74.3531952
  34.0534363  53.0496445  58.4370270  34.4573288  52.3306923  58.9230461
  34.7892647  53.5061111  58.0290680  47.5679817  43.2317047  87.6960526
  47.8774300  44.1075478  87.4650345  47.5238380  42.7653580  86.8613052
  41.4610329  62.9174347  61.4633713  41.4695396  63.1521072  62.3913193
  41.8417778  63.6760750  61.0209618  52.8670616  47.6305313  16.3418560
  52.0762634  48.1665382  16.4015522  53.2036667  47.7974663  15.4614811
  75.1886063  19.6006241  23.5201035  74.9693451  20.0869522  22.7253456
  74.4407883  19.0195808  23.6593304  75.5958786  41.3315926  15.5441685
  76.5356522  41.1556320  15.4984121  75.3423004  41.0514641  16.4236317
  31.8803425  52.0512962  59.8195343  31.6506691  51.3192520  59.2471733
  32.6643333  52.4296913  59.4215240  13.7133846   6.7008271  71.9753189
  13.9604883   7.6232657  72.0407257  12.7631483   6.6986685  72.0905533
  74.7089157   8.6986256  70.4661560  74.8676376   9.6099043  70.7123489
  74.5640106   8.2475758  71.2978897  28.5239677  59.9846725  38.3958206
  27.8451195  59.7227631  37.7738876  29.1830349  60.4253616  37.8594856
   6.4267707  24.7993526  48.1190910   5.5370359  25.1296520  47.9945717
   6.3079047  23.8983822  48.4196815  79.6568375  13.6755018   8.3874388
  80.5977173  13.5976429   8.2296028  79.5669708  14.4712839   8.9117365
  72.4342575  42.3129539  65.7303162  72.9376373  41.6850166  66.2485123
  72.5177078  43.1386147  66.2073364  25.3737106  49.7150879  20.3065090
  25.8090801  49.9015579  19.4746952  26.0146561  49.2069016  20.8036709
  34.6651077  68.0131378  48.6390114  34.9984131  67.1267319  48.4996719
  35.0491371  68.5277710  47.9291458  56.5425224  62.7906532  50.7542839
  56.8565178  62.3086472  49.9892273  57.0707932  62.4584198  51.4800797
  56.1491394  12.5616598  18.1018505  57.0232925  12.9414024  18.1906319
  56.2433128  11.9017582  17.4149036  73.4845047   5.7205119  57.8697395
  74.3766632   5.4913530  57.6094055  72.9257736   5.1786675  57.3125610
  18.8393593  68.0538712  50.7594719  19.4441090  68.6192856  50.2790413
  18.5374813  67.4191513  50.1096764   0.7624629  58.2583046  12.4259329
   0.7984694  59.2135811  12.4747066  -0.1599647  58.0614052  12.2628689
  70.7250977  41.2369080  56.2068901  71.0726547  40.4068947  55.8805351
  69.8654785  41.0129700  56.5634575  12.4358082  28.7708855  88.6096649
  12.8909378  28.3040218  87.9088593  11.6734018  28.2259674  88.8046799
  41.3040848  20.5035572   3.5669198  41.6299438  20.2234478   2.7115915
  40.7230339  19.7957039   3.8454053  18.3951607  22.1751232   2.5833833
  19.2825603  21.8177433   2.5512459  18.4300098  22.8414440   3.2697017
  30.8108273  10.8719521  21.5889626  30.3002338  10.8895655  20.7795086
  31.3754311  10.1042137  21.4993420  84.1141739  38.8400154  43.2873268
  84.6015930  38.0175781  43.3347435  84.6910400  39.4328880  42.8057098
  66.3022079  44.5501938  88.3085403  66.3991013  43.8315697  87.6837006
  65.8416519  44.1608200  89.0518494  49.7712784  51.6357498  43.4266357
  50.0965996  51.2048950  42.6362152  50.5277596  52.1125679  43.7681236
  70.8313293   2.9982786  62.3005295  70.2038040   3.5824425  62.7261963
  71.2443314   2.5237658  63.0219879  32.8250504  51.4587555  25.8723431
  33.2731857  50.6157112  25.8038845  31.9991016  51.3295097  25.4061489
  57.7884674  70.3705902   9.1143084  58.1977539  70.1773758   8.2708721
  57.3702126  71.2222672   8.9880571  22.1417618  18.0442905  20.3477001
  22.0268288  18.1716251  21.2894039  21.7915668  17.1694164  20.1798038
  35.7877426   0.4842290  88.8281250  34.9524117   0.0971437  88.5661774
  35.7670441   0.4736104  89.7850418  55.9886360   3.3933885   0.4771887
  55.0444527   3.5297155   0.3986790  56.3695488   4.2564173   0.3149574
  10.7589388  19.2274342  26.6233749   9.9530783  19.5509567  27.0260582
  11.3382387  19.0418739  27.3624344  54.7610435  42.4023476  25.4256725
  55.4013786  42.6739922  24.7680912  55.2676926  41.8906097  26.0562763
   4.1834574  14.7435122  86.5054550   4.7575684  13.9825869  86.4181595
   4.2485280  15.1907043  85.6616440  36.0798073   5.8793926  52.5335274
  35.5338135   5.5601592  53.2520103  35.4787521   5.9583526  51.7927666
  67.7458115  40.4229393  79.6735916  66.9322205  40.9155121  79.7816391
  67.4611511  39.5309525  79.4746933  29.2406330  66.9303436   6.4808035
  30.1354485  67.0851288   6.7834187  29.3420734  66.3773804   5.7060905
  39.8394127  19.1293430  83.9071426  39.3421745  18.3311996  84.0858917
  39.7355957  19.2705116  82.9661179  38.9559517   9.2217350  38.7598495
  39.7950554   9.2660570  38.3014030  39.1454964   8.7307930  39.5593987
   1.8757697  62.1258736  44.9996796   1.9448962  62.8573570  44.3861771
   2.1626027  62.4883499  45.8378716  55.9853439  20.8252068  62.0198021
  56.7028427  20.4525261  61.5074234  56.3579941  20.9598560  62.8911438
  55.2915001  58.5869102  77.1403656  55.5154724  59.5174980  77.1491623
  55.7404900  58.2397690  76.3695679  16.8235283   2.1744797  25.2047653
  15.8975391   1.9327205  25.1866207  16.8845654   2.8373740  25.8925705
  69.0473785  57.5668488  33.4283104  68.7505569  58.3392448  33.9094887
  68.4138260  56.8858223  33.6542358  81.0942078  42.3527946  18.1193638
  81.0419388  41.6574593  17.4636154  81.5408096  43.0712776  17.6715240
  22.5840988  51.6353035  13.2806015  22.4001846  51.9340096  14.1712093
  21.7306957  51.6348877  12.8470888  68.9646454  60.1063309  56.0118370
  69.1270218  61.0448647  56.1067963  69.5941010  59.6933403  56.6029854
  14.6341639  69.8059540  20.5980930  15.5179615  70.0751877  20.8483906
  14.4816999  70.2368011  19.7570477  20.9601612  62.7864723  77.8738785
  21.4259872  62.7894440  77.0376816  20.3767662  63.5438118  77.8257446
  82.4543152  50.9001122  58.5258904  81.9279709  50.1347885  58.2946625
  83.0294647  50.5924530  59.2264519  46.5709648  44.6415939   8.9061146
  45.6972504  44.5068436   9.2731256  46.7616463  45.5644264   9.0742130
  79.0236053  43.7046890   3.2144885  79.1383820  44.3274155   3.9323111
  79.9148407  43.4651909   2.9603713  23.0375423  24.2932491  22.4342251
  22.5379276  24.8744907  23.0076141  23.7783585  24.0079880  22.9690590
  47.2089691   9.0906630  35.5535202  46.4105988   9.2527237  36.0560837
  47.4713707   8.2037926  35.8001709   2.0871999  51.0908890  49.4331741
   1.8011156  50.2549744  49.0648880   1.9407028  51.0004463  50.3747635
  62.0601730  50.8698502  25.6583233  61.3462143  51.5018654  25.7423134
  62.3379250  50.7012177  26.5586834  42.1885834   4.9949069  40.4791870
  42.0327492   5.6912298  41.1172180  41.7407990   5.2914486  39.6868591
  48.8597794  65.6693420  83.5650558  48.3530312  66.4810944  83.5874252
  48.5346832  65.1634445  84.3097763  24.0314846  71.3349228  10.6278496
  24.1378918  70.4024277  10.4398155  23.8066883  71.7254257   9.7833319
  13.0266790  48.5569191  42.6844063  12.5996590  47.7221031  42.4921417
  12.3650341  49.2173462  42.4787483  30.4914017   6.5902128  65.6169128
  30.4494953   6.7612071  66.5577850  30.8825550   7.3815904  65.2468414
  13.5649872  59.2472229  45.6906586  13.4920015  58.9536972  44.7825012
  14.4863939  59.4859543  45.7918930  78.0248108  29.4189720  40.7126999
  78.3639984  29.2390156  39.8358841  78.7911758  29.6991272  41.2131271
  66.4428177  71.0095062  64.5926666  67.0376053  71.3573074  65.2571182
  66.8771591  71.1971741  63.7605896  40.5226746  24.7976360  72.6514664
  41.1229744  24.0534534  72.6968689  40.1111603  24.7212353  71.7906189
  26.6695499  67.7712631  66.5020447  26.8935108  67.3454056  67.3295212
  26.1235619  67.1323166  66.0439224  70.2071152  36.5054092  69.9714737
  69.7835541  35.6759682  69.7504501  70.5003510  36.8561668  69.1305084
   2.2092905  32.4433098  76.1812210   2.0255551  32.3934631  75.2431488
   1.8281956  31.6431389  76.5427780  14.2228670   1.4210999   2.7128589
  14.5983324   0.6338115   2.3186071  13.4872904   1.6466663   2.1434038
  79.6372147  43.3904114  58.8319397  80.2645950  43.3187485  58.1125755
  80.1562881  43.2277374  59.6195488  51.7583618  45.6510963  48.0980110
  52.5506706  45.1923409  48.3773384  51.8488388  46.5305252  48.4649620
  55.5164413   1.6146204  84.3077240  56.3210754   1.6385711  83.7898254
  55.4224205   2.5052915  84.6455078  28.4889297  21.7622261  16.3029804
  27.6634579  21.5518799  16.7395401  28.6274395  22.6912327  16.4873505
   9.5886087  58.7852554  62.0978317  10.4489613  58.3784866  62.2006264
   9.2322598  58.8194962  62.9855690  66.5709457  29.5470333   3.1589458
  66.4326553  28.7541752   2.6407921  67.5172424  29.6885872   3.1322489
  57.7854652  18.5049362  47.1640663  57.3655357  18.0408554  46.4398308
  57.1804047  18.4004784  47.8983841   5.5525908  13.8849020  20.5986843
   5.6800818  14.5906744  19.9647579   5.8974881  14.2353992  21.4199200
  41.3757706  68.7938690  72.4581909  41.9546776  69.3025055  71.8904037
  40.7038651  69.4168777  72.7350159  32.2543602  12.6456146  43.4478760
  32.7074356  13.2197962  44.0653458  32.3576622  13.0769882  42.5996552
  45.8355141  32.7047920  70.4806290  45.4323502  32.3088913  69.7080002
  46.5499687  33.2376251  70.1315231   1.5946633  51.8593102  38.8550415
   2.1480448  51.9131432  39.6342087   1.8639841  51.0473366  38.4256248
  38.4471359  66.9587021   3.5435352  38.8624802  66.3149796   2.9696538
  38.4016457  66.5255890   4.3959289  42.9778900  38.2980652  81.6716690
  42.3733292  37.5561867  81.6530151  43.4021759  38.2398109  82.5277252
  57.8645248   5.1117325  86.4835434  58.2631760   5.5971584  85.7612762
  57.0482750   4.7686539  86.1198654  35.9883614  71.1860809  20.7503452
  36.6712799  71.7738724  20.4273090  36.1510773  71.1242828  21.6915894
  43.4681091  54.0270157  32.3571243  43.3063774  53.6471825  33.2207222
  42.6116028  54.0237045  31.9297905  63.6261940  58.2288933  50.7215385
  63.2916412  58.1177788  51.6114616  64.5769043  58.1662483  50.8134995
  86.0034714  24.9811497  83.8442001  86.8357315  25.1547050  83.4043655
  86.0462570  25.4964333  84.6497345  55.5659676  58.6783638  47.9519958
  56.3335419  58.1144409  48.0471535  55.6548042  59.0583420  47.0779495
  85.7153168   1.8377749  28.2557068  84.8885040   1.3557529  28.2396736
  86.0001068   1.8552897  27.3420200  11.4147434  13.7709503  85.5172043
  11.2671967  13.7365103  84.5720749  10.7091999  14.3258257  85.8497009
  26.6724377  49.8749809  25.0263824  26.8233433  48.9620399  25.2713165
  25.7363186  49.9190903  24.8315277  59.4277763  40.7382927  76.4817734
  60.3009720  40.3669205  76.6076355  58.8340302  40.0849419  76.8516769
  68.9959259  60.7814217  28.9214954  68.9784012  60.5077095  29.8385601
  68.6599121  60.0257454  28.4395390  14.6936474  22.4637432  54.2381172
  13.7632494  22.2506657  54.3101501  14.8150597  23.2085991  54.8269119
  26.3895340  47.3268890  83.4204941  26.2197056  46.5412903  82.9006653
  27.3403664  47.3408279  83.5298233  60.5044060  28.1417828  47.3120880
  59.7546234  28.6562824  47.0131760  60.6738167  27.5278969  46.5974731
  16.0909786   3.2435515  53.8327446  16.5625896   4.0713301  53.9254723
  16.6615143   2.5952895  54.2456322  62.2123909  32.4348564  32.2637711
  62.5562706  32.4128990  33.1567993  62.8861694  32.8901024  31.7587910
  18.7273407  10.4897518  38.2460022  19.0771904   9.6614695  38.5743065
  17.7838879  10.3420324  38.1803741  82.7766647  36.5361443  67.2942047
  83.1175537  37.3357811  66.8934479  82.5050812  35.9940186  66.5535507
   6.2749906  35.9214401  57.9095993   6.7447019  36.2920952  57.1624603
   6.9331188  35.8653717  58.6023865  75.2195892  50.6064758  40.0435066
  75.0796738  50.0481911  39.2786674  75.1956329  51.4983025  39.6966591
  19.3087635  10.8533258  13.7986240  18.9068832  11.0184546  14.6515350
  18.6443481  11.1230173  13.1645498  30.8722782  65.3836136  43.1767998
  31.0040131  65.7610931  42.3070946  29.9214458  65.3299866  43.2731094
  26.8819675  15.0364122  15.3252163  26.6714554  14.1092625  15.4361620
  26.3246498  15.4862204  15.9602776  24.9911613  32.5145454  70.5274887
  24.9640255  32.9448929  71.3820648  24.1693401  32.7663994  70.1062927
  44.5070419  30.6213627  80.5455704  45.3255157  31.0234718  80.8365021
  44.6855659  30.3361950  79.6494522   6.1439891  44.3310661  56.1560669
   6.3519773  43.7238045  55.4459953   6.9150081  44.3098602  56.7229118
  29.4682102  70.0359726   1.2011318  28.7027664  70.6079025   1.1444111
  29.1961994  69.3291245   1.7864643  84.0043564  64.0793686  89.1053085
  84.9083023  63.7680779  89.0583801  84.0829468  65.0237274  89.2403336
  27.6418667  42.0390701  14.0992451  27.3144894  42.9108620  13.8778038
  28.1803036  41.7876778  13.3488321  15.3709879  17.8300018  45.0394135
  15.2300024  17.6716270  44.1059952  16.3172913  17.7459469  45.1563568
  79.9941788  60.5663986  26.5880623  79.5307083  59.9546928  27.1601124
  80.9094086  60.2896500  26.6328697  57.4867401  33.6783104  71.6003342
  56.8558807  33.4502831  72.2831573  57.7189751  34.5887337  71.7831726
  72.4929962  51.1830292  31.6387711  72.1236954  52.0267563  31.3780556
  71.8957748  50.5346375  31.2657604   1.3471261  39.8900909  79.5831146
   0.5553782  40.3757629  79.3518295   2.0010397  40.5670433  79.7573624
  53.0970192  61.5352325  14.1590452  53.0668640  60.5801277  14.1034031
  52.1798859  61.8064957  14.1201048  23.2012348  36.7309532  86.1325684
  23.0237427  36.5612450  87.0577316  22.9479904  35.9220734  85.6877975
  31.2438221  30.2023849  16.1245193  32.0923958  30.5821724  16.3523655
  31.0483494  29.6032562  16.8449821   8.2185745  46.9905128  84.4741364
   7.4939108  46.8215981  83.8720016   8.0975885  46.3542747  85.1789703
  68.3796997   2.9517093  56.4948578  68.4259491   3.8415616  56.1452103
  68.8000946   3.0093586  57.3528671  33.6972771  66.1185150  88.3816528
  34.4491463  65.5261307  88.3834991  32.9864120  65.6021042  88.0018921
  69.8556900  18.2997952  15.8491087  70.2009811  17.6289501  15.2600622
  69.5608444  19.0005054  15.2674685  10.2574759   2.5774982  79.3136520
  10.8451376   1.8219782  79.3050232   9.6670647   2.4133155  80.0489655
  14.4702988  46.2790947  17.7066669  15.1862888  46.0130348  17.1297779
  13.7733727  45.6470070  17.5306206  31.1551514  51.3842239  33.2816124
  31.8408146  51.2110710  33.9266815  31.0858326  52.3385696  33.2560616
  63.8917885  28.4173698  73.6067657  63.1682243  27.8306999  73.8270035
  64.4394379  28.4274006  74.3917542  23.2857857  12.2346706  20.2867088
  22.4288502  12.6126585  20.0891781  23.8847790  12.9812288  20.2773533
  62.0465508   7.2811251  87.7483521  61.5268517   7.8990407  87.2342300
  61.5030212   6.4948215  87.7986603   4.9981017  30.7480526  49.0164757
   4.6568856  31.1898022  49.7940750   4.2306285  30.3376007  48.6180458
  81.6587524  36.3642883  53.6742287  82.0280457  36.9870834  54.3003120
  81.4390411  36.8957062  52.9090157  71.7281952  43.9931221  63.2643013
  72.6278915  44.0224800  62.9388618  71.6756439  43.1694984  63.7491837
  32.4001808  18.0206051  14.6856518  32.9180412  18.1338062  15.4826698
  32.7782402  17.2501221  14.2617912  54.2694473  49.2891235  55.6147079
  53.5728493  48.6556892  55.4422302  54.9063911  48.8070030  56.1420517
  57.6038589  52.7495728  72.0339432  56.8284569  53.1029472  72.4699631
  57.4472008  51.8061180  71.9941788  83.1624680  60.2239532  67.2740021
  82.6101990  60.8245926  66.7735367  83.6571350  59.7437820  66.6099396
  60.3179665  48.1422157  20.2534027  60.1334534  47.2499657  19.9600105
  59.4889297  48.4502029  20.6195660  27.7476044  50.5997429  11.4268188
  27.9361649  49.6764603  11.2588177  26.7942886  50.6638298  11.3692722
  45.6264038  57.2285728  35.5308495  45.0402756  57.8923149  35.1673470
  45.1595192  56.8890228  36.2943687  74.6740952  48.8609886  57.9445953
  74.4602509  48.8208656  58.8767395  74.0354080  49.4727402  57.5784492
   6.0238318  11.4676380  19.4884129   6.3463511  11.7072315  18.6196175
   5.6630106  12.2804480  19.8425045  22.5856323  55.2660179  60.9734154
  23.1122112  54.5426216  61.3134766  22.5805302  55.1335907  60.0254364
  83.3419495  20.4619083  31.7789955  82.5547028  20.6519604  32.2892456
  83.0117950  20.1387749  30.9406548  75.6608353   1.4743407  26.2254829
  75.6190033   0.7651184  26.8669548  76.5945358   1.5749961  26.0402584
  55.7394142  59.7389450  52.5197144  56.6332817  60.0406227  52.6816635
  55.4739189  59.3248405  53.3408470   5.3172555   5.9571981  55.3570175
   6.0061655   5.3192697  55.5432472   4.9618149   5.6856823  54.5107460
  78.2082825  30.9487381  71.3130188  78.5110550  30.0516510  71.4537125
  77.9825592  30.9823246  70.3834229  86.1071472  34.1105919  43.7935524
  85.1648560  33.9497795  43.8432083  86.4607925  33.3314934  43.3643990
  58.7408028   6.1521678  80.9804916  59.5979729   5.7359438  81.0713425
  58.1248665   5.5125284  81.3378677   4.4231153  45.6180725  24.6356316
   4.7556262  46.4395714  24.9973030   4.9486122  44.9396210  25.0596466
  30.4322605  67.1003189  59.8546791  29.9565601  66.4173279  60.3274078
  31.3332787  67.0260849  60.1691437  53.0955429  43.2355537  42.2492752
  52.2754135  43.4769783  41.8187675  53.7443123  43.8364449  41.8828659
  35.8731422  16.2710819  16.2684078  35.4515991  17.0225906  16.6852627
  36.4837341  16.6569252  15.6402884   9.3510342  29.4909859  31.3523102
   9.3265409  28.5641079  31.5900650   8.9571285  29.5251350  30.4805851
  79.9989777  44.8441162  74.3297729  79.5063171  45.5239830  74.7894516
  79.3452377  44.3961411  73.7929459  68.0087509  15.9789619  53.8402634
  67.9402466  16.0925426  54.7882309  67.4981766  15.1905527  53.6559868
  11.2918072  22.7581024  61.9376640  11.5626154  23.4085922  61.2897758
  11.3296804  23.2226219  62.7737389  72.5540009  56.3661079  44.4891129
  72.6575928  55.6354065  45.0986786  72.7966766  57.1392746  44.9985771
  47.0926056   6.0834007  67.2318344  47.4101143   5.5953264  67.9915695
  47.5664215   5.7069364  66.4902115  27.6329403  58.6170349   4.9803467
  27.3896694  58.4727173   4.0658941  26.8048859  58.8069077   5.4213748
  57.0828094  67.6982803  47.0750885  56.9361000  66.9705963  47.6793976
  57.2839279  68.4431992  47.6415443  37.9910622  19.6609669  69.9542084
  37.8985481  19.3931160  69.0399170  38.3210068  20.5583515  69.9086761
  66.3305283  58.3805313  26.5074329  67.2630615  58.5941124  26.4758110
  65.9064789  59.1974792  26.7701321  52.8171272   9.8959131  45.8010597
  51.9443130   9.5783796  46.0325699  52.7362404  10.1753979  44.8891525
  14.9842777  31.4385395  83.4071655  15.4384871  31.1608486  82.6116714
  14.1430883  31.7745533  83.0977707  84.3095551  62.4201889  40.5929718
  84.1001205  63.2438850  41.0333099  85.1400223  62.1452866  40.9815483
  35.2753906   2.1840980  27.9949989  35.7257118   2.2111497  27.1507778
  35.3607750   3.0726435  28.3405819  73.9954300  68.9272308  43.8909149
  73.2067032  68.3908691  43.8105736  73.8104935  69.5171585  44.6216812
  58.4240532  14.0917034  11.0529079  59.3217812  14.4020615  10.9346037
  57.9197083  14.8833447  11.2404470  76.8981781  52.6389160  58.7101898
  77.3857117  53.0790596  58.0139046  77.1906433  51.7284355  58.6686859
  69.3079376  34.6777954  85.4225388  69.6714630  34.5493011  84.5464249
  69.0809708  33.7965126  85.7192917  61.4165688  25.4194469  67.5924606
  60.4709129  25.4640884  67.4511337  61.7887268  25.9589882  66.8948746
  56.6114883  43.7653313  12.4192610  57.0267677  43.9485207  13.2620029
  56.3276596  44.6222267  12.1008167  51.0941086  62.5519714  47.0903206
  50.3871956  62.5442085  47.7356491  51.8956413  62.5226326  47.6127357
  48.3600006   2.8515162  38.5155945  48.1883736   2.8909047  39.4564590
  49.1244049   2.2810233  38.4352493  11.3645325  57.7055969  34.8180847
  11.2991943  56.7508774  34.7962341  11.5452290  57.9123764  35.7350464
  60.6262093   7.5021124  79.0760422  60.5550842   8.4470406  78.9408264
  59.8712540   7.2806830  79.6212463  20.5736179  46.1066589   5.3852682
  21.4962139  46.0315590   5.1415334  20.2812214  45.2021828   5.4977779
  46.7998695  28.5638485  14.8618917  46.3666153  28.1440926  14.1187057
  47.7327461  28.5180073  14.6524286  34.3963051   8.1774416   6.0271287
  33.8911133   8.8469563   5.5658655  34.6127129   8.5782995   6.8689795
   7.4315677  32.5982132  40.0665550   7.8122215  32.7606163  40.9296646
   8.0203180  31.9616852  39.6610451  54.4505081  50.0905724   3.3213613
  54.9356728  49.2819786   3.1569636  55.0615387  50.7886505   3.0856428
  14.1908283  23.9950085  14.2859707  13.3868914  24.2512493  14.7379179
  14.2814865  24.6330471  13.5782137  51.3306999  22.3349075  25.0901070
  51.6062126  21.7589931  25.8033028  50.8872604  21.7546101  24.4713612
  17.9375935  57.4433365  80.9958420  17.3657379  56.6977196  81.1782379
  18.5137596  57.1375542  80.2953033  20.1350250   9.5503759  42.2045174
  20.5891094   8.8504925  42.6737747  19.5345783   9.0934601  41.6155167
  10.4635363  61.8760185  15.3509903  10.5945683  62.6069336  15.9549980
   9.6123953  61.5127792  15.5956287  24.2673359  27.8251534   9.8308878
  24.1909790  27.1373920   9.1695366  23.5750847  28.4481049   9.6096382
  84.8767929  51.0393639  65.2346954  84.9766159  51.9393501  65.5449982
  85.0774536  51.0846863  64.2998581  35.7246399  52.3101845   8.6493950
  35.7429733  51.3840790   8.8906860  34.8745461  52.4306602   8.2262411
  57.8538895  30.7969398  10.9914742  58.4839172  30.2472744  10.5254622
  58.3346100  31.1183281  11.7542658  51.4646339   8.6002436  87.5746231
  51.5456314   8.0781460  86.7764511  52.3677864   8.7763138  87.8383331
  40.5304527  44.2393150   3.2568991  40.4153366  44.0907898   2.3183253
  39.8436203  43.7147636   3.6684108  31.8346024   7.9428864  72.6479797
  32.5154800   7.2814388  72.7709656  32.2957344   8.7782583  72.7237625
   2.6711857  37.7499008   8.3195887   3.0333610  38.4496613   7.7760859
   3.4313347  37.2272835   8.5750799  35.3333282  69.0921249   5.4029775
  34.9628868  68.3040924   5.8004861  34.8042717  69.2359543   4.6183481
   5.5750327  26.5586605  14.2490444   4.8221617  26.2828636  13.7262135
   5.2001042  26.8176346  15.0908241  59.7431908  26.9122581  10.3588762
  59.3929138  26.0277805  10.4648857  60.2391777  26.8770065   9.5409622
  64.3078003  57.4934692  81.2687225  65.0403748  56.8802032  81.3276062
  63.9858170  57.3966293  80.3725204  86.3791656  20.5585270  15.4852028
  85.6474380  21.1686935  15.3930006  86.1900024  20.0776939  16.2909603
  60.5816116  58.8929100  33.8692436  59.6383476  58.8941383  34.0319977
  60.7831612  59.7953758  33.6219254  49.4227486  19.1489925  21.3597755
  48.7460594  18.7921238  21.9350758  48.9814644  19.2736969  20.5195694
  45.6809654   9.2798243  47.1381798  45.4432831  10.0542526  47.6480789
  46.6306992   9.3422365  47.0364723  76.2708664  20.9256172  65.3219452
  75.9852905  20.1380863  64.8588333  76.9323502  20.6137009  65.9395065
   5.3945632  14.2877588  69.8438416   4.9368205  14.8061724  69.1820679
   6.1776986  14.7985840  70.0487518  51.5567169  35.2759743  24.3087940
  51.5738869  36.2187004  24.1438656  52.2737198  34.9270821  23.7792511
   9.7635374   7.1094294  13.2070122   9.1267633   7.7345147  13.5534496
  10.2372723   7.5982299  12.5340481  65.0586853  27.0609512  78.0350952
  65.5519943  26.9423370  77.2234192  64.1680984  27.2611961  77.7470169
  67.2755127  23.1977654  51.3994217  68.0196381  23.7060089  51.0766296
  66.7331467  23.8355064  51.8634911  14.4625416  39.3057022  78.2580490
  15.0243864  39.2539368  79.0312805  14.0092640  40.1440659  78.3470383
  52.0649605  11.1186495  63.0401115  52.2412567  11.6165094  62.2418098
  51.5064812  11.6940680  63.5628204  76.3572998  39.9266434  30.1691780
  75.4348907  40.0763588  30.3765030  76.6886749  40.7881050  29.9156017
  61.4064217  13.5355148  10.9063807  62.2741890  13.8391809  11.1728334
  61.3801079  12.6178761  11.1774502  85.3850021  24.0817451  46.9363861
  86.3367996  24.1825523  46.9485664  85.1489639  24.1478901  46.0111084
  50.4906807   0.6174911  47.6846161  51.2438850   1.1429535  47.4148026
  50.2034264   1.0150206  48.5066185  22.5513763  15.1016121  84.3230591
  22.9271622  15.9818316  84.3382721  21.8472691  15.1529274  83.6766586
  22.0578842  64.4609909  87.4796524  22.3447990  64.8789597  88.2915726
  21.7595196  63.5925217  87.7498016  83.5386581  24.0265274  58.3340263
  83.6630402  24.8086948  58.8715897  82.5985413  24.0058193  58.1551971
  44.7451630  67.6926270  51.2836227  45.3736954  68.2302322  51.7654572
  44.0888977  68.3147507  50.9697533  19.0716763   3.4250739  75.5386429
  19.9326191   3.3256867  75.1322784  18.4597416   3.0723786  74.8926010
   4.7624340  44.2417564   5.7368116   5.5160828  44.7440491   5.4270577
   4.4443974  44.7305908   6.4958396   9.5742283  22.5363426  10.2930899
   9.5260391  22.8233566  11.2049742   9.0251026  21.7530537  10.2591953
   6.9101481  25.0236378  32.0590973   7.4098144  25.6251183  31.5070248
   7.5712209  24.4529495  32.4509277  80.4498367  63.4145889  78.5904160
  80.8278503  62.5403748  78.4950943  79.5517044  63.3231697  78.2722549
   6.2362800  41.8103867  67.2334824   5.9373960  40.9601517  66.9109955
   6.9179568  42.0747299  66.6156921   8.7680836  15.7205305  13.7305183
   8.4196835  15.5142164  12.8631754   8.7960348  16.6769810  13.7561054
  73.9321213  13.8000383  37.3338547  74.8345566  14.0823851  37.4825821
  73.7292633  13.2412386  38.0840683  25.5996475  70.2548065  61.6060524
  25.8069477  70.5680008  62.4864883  26.4468765  70.2070541  61.1631622
  53.9456596  70.7732544  38.7873726  54.5344086  71.4730759  39.0699692
  53.3056412  71.2108002  38.2259712  23.5469322  17.4490337  85.3393097
  24.3057823  16.8724518  85.2502365  23.7422485  17.9849682  86.1079788
  30.4288998  70.5693512  45.0042877  30.3903103  71.2593155  44.3419495
  31.3411045  70.2794647  44.9953003   0.7147834  36.2622795  51.7915001
   1.0264881  35.9615936  50.9378853   0.3140916  37.1132622  51.6140022
  83.4971542  31.8270798  35.9699554  84.4170761  32.0587311  36.0976601
  83.1086349  31.8996696  36.8417435  25.1803436  42.4512482  53.0374718
  25.8856926  41.8807373  53.3428078  24.6004295  41.8717155  52.5434341
  57.5004768   1.8280456  80.1466293  56.7817879   1.5084667  79.6011124
  58.0272369   1.0498611  80.3287964  75.1214523  23.2094078  24.1529255
  75.7872009  22.7128468  23.6770725  74.5097275  23.4994316  23.4762325
  83.2094574  22.8204765  38.0854263  83.7062073  22.4885578  37.3375626
  83.2316208  22.1071339  38.7233009   0.5392935  56.8901405  45.2446747
  -0.3781125  56.7952843  45.5008011   0.5257613  57.5395584  44.5416069
  34.4892235  63.3591270  67.9367981  34.0764847  63.8589516  68.6411057
  33.7605515  62.9281425  67.4901199  59.9522972  53.5685577  43.9760818
  59.5984039  53.8227081  43.1237907  60.8954620  53.4934464  43.8310509
  44.3288841  48.3177757   8.4148664  44.7827187  49.0092888   7.9331198
  45.0123329  47.9061203   8.9437027  52.9357338   6.7325988  55.4226913
  52.3794556   7.5073123  55.3414154  53.6654625   6.8980193  54.8257294
  29.2205353  27.5884781  71.6642609  29.7795811  27.7350636  72.4272919
  29.3554726  28.3616962  71.1163940  15.3349781  13.1633453  70.9434128
  14.6688461  12.9368668  70.2944107  15.9183550  12.4047060  70.9626312
  78.6790314  27.4630032   9.6026516  78.1948013  27.7345295  10.3824148
  78.3939438  26.5629425   9.4450188  21.2615318   3.9007745  47.5764618
  22.1619720   4.2200189  47.5171089  21.3477058   2.9487331  47.6256866
  34.0579948  54.8004913  33.6847878  33.7258377  54.5647697  32.8185692
  34.6980019  54.1188049  33.8895493  44.7824249  55.3096046  11.2632370
  43.8790855  55.4715652  11.5352335  44.7153549  54.6083641  10.6151657
   6.0173774  39.5007477  20.9901028   5.6031651  38.6400299  21.0519295
   6.8978696  39.3686256  21.3415394  31.3327236  47.4822731  49.4102058
  32.2165756  47.4907455  49.0428238  31.3443241  48.1679802  50.0779648
   1.4619327  25.1654778   5.5883322   2.0779424  25.8933640   5.6716714
   0.9011852  25.4093857   4.8519201   9.9145193  70.4056320  87.7786179
   9.3593330  71.1822128  87.8487625  10.6333323  70.5691528  88.3891907
  69.7258911  55.1820259  14.1793442  70.6226044  54.9854813  14.4504662
  69.5332413  56.0278053  14.5840368  48.8356438  13.1632605  70.4614716
  48.9053726  12.6393290  71.2595062  49.4777985  13.8634987  70.5778046
  82.8165817  35.5586052  15.7716799  82.0688171  36.0623627  16.0930939
  82.6257401  34.6564331  16.0283833  81.9229050  52.0675201  65.9718628
  81.1984329  51.7961578  66.5355453  81.4984818  52.4400711  65.1990051
  11.8892746  43.8104248  36.3447571  12.5458221  43.5761147  35.6888046
  11.2750950  43.0762558  36.3417778  69.6235046  52.3078346  78.4597244
  69.5019760  51.6993790  77.7308578  69.2653427  53.1367073  78.1420441
  21.0072098   6.4268851  68.4100952  21.5576000   7.1560297  68.1243515
  21.3669815   6.1740894  69.2603226  43.9747276  34.2329941  82.4367599
  44.7171555  34.3932533  81.8542252  43.5516815  33.4534874  82.0767136
  56.6674957  23.5400276  84.6849899  55.8121948  23.1153450  84.6191483
  56.4667549  24.4733334  84.7548218  71.1464005  11.6236753  55.0152664
  71.5682373  11.1592951  55.7382011  70.9505386  12.4910431  55.3695831
  47.2918816  71.4635391  51.3070488  47.7213440  72.0887833  50.7232170
  47.9024010  71.3589478  52.0368156   1.2649251  29.6014996  85.3390350
   1.3309556  30.3794270  85.8928375   2.1155913  29.5443535  84.9039078
  85.1717758  37.4329567   3.7224178  86.0189896  37.1043015   4.0231600
  85.1364517  37.1923065   2.7966366  31.7043343  58.4447098   7.4153304
  32.5302086  58.3515587   7.8901839  31.6556416  57.6637421   6.8640132
  63.9834480  61.4622650  88.0435257  63.8023338  62.0615463  88.7676086
  63.4005432  60.7186089  88.1965790  22.8152981  51.0358543   9.8990374
  23.3667870  51.1560898   9.1259699  21.9202728  51.1191063   9.5700560
  23.6294060  67.9844818  66.5446625  24.1612072  68.7692261  66.6772842
  23.8024940  67.7281265  65.6388168  76.1022263  62.8220634  74.4475937
  76.7904816  63.1171913  73.8514023  75.8685837  63.6031837  74.9490814
  35.3217697  62.0636940  81.6655273  34.8937187  61.3902779  82.1942215
  36.1003990  61.6326065  81.3132095  11.7851486  16.6244698  34.1802101
  12.6167727  16.6874466  33.7104568  11.8683863  17.2504692  34.8995361
  46.8027802   5.5295544  30.7694778  47.7267265   5.3576536  30.9511490
  46.8123398   6.1115713  30.0096111  13.4767628  13.1055183  30.8239117
  13.6176262  13.5932446  30.0124245  13.3059416  13.7794552  31.4818344
   2.5577157  19.9970207  50.6682091   2.6833808  20.6818829  50.0113945
   1.7953656  20.2841625  51.1708069  22.3351002  15.7246428   8.1423101
  21.6286907  16.0546970   7.5870790  22.1768589  14.7821579   8.1962929
  79.0991135  10.7016354  24.6088696  78.1630554  10.7223701  24.8078594
  79.1902008  11.2480822  23.8282738  44.1829987  16.1185665  78.6935806
  44.5917816  15.8915005  79.5287933  44.4446602  17.0260201  78.5377274
  54.0963402  45.2665787   4.7128468  54.7258759  45.9629593   4.5258493
  54.0993729  45.1908455   5.6670413  83.5945663  55.5524216  63.4146576
  83.5715561  55.5573997  64.3715668  82.9759827  56.2358055  63.1566429
  30.1951580  29.0847759  26.9898129  29.4182472  29.1692028  27.5425453
  29.9545403  29.5176735  26.1707058  80.7242661   8.1017132  24.7529602
  79.9585342   7.8647690  25.2761631  80.4744568   8.9172249  24.3184872
  58.4843826  44.8045311   0.9810509  58.5931625  45.6469269   1.4223758
  57.5588760  44.5903549   1.0985062  64.1659470  36.0668030  31.0318832
  63.6554871  36.8726120  30.9522896  64.2043915  35.8996658  31.9735947
  84.2074203  20.5089417  46.3059616  83.9712143  21.4045925  46.0646172
  83.3900070  20.1218472  46.6193695  28.1511555  66.1379166  32.5991287
  27.6261959  66.5239182  31.8979511  27.7175407  65.3069382  32.7932739
  42.9097099  12.5217304  75.3410416  43.2106667  12.9462919  76.1444168
  43.7139816  12.2955112  74.8739243   0.2345528  17.8434772  56.0615425
  -0.6715164  18.1315060  56.1724930   0.7028803  18.2371998  56.7976723
  78.0239334  45.6726227   1.4087762  78.2597809  45.0916023   2.1319790
  78.4066620  46.5173950   1.6456428  62.8373413  15.7459126  24.0128288
  62.8007202  16.0245266  23.0978069  63.5799675  16.2256222  24.3797264
   2.8895080  60.1881676  38.0564003   2.0634656  60.6164780  38.2809792
   3.0794878  60.4858017  37.1667061  55.2080536  23.5183983  62.4210396
  54.3742523  23.4254303  61.9602127  55.7174377  22.7542934  62.1510277
  78.4589157  20.0899658  36.2705383  77.5700455  20.4410820  36.3240547
  78.8596344  20.3238602  37.1077652   4.3096414  53.1905479  73.9724655
   3.7736557  52.3975334  73.9810791   5.2098737  52.8719101  74.0379105
  69.4327927  32.2422142  21.6740646  69.6286774  31.7623329  22.4787827
  68.8345490  31.6699886  21.1935520  67.6448669  62.0053711  86.7370377
  67.5224380  62.6094208  86.0046692  68.3297424  62.4100838  87.2693787
  77.5693665  15.9524183  38.1232643  78.4561462  16.3122272  38.1033325
  76.9991913  16.7151108  38.0261459  50.4207954  10.6797285  43.6052055
  49.9373016  11.5031815  43.5389290  51.2519531  10.9221849  44.0134010
  53.8217125  67.3703384  35.8715515  53.8169518  68.3027115  35.6549911
  54.6754837  67.0589905  35.5709381  60.8269463  71.1266479  38.8308868
  60.3783836  71.4410782  39.6158447  60.2361450  70.4684677  38.4648552
  83.6450500  44.7063332  66.8832321  83.1050797  44.9023056  67.6489029
  84.3042068  44.0918388  67.2059479  10.2911997  13.1548128  58.5304146
  10.0262041  13.8996582  57.9907722   9.5109863  12.6021261  58.5755348
  85.7935944   0.1639298   9.5696383  86.2730789   0.5421728  10.3067017
  84.9780807  -0.1575701   9.9540930  43.4655533  30.1192608  69.6566772
  43.2441864  31.0410156  69.7893295  43.4165878  29.9951859  68.7088165
  24.2900028  18.1080036  25.4208469  23.3614063  18.3082027  25.5385723
  24.7278919  18.5757809  26.1319523  72.6384811  64.5247345  54.0013084
  72.0763245  64.1776733  53.3086624  72.8349457  65.4197006  53.7244072
  32.6490097  46.4678574  58.9293404  32.7880821  46.8641243  58.0691872
  31.7747383  46.7588501  59.1885796   0.7618012  71.2999802  15.1197233
   0.2135818  70.8921814  15.7900867   0.2290820  71.2718430  14.3249588
  50.2297249  13.2986336  73.7015839  50.7109718  12.6487312  73.1894760
  50.8220291  13.5249605  74.4186478  63.1821098  27.1115265  34.4638023
  63.9949150  26.8876572  34.0105209  62.5093956  26.5975304  34.0171547
  43.2195435   2.6012955  41.1339188  42.7716141   3.3526239  40.7452087
  43.6548347   2.9565897  41.9088516  22.4022751  18.9342556  49.1580963
  21.7140026  18.8709888  48.4958954  22.9104233  19.7041492  48.9025955
  37.5470848  69.5133133   3.1776204  37.1809692  69.8744125   3.9849608
  37.6615562  68.5811386   3.3624923  85.0455856   6.6388535  19.0513515
  85.3888702   6.8901858  18.1939030  85.8061218   6.6682386  19.6318264
   6.7013931  66.6896362  65.3795471   6.1894898  67.1119537  64.6897430
   7.5571122  67.1165695  65.3382568  69.7491837  15.0593386  19.9973431
  69.7102203  15.7027740  19.2897377  69.0862427  15.3510895  20.6231384
   6.3035178  67.7645645  29.8352089   6.8597417  67.2512894  30.4212093
   6.8510275  67.9277191  29.0671940  43.2678337  58.6926689  67.0502625
  42.4608498  58.3282166  67.4138260  42.9721985  59.3742447  66.4467010
   8.6300058  25.1101665  14.7207966   8.7644558  25.3478413  15.6382198
   7.9512100  25.7115784  14.4145727  63.9453049  15.0047951  67.0334091
  63.8909874  15.9130287  67.3307190  63.9289207  14.4877529  67.8387833
   4.9685235  55.9799690  89.1235428   4.8470922  55.1263733  89.5393143
   4.1096821  56.1929054  88.7584610  50.3161354  67.0716782  64.7075348
  50.5280266  67.9711609  64.4579926  49.3764877  67.0885544  64.8892059
  63.1897163   6.8855143  27.2830200  62.9973717   7.6344962  26.7188740
  62.9291687   7.1718793  28.1584282  35.0281219  18.8207798  81.8265915
  34.7887077  18.5663452  80.9354324  34.4413223  18.3125591  82.3866043
  15.8070297   3.7118714  67.5988693  15.4355326   2.9823203  67.1029053
  15.3207874   3.7132142  68.4233627   4.9665017  59.3578949  87.3804703
   5.8816328  59.4751167  87.6354752   5.0089641  58.9207764  86.5299683
   1.9831192  32.8008804  80.0627289   1.2789720  32.1525040  80.0588074
   1.9468025  33.1991730  79.1930847  86.6349106  10.9128847   9.0109301
  86.9811554  11.6137056   9.5633726  85.9902573  10.4695492   9.5623875
  53.4431343  18.3849144   6.8493519  53.4612694  19.3017426   6.5748873
  53.8793488  17.9137173   6.1394782  53.7068024  18.3987064  87.7723236
  53.5789413  18.4066849  88.7209091  53.8683243  19.3143139  87.5447083
  78.3564682  41.1348381  15.7740850  78.6823654  40.5001106  15.1360083
  78.8844986  41.9188309  15.6232052   3.4071209  42.1910400  79.4884262
   2.8034892  42.8395653  79.8507462   4.2569108  42.6315613  79.4829330
   6.8093047   2.4127665  67.4792328   7.4339538   2.3753369  66.7549057
   7.1458716   1.7847910  68.1184464  77.4298019  45.6810074  54.0135384
  77.8491058  46.2015686  53.3283882  76.6189957  46.1507683  54.2088623
  66.5689392  54.0208206  24.4046345  66.2565079  53.8228188  23.5217934
  66.5025101  54.9731750  24.4742336  84.2946320  27.2321987  33.9691200
  84.5511703  28.1520081  34.0352440  83.7924042  27.0656834  34.7667885
  71.4590073  30.4509945  31.8432407  70.9779892  29.6305656  31.7348499
  72.2017975  30.3740501  31.2444267   2.6172798   5.6250825  71.8238068
   3.5172210   5.9326134  71.7153549   2.6799483   4.6723371  71.7561264
  26.9960270  13.2808352  29.6885433  26.5449848  12.6703463  30.2717209
  27.7891006  13.5258150  30.1652546  83.4466553  21.8226547  42.4578972
  84.3539581  21.5409698  42.3409195  83.3112488  21.8069649  43.4053421
  46.3194237  50.7583961  42.7446480  47.0005989  50.2404480  42.3157425
  46.0809402  51.4227600  42.0981369  61.5847168  55.6282005  52.0330620
  62.2406158  56.2274475  52.3893318  61.4390411  54.9899139  52.7313499
  40.0436745   7.3435268  10.0241709  39.4904480   7.1200571  10.7726574
  40.4055405   6.5057955   9.7352209  43.0452118   9.8753557  10.8679848
  43.1980057  10.7336159  10.4726677  42.2493858   9.5545168  10.4437733
  71.2298431  25.7294197  30.2805424  72.1111069  26.0970345  30.2137394
  70.7383347  26.1565456  29.5789604  44.4827080  64.4535141  13.8912144
  43.6116753  64.2991180  13.5255690  44.9709702  64.8682098  13.1799784
   7.4404035  47.1414871  31.4981174   7.7485929  46.3676872  31.9698009
   7.6644435  47.8756180  32.0700340  75.6589661  14.0320435  22.6270504
  75.4730835  13.6410942  23.4807701  75.1338348  14.8321667  22.6105728
  59.1033363  24.2711239  50.6140938  58.4591751  23.9652462  49.9755592
  59.8857002  24.4569530  50.0948601  17.1845055  25.6121044  13.9608154
  17.1378822  26.5618649  14.0704336  17.4758873  25.4892941  13.0573521
  27.1689072  54.3178596  12.2256031  26.2859650  53.9626846  12.1231413
  27.6230164  54.0664711  11.4213505  85.6454773  68.9501190  41.4509315
  86.3483429  68.8784866  42.0967484  85.8267670  69.7688980  40.9894485
  68.2974777  48.3656845  56.9847298  68.8662643  48.5052872  56.2276115
  68.8579025  47.9327583  57.6287270  66.1782074  69.2402573  14.6941109
  65.3042297  68.9014359  14.8880014  66.1096344  70.1823654  14.8489027
  38.3902206  24.7717438  74.6091080  37.7533951  24.3302994  74.0471344
  39.2080269  24.7435265  74.1124954  45.9888611  58.0423851  68.9081879
  45.2005386  58.4561539  68.5566483  46.3240585  57.5124741  68.1849518
  30.6303959  30.4562874   0.8294237  30.9154396  29.6359997   1.2320516
  30.1285496  30.8977165   1.5146399  71.4924469  38.0404587  17.3922367
  72.3275070  38.4935341  17.5089626  70.8305130  38.7093201  17.5674534
  36.7846069  50.4688377  75.2172012  37.0287056  51.3616562  75.4611740
  37.0785027  49.9308281  75.9523239  46.8428230  60.7764168   3.5249395
  46.6136360  60.8423882   4.4519525  47.5741959  61.3840981   3.4151998
  16.3080902  18.2040958   8.6689196  16.9121666  18.9451351   8.7156544
  16.8712215  17.4453030   8.5161200  15.2807674  54.4262772  68.0910416
  14.4349155  54.6697083  67.7148666  15.1421623  53.5470734  68.4432068
  81.2616653  59.5507927  21.2365456  81.3799210  58.7694130  21.7766285
  80.3682404  59.8386154  21.4240932  27.3176556  61.6936607  24.6853123
  26.4686470  62.0593338  24.4369164  27.9134617  62.4427490  24.6745834
  65.4347763   3.4689894  14.8634100  66.1359634   4.1129990  14.7642813
  64.9238586   3.7840490  15.6090155   6.2304635  52.0082893  14.3229694
   7.0771890  51.6402206  14.5755825   6.1809459  52.8402939  14.7936563
  57.5002022  21.7897129  27.7881718  57.5090981  22.1329231  26.8946609
  58.1809082  21.1167717  27.7930431  58.7423820  41.5618095  42.9847717
  58.9597702  42.4555855  43.2495995  59.5855827  41.1099701  42.9518471
  35.9696846  69.9400024  26.3877621  35.4311104  69.9708939  27.1784687
  36.6380997  69.2820053  26.5788021  81.0310898  60.6877365  86.5374374
  80.2229309  60.8797264  87.0130997  81.6797409  60.5264664  87.2226181
   2.6581976  10.7453108  11.6113825   1.8075414  11.1820068  11.5676479
   2.9282234  10.6547947  10.6975307  48.1137466  45.0427513  72.4506989
  47.6661377  45.6841927  73.0024490  47.9957542  45.3700447  71.5589676
  59.6469917  31.8379059  44.0236626  59.8546371  32.3528900  44.8033447
  59.1144981  32.4230881  43.4849167   9.8465357  45.0983429  63.3892593
  10.0814629  44.2709618  62.9691582  10.3200426  45.7635307  62.8897095
  50.3917999  58.6702766  55.7250786  50.8628120  58.4870911  54.9121704
  50.0861740  57.8135262  56.0230865  58.4443359  60.0155373  64.8894730
  58.3492165  60.6709747  65.5805435  59.3235321  59.6591110  65.0167847
  62.6417236  19.1893959  15.1720181  63.3076782  19.5752335  15.7411070
  62.9541588  19.3650436  14.2844572  48.7767868  69.6385269  80.3132095
  48.5556717  70.5170135  80.0040131  48.2408943  69.0539932  79.7771454
   2.0395920  64.7064056  11.5286436   1.6028183  64.8289108  12.3715267
   1.5271304  64.0274277  11.0897808  26.9453335   7.1521630  56.7544670
  26.9792404   8.1050892  56.8382149  26.4896488   7.0005627  55.9264565
  20.1364079  52.0482483   8.4160061  20.1124897  52.8266907   8.9724998
  20.1065826  52.3912926   7.5228868  33.5546227   5.7627435  77.3997879
  33.5252800   4.9110379  76.9639282  34.0594788   6.3184004  76.8059845
  13.8899517  33.3920326  14.2410402  13.3364334  33.8980598  14.8358402
  14.4117317  34.0498962  13.7814856  78.8080444   6.3308921  86.6038361
  77.9859772   6.5943489  87.0173874  79.2605820   5.8196607  87.2747116
  83.1230545   8.0869465  32.8102570  83.1076202   9.0210896  33.0185089
  82.6691895   8.0213318  31.9700603  79.4694443  26.0418434  44.6049271
  80.0401688  25.4617500  45.1089096  80.0590057  26.7046642  44.2453156
  17.1619892   8.0380096  86.8805237  16.8849812   8.7089567  87.5044861
  17.2934017   8.5134449  86.0602036  68.8763504  55.8037033  46.8130264
  68.5696793  55.9859161  45.9247818  68.3795547  56.4064522  47.3663063
  70.4683380  33.5801392  26.4997730  70.7012863  34.3868980  26.9592361
  71.0715561  33.5445786  25.7574139  27.5691013  54.4999504  73.9627838
  26.9400043  54.3515854  74.6687927  28.0065174  53.6559792  73.8504639
   2.3293107  55.1891670  77.2440262   2.6306739  55.2270546  78.1517639
   1.7997072  55.9789238  77.1343231   5.2780480  59.2264404  18.0838928
   5.4930310  58.6483307  17.3519058   4.3473263  59.0720901  18.2456474
  25.1795349  67.1427383  33.0135422  25.1365528  67.7885132  33.7187767
  25.6908245  67.5713348  32.3271599  58.6918068   6.6884956  14.3575249
  57.9380531   6.1128025  14.4866228  59.3716545   6.3236480  14.9240284
   6.6525130   0.3661323  64.4810486   7.2810206   0.9790865  64.8624878
   6.7931881   0.4354754  63.5367851  54.2599373  55.4872017  82.6778183
  54.0813599  54.6408806  83.0877991  53.8190498  55.4401741  81.8294983
  75.9502335  14.2496099   4.5508480  76.4850464  14.4483404   3.7822728
  76.1147385  14.9764652   5.1515570  51.5708313  34.0198936  12.0754147
  51.4596329  34.8596916  11.6297626  50.6961746  33.6310425  12.0753422
  74.1228790  35.8681412  38.6186066  74.5396729  35.0170631  38.4837761
  74.8409653  36.4983864  38.5605240  57.8518639  35.8015480  28.0866146
  58.3959999  36.5884895  28.0570717  58.3352051  35.1566238  27.5701981
  64.9279938  17.6472855  56.0160866  64.0450668  18.0143070  56.0604362
  64.7940216  16.7284088  55.7838211  43.5427818  24.4112415  74.1360474
  43.6482124  25.0433121  74.8470993  44.2632141  24.6035500  73.5358582
  43.7223854   4.5099759  11.5581732  43.9552574   4.3960786  10.6367455
  43.3595963   3.6637399  11.8198986  53.3394852  25.6462154  71.4417725
  54.1194382  26.1903229  71.5506363  53.0508919  25.4597912  72.3351898
  65.6037292  19.4632683  40.2947044  65.3128662  20.2742329  40.7117920
  65.2631912  18.7685604  40.8583031  17.4372044  66.3660202  79.4896393
  17.6807728  67.2894974  79.5536652  17.7865562  65.9702606  80.2881088
   8.8745651  71.1338959  34.2825584   9.1390972  70.4352417  34.8809967
   9.6953716  71.4478455  33.9031525  50.7674675  57.8459091  80.3547134
  51.6712494  57.7612724  80.0510025  50.7766266  58.6168594  80.9219742
  43.5962677  37.4328842  18.3770294  42.6919327  37.5818634  18.6530952
  43.8846283  38.2789459  18.0345993  50.6112328  67.3544617  15.6973019
  51.3865509  66.7952423  15.6483965  49.8955765  66.7539749  15.9058475
  48.7301025  19.2215881  81.8246155  48.5694809  19.9064922  82.4737167
  48.8773804  18.4303398  82.3427505  67.0157089  33.9964066  62.0714111
  67.6242294  34.7116203  61.8859482  66.3662643  34.0465469  61.3700256
  50.6699524  46.0609512  14.8497629  50.3292122  46.7138672  14.2383490
  51.2505989  46.5549126  15.4286270   0.5561700  25.0526848  10.5748796
   0.6218635  26.0069408  10.5386658   1.1756147  24.7446842   9.9133244
  76.8888626  65.3369522  38.8187943  76.1032562  65.7176819  39.2113342
  77.6018982  65.6117325  39.3952599  33.7388725   0.8813614  45.2362976
  33.9499893   0.3686519  46.0165482  33.1184235   0.3364067  44.7522507
  11.0614300  29.7025700  20.5100994  10.4040117  30.3835907  20.6523800
  10.5736618  28.8815250  20.5748997   5.3417010  19.1643181  39.6678619
   4.9970484  19.6033573  40.4454803   4.5786099  18.7423458  39.2730675
  22.5359974   7.3081393   5.4660039  21.6958580   7.1338944   5.0416951
  22.3044167   7.5719995   6.3564982  25.5216560  51.4837494  30.2353191
  24.9396381  52.0951538  30.6866207  25.8001709  50.8713188  30.9161949
  28.2013664   1.6260865  27.5480652  28.3179779   1.8093063  26.6158295
  29.0235844   1.2158611  27.8162155  69.8318634  55.8676643  72.2424698
  70.1485214  56.4968529  71.5943298  69.0237579  55.5206985  71.8645630
  72.2415009  28.1639423  87.5732651  72.3253250  28.1909275  88.5264130
  72.7477112  27.3953934  87.3099823  40.3049355  42.0955124  20.7351246
  40.5975723  43.0068817  20.7379723  39.3493500  42.1508102  20.7299538
  43.9960327  33.0528183   3.4818542  43.9377136  33.3881645   2.5872180
  44.8107719  32.5506134   3.4967604   2.0664232  13.2589016  69.2690201
   2.2972987  13.3229246  70.1957550   2.6905127  12.6283092  68.9097214
  26.0510845  64.3147430  65.5615997  25.2701626  63.7628975  65.5184937
  26.4168262  64.2816772  64.6776505  34.8852272  60.3889236  64.6265640
  35.6684074  59.8392601  64.6536026  34.4590759  60.2403412  65.4706955
   0.9040222  38.6728973  67.9704971   1.2414129  39.5563469  67.8224564
   1.6825279  38.1465988  68.1526260  44.4301300  52.8844566  17.3007164
  43.5409584  52.5376434  17.3736973  44.6886826  52.6929169  16.3992214
  81.8365479  63.2497559  55.5229034  80.9375534  63.2315254  55.1947098
  81.7442627  63.2284355  56.4754066  34.6538353  43.9007645   7.7474308
  34.6690407  43.2538643   7.0420818  33.8561172  44.4063301   7.5915895
  56.9158936  63.9805298  13.7459087  57.6458015  63.7752151  13.1616917
  57.3253441  64.4007568  14.5022087   4.5116072  54.0687714  32.5537758
   4.1942124  54.1083069  33.4559593   3.7204125  54.1306381  32.0186005
   4.5523000   6.9782801  59.6607895   4.3038630   6.0555711  59.7166443
   3.7224934   7.4438486  59.5563889  19.1241474   7.4662137  13.6803951
  18.3193607   7.8521633  13.3345747  19.8202496   7.8388672  13.1392813
  13.1761560  32.3675270  76.1605377  13.1705427  32.7672424  77.0302658
  12.4309263  31.7668552  76.1681900  18.0436459   0.8496021  76.5961533
  17.9316959   1.5227885  75.9249420  18.3225937   0.0725261  76.1118240
  38.4807167  42.3859520  82.2222137  37.6081696  42.1186562  82.5110855
  39.0550842  42.1590996  82.9535675   8.3059778  25.7012920  73.6774597
   7.3747902  25.8095627  73.4840698   8.5136595  26.4252262  74.2682343
  47.0332642  20.4659634   8.9214535  46.8106689  19.6022625   8.5740328
  46.1993141  20.8239040   9.2258177   7.8829489   4.1092033  18.3904381
   7.3124824   4.7318101  17.9397049   7.2870474   3.4431705  18.7332706
   7.9916568  27.9685764   3.3872342   8.0112286  28.2936230   4.2873421
   7.8377056  28.7485828   2.8542039  17.4877510   2.2172849  22.6241665
  17.3096962   1.8750435  23.5001793  16.6220436   2.3883061  22.2533112
  58.0034676  58.8456573   6.5083885  58.2531624  59.0818710   7.4017463
  57.4071541  58.1044426   6.6144161  46.6675148  20.3398933  13.0284195
  47.4597664  20.5955944  13.5008450  46.4989357  19.4413891  13.3121529
  68.7945480  58.2898331   8.8209448  67.9435349  58.0766068   8.4381456
  68.5942917  58.5502396   9.7200089  79.1089859   6.0343919  78.5061111
  78.8701859   6.6001730  79.2403488  78.4467773   5.3432422  78.5110779
  23.2342587  47.5993423  26.9238338  22.8643208  47.2373085  26.1186581
  24.1791649  47.4801636  26.8280182   6.0264506  68.4024887  63.3464394
   5.2091756  68.7966537  63.0415916   6.4110456  68.0115356  62.5619202
  39.7538834  61.8734818   0.3427656  39.3634262  61.0019760   0.4079685
  40.1516762  62.0224991   1.2005452  43.2274094  69.7134933  70.7593689
  44.0843239  69.9789276  71.0932388  43.3205070  68.7784271  70.5771332
  20.2393265  36.4003143   7.8022075  19.6266346  37.0892906   8.0593987
  21.0078201  36.8712616   7.4799399  52.9225769  58.3235207  38.8213463
  53.6975594  58.2431145  39.3773766  52.5364456  59.1637268  39.0687141
  50.5140419   7.7815681  49.7486954  49.6096115   8.0565462  49.8990974
  50.7176971   7.2119370  50.4905014  43.1709328  23.3086758  79.3519058
  42.8377571  23.9247608  78.6994705  43.2134094  23.8171597  80.1617661
  47.1564255   0.7921977  75.4990540  46.3064156   0.6017496  75.1022720
  47.0347977   1.6372932  75.9317856  33.8325043  51.9154396  17.4356308
  34.1120872  51.1308899  16.9638786  33.0591202  51.6370888  17.9261742
   6.8267913   8.8742514  48.7421341   6.9849443   9.5275574  49.4236069
   7.4932647   8.2040806  48.8935127  55.2422829  19.6251888  82.6290894
  55.3776321  19.8397198  81.7061157  55.8524933  18.9078388  82.8002319
  45.6993942  69.4633102  75.9884720  46.4132233  69.1715775  75.4214020
  44.9065056  69.1385422  75.5617523  58.9445114  46.5803757  71.0899582
  59.0954590  47.1647415  71.8329086  58.4343834  47.1046867  70.4726257
  48.0078278  69.1190796  43.9631767  47.6700821  68.2601089  43.7095528
  48.6869888  68.9279480  44.6100464  82.5802078  64.6905975  21.0267277
  83.3808441  64.9214249  20.5556355  82.3664246  63.8099480  20.7185440
  20.0283337  37.6851540  30.8170643  19.4792309  38.3600960  31.2160225
  20.5229969  37.3155785  31.5484715  17.4785080  69.4988327  58.3128624
  17.1820469  69.1898041  59.1689224  17.5212708  70.4507751  58.4034996
   7.8745980  57.8456955   2.9638352   8.1663361  58.6972694   3.2893262
   7.2221274  58.0554161   2.2956057  82.0377502  51.3505936  85.2145996
  82.5822525  52.0794144  85.5121994  81.4169617  51.2080650  85.9291229
  80.2352600  49.6120377  16.4021378  80.9519958  50.1594200  16.0813694
  79.7458038  50.1817894  16.9954739   7.0122347  63.4675102  37.3745728
   6.6194654  62.6556969  37.0537605   7.9431434  63.3806000  37.1694221
   2.9386592  23.8573513  44.8955765   3.0305970  23.0854988  44.3369865
   3.6750560  24.4183025  44.6520882  55.0163994  27.3060474  27.8947811
  54.1637993  27.6950607  28.0896435  55.1489067  26.6597366  28.5882912
  29.7243118  53.1528854  17.7939510  29.0531998  53.6810684  18.2262306
  29.9964561  53.6796417  17.0424881  45.3558502   2.7117767  72.4675751
  44.9958267   3.4514377  71.9781723  46.2490997   2.6176698  72.1366959
  26.5712471   4.4010901  78.1606979  27.2260303   5.0952401  78.0855637
  25.7320404   4.8613858  78.1510620  46.4436073  46.1996918  70.0722122
  45.6448898  46.7165260  70.1778717  46.6704674  46.2957878  69.1472626
  60.5815582  58.7577286  21.7063065  60.5160713  57.8047676  21.6446190
  60.1320343  58.9763527  22.5226192   8.0906477  21.3966618  43.3127060
   8.2210617  21.9050674  44.1131744   7.8538127  22.0472088  42.6516991
  25.5390816  22.5209560  78.3715210  25.5591793  22.9041481  79.2484436
  24.6919575  22.7863750  78.0135193  57.8943520  38.6441803  85.9194717
  57.6010666  38.0509872  86.6110916  57.6456680  39.5149956  86.2294235
  34.2070198   5.9893856  70.3160477  34.5458603   5.1015444  70.4307480
  34.7641487   6.3727198  69.6386337  65.8810959  23.1720104  61.8957062
  65.7572632  22.2595139  62.1569557  66.7939606  23.3614578  62.1125641
  64.6601257  19.2668514  16.9283943  65.0775833  18.4111805  17.0273170
  65.2538605  19.8753033  17.3682766  37.9473495  49.8588562  47.2146492
  38.7846375  49.4478683  47.4297638  37.9753075  49.9766579  46.2651367
  79.0085144  42.7424889  40.8601532  79.7292862  43.2356567  41.2519493
  79.0653305  41.8754883  41.2617989   2.6181464  61.1956863   4.5052114
   3.4247367  60.8268318   4.8651986   1.9233499  60.6354599   4.8510966
  64.4436722  40.1548958  52.8178329  64.4856644  40.4070816  51.8954086
  65.3102264  39.7952576  53.0074997  73.6504440  59.1646996  79.7551117
  73.0386963  59.5268822  80.3960724  74.3904877  59.7717667  79.7607193
  59.2915115  49.8171692  41.1644096  58.7721214  49.7063217  41.9607620
  58.7476463  50.3645439  40.5979958  67.6129074  46.7785683  24.1505451
  68.0265884  46.6432953  23.2980213  66.7477341  47.1319466  23.9435711
  34.9572678  56.6258087  66.4566956  34.3059502  55.9621773  66.2295151
  35.2744522  56.9487038  65.6132736  19.9201736  52.6833191  43.3476715
  18.9681149  52.7497635  43.4211578  20.0697060  51.8332787  42.9337807
   9.2884340  63.7719879  27.8101711   9.8298788  64.2783051  28.4157391
   8.5720854  63.4388390  28.3506241  58.3351746   3.6913080  78.1543732
  57.7966614   3.0696652  78.6440659  58.6588402   3.1900992  77.4058685
  54.5930786  50.1718559   6.1797037  53.8128929  49.6861076   6.4472642
  54.5803299  50.1374512   5.2232075  65.7589111  40.0913429  88.6582642
  66.6144638  40.0113525  88.2365341  65.8641891  40.8126450  89.2786484
  63.6268806  12.8395329   8.9097166  64.0469971  12.3509474   9.6175432
  64.2969742  13.4554062   8.6132183  18.2214108   1.2256670  83.2364120
  18.6647625   0.3777256  83.2622452  18.8295403   1.8270975  83.6661682
  54.3636818   6.8899488  50.6428261  54.8816986   6.8851862  49.8379250
  54.6618347   6.1181293  51.1241074  66.2282257  31.5211754  44.6201668
  67.1285019  31.5921154  44.9375038  66.1616974  32.1885872  43.9372597
  33.3800468  56.0728607  37.5337753  34.2392082  56.3411102  37.2080154
  32.7899933  56.7748413  37.2593765  86.0089493  22.0776196  71.2644958
  86.1446304  21.1331482  71.3406296  86.4881973  22.3254700  70.4738464
  81.0544205  36.5306854  10.4245167  80.5336914  36.5808258  11.2261124
  81.8523941  36.0710258  10.6856384  46.1246681  65.8096161  79.2367249
  45.7801514  65.2369080  79.9219589  45.8708458  66.6908417  79.5110397
  79.6235886  36.9247513   1.9704612  80.4854965  37.2605820   2.2165656
  79.0125351  37.3942223   2.5382981  31.6852283  56.1998215   2.1198413
  32.5961380  56.2109375   2.4136956  31.4166069  55.2852249   2.2069428
  69.1740341  18.7500038   9.1382942  69.8141403  18.1114254   8.8241205
  68.3525162  18.2612228   9.1877127  53.6345406  54.5131569  35.7754669
  52.9205170  54.2947655  35.1765480  53.5144501  55.4443169  35.9618874
  65.2080231  48.8788795  13.8777790  65.1271744  47.9561920  13.6362286
  64.3522644  49.1073151  14.2407198  80.8162155  58.3510895   0.9873082
  80.4468765  58.8631172   0.2678336  80.0628967  57.9071198   1.3767116
  15.0724020   4.6524754  48.9215927  15.7216272   4.2106819  48.3742752
  14.2312231   4.3106728  48.6185722  67.4225388  41.4705048  24.5261898
  68.3669815  41.4048233  24.6674347  67.3078690  42.2946701  24.0530796
  56.9221306   4.7396932  26.3135929  56.1867294   5.1255898  26.7895145
  56.7912178   3.7950366  26.3955498  40.9515877  59.2705269  78.2706909
  40.9640350  59.0463982  79.2012024  41.8629799  59.1839027  77.9912491
   5.4381661  39.6470299  88.3089676   4.6974111  39.2584610  88.7742920
   5.6631398  39.0035057  87.6370392  81.6160889  45.5987091  71.9001770
  81.2901306  45.5063286  72.7954102  82.0845642  44.7814484  71.7303238
  41.2913284  10.9159422  50.7001457  41.1220016  11.8372602  50.5033379
  40.7077827  10.4345665  50.1136475  80.9453506  48.7587547  21.8390255
  80.2500916  48.9611092  21.2130070  81.6805954  48.4736023  21.2965031
  76.4202728  62.2324066  87.3303146  76.2107010  61.8143463  88.1654968
  76.4236145  61.5144386  86.6972656  79.6313553  31.3744507  29.4284344
  79.9673080  30.4821243  29.3440628  78.6872253  31.2884121  29.2963219
  13.2080297  61.0883713  85.8420334  12.9572716  61.8565483  85.3289490
  14.0513783  61.3236122  86.2288895  50.6153450  15.6930161  75.9384232
  50.6714401  16.2011604  76.7476654  51.4375610  15.8754740  75.4835510
   8.4497137  70.3493042  82.1933136   8.3399677  71.1826706  81.7353821
   8.7289295  70.5955429  83.0751495  26.8664818  48.3162117  29.8162689
  25.9496975  48.1503410  30.0358715  27.2055855  47.4635315  29.5439148
  68.2996750  59.6368484  70.6371918  68.7376633  60.4694138  70.8139114
  67.9263763  59.3789597  71.4800339  61.4045715  62.0299988   9.7458639
  61.1523018  62.8711891   9.3650875  61.0006142  61.3773956   9.1738844
  39.2980804  -0.1817539  49.7898331  38.3751907  -0.1325483  50.0390015
  39.3701515   0.3880953  49.0241241  34.6642532  20.3863716  20.5309353
  34.2444763  20.3470287  19.6715927  35.4763069  19.8910885  20.4237194
  37.6810150  33.7932930  76.3120422  36.8711967  33.9659271  76.7922821
  37.5372849  32.9422226  75.8982239  63.7337952  21.1294727  39.0071220
  64.1975403  20.5371475  39.5990067  62.8080711  20.9936447  39.2091599
  61.7249756  24.3377075  11.2200298  60.9111214  24.0406761  10.8130379
  62.2299576  24.7137794  10.4990616  69.7018280  29.4753799  15.8693895
  68.9695435  29.3073578  16.4624825  69.4211807  29.1065865  15.0318546
  43.6091309   4.8176999  30.1585140  44.0712776   4.8570304  29.3211956
  44.2895317   4.9675355  30.8148956  27.6820908  10.4525728  86.4961319
  27.2509842  11.2416506  86.1679001  27.0940075   9.7384682  86.2502747
  60.1525192  27.4520054  64.2871780  59.5158157  27.4077320  65.0005417
  59.8115692  26.8516121  63.6242218  33.0212479  64.6061935   7.7920389
  32.4203110  64.3821869   7.0814567  33.4261818  63.7735100   8.0347242
  44.9424934  70.3604050  79.3614578  44.5216713  71.1371765  79.7299118
  44.9521599  70.5182877  78.4174194  84.7333603  25.5680408  14.9143066
  85.3684616  25.2508125  14.2722406  85.0614243  25.2472534  15.7543678
  42.0980682  42.3212814   6.2548265  42.9209404  41.9324646   5.9582872
  42.1741753  43.2473335   6.0249100  35.5429764  21.9996052  24.1781349
  35.8668098  22.1925430  25.0579853  34.6074295  22.1979980  24.2183952
  60.7260933  48.1503906  44.3923721  61.5485153  47.8685684  43.9918404
  60.4610748  47.4116707  44.9403648  65.8278503  29.1920433  86.1778107
  66.0769730  28.2778969  86.3138504  66.2262726  29.6605682  86.9112778
  74.1808395  19.6788616  34.4654808  73.2478485  19.8237553  34.6228142
  74.2971268  19.8584347  33.5324936  49.0943604  42.0875015   0.4649380
  49.7092896  41.4322586   0.1351626  48.6389275  42.4028511  -0.3156817
  33.6427956  21.3918571  85.5100021  34.0542603  20.5571404  85.2860031
  34.2642441  22.0540447  85.2074432  56.5205956  45.0975952  59.7201004
  57.0820580  44.8479385  60.4540367  56.1445618  44.2720718  59.4145851
   3.6104300  35.4901466  57.7476578   3.2506487  36.2780533  58.1550827
   4.5567174  35.6341629  57.7420731  19.6948090  10.2904835  45.2901955
  19.1369171  10.8130102  44.7140388  20.5865364  10.5563593  45.0657768
  44.4684448  14.4982023  84.7017746  43.5489807  14.6742830  84.9013138
  44.7333412  15.2222586  84.1344986  85.1728439  52.5568924  45.4374924
  84.6284027  52.6332016  46.2210655  84.7192459  53.0825005  44.7785454
  40.0489197   3.0677264  60.8154831  39.9609451   3.8714273  60.3030815
  39.3413391   2.5047736  60.5014038  41.0453224  51.1605721  63.5219193
  41.8835411  50.7511864  63.3073807  41.1422653  52.0689125  63.2359962
  82.9841309  63.5890236  60.6999283  82.5151367  64.1241302  61.3401947
  83.7725296  64.0929718  60.4981804  19.6259289  60.7335548  45.7746811
  19.7747993  60.7452583  44.8292007  19.8259621  59.8351517  46.0375366
  42.0904617  65.4669342  37.4338417  41.1694069  65.7255096  37.4659424
  42.2324257  65.1986847  36.5260315  72.2045593  27.5952454  50.4881935
  72.5133591  27.0205917  51.1886559  72.7261505  27.3449574  49.7256126
  50.4987411  31.3171329  88.4985657  50.8458748  32.1921577  88.3251801
  51.1501122  30.7228928  88.1259766  51.0773659  12.8356838   9.6761494
  50.4204674  12.6603832   9.0023623  50.5729790  12.9260120  10.4846468
  84.6501160  25.5390663  75.0965729  84.5816269  24.5857391  75.0445480
  84.3624496  25.8471165  74.2371597  11.7546520  64.9532928  35.9889221
  12.5194559  65.3619232  35.5835495  11.8594961  65.1244736  36.9248352
  53.6180420  39.1737823   4.1199522  53.7751541  40.1002998   3.9379711
  54.3185539  38.7162323   3.6550176  61.5619202  52.4671021  78.5178833
  61.0136337  52.4518013  79.3023453  62.1138611  51.6889915  78.5962219
  46.9009514  50.8734360  60.5578918  46.3849754  51.3938408  59.9421158
  46.3326645  50.1371727  60.7841568  20.3845043  56.2256088  70.3184204
  19.5751686  56.4124107  70.7941437  20.0929146  55.9394798  69.4527817
  16.2267838  30.7067375   2.1532323  15.7622299  31.4734650   2.4887178
  15.9989014  30.6762199   1.2240552  29.2716694   0.7542333  72.0806351
  28.5677433   0.2417694  71.6830215  29.3974590   0.3593529  72.9434662
  53.9210625   6.1392817  61.2895241  53.9850349   7.0189753  60.9176636
  53.0036926   6.0552955  61.5495491  79.7022095  19.9559402  58.0432167
  79.1813583  20.1983051  57.2775726  80.5457916  19.6831169  57.6824226
  16.2159042  38.3082047  14.0550709  15.6323967  38.5675964  14.7681389
  15.7998505  38.6563568  13.2664509  17.4969578  60.9275360  70.9286423
  16.9160805  61.5374260  70.4738388  17.7798843  60.3148766  70.2497940
  84.5643311  21.9132729  19.5957661  85.0157547  22.1954899  20.3912525
  84.1142578  21.1073036  19.8489075  44.9339943   8.2817678  71.2236633
  44.0341225   8.1537428  71.5237808  44.8986435   8.1135654  70.2820206
   3.2179239  36.6677628  31.2330093   2.5071080  36.9172630  31.8235359
   3.3945017  37.4584579  30.7232513   3.3906443  50.4711800  63.8581924
   2.7986896  51.1916504  63.6419945   2.9234159  49.9695587  64.5262527
  71.1938477  26.3253517  72.3629303  71.1871719  25.3699875  72.4218216
  71.1179428  26.6217632  73.2699127  54.6911125  10.6495295  30.6298046
  54.7101364   9.8170767  31.1019192  55.1053467  11.2728443  31.2265625
  32.4463501  67.7930603  38.2425804  32.7737732  66.9323807  37.9813232
  31.8919315  68.0699539  37.5130730  77.6122665  59.8969498  16.4276371
  78.3537827  60.4767075  16.2536697  77.9210434  59.3149338  17.1220036
  80.9235535  67.9776688  65.5647888  80.8585663  67.5831299  64.6951065
  81.7810593  67.7025375  65.8891525  77.1034470  69.2758026  65.2431946
  76.6900635  70.1303253  65.3662262  77.5464401  69.3435898  64.3973846
  31.6730289  50.6153488   2.5309899  31.3179665  50.4054947   3.3947747
  31.2322769  50.0079384   1.9368346  86.6468430   2.6436453  75.3248596
  85.7153320   2.4290729  75.3747177  86.8811417   2.4825914  74.4108582
  26.4457703  29.3149414   1.8606457  25.9530983  28.6168308   1.4291974
  26.3054428  30.0838604   1.3081013  21.1814003   2.6327736  83.1887207
  21.0716629   2.3962905  84.1097336  21.3052158   1.7964782  82.7398224
  85.7608414  61.0544014  69.0065842  84.9883041  60.5089645  68.8585510
  85.4157257  61.8578720  69.3958969  23.2777729  64.1557007  19.4478073
  23.5511570  65.0710678  19.3878670  23.1079464  64.0169754  20.3795509
  13.3205013  40.4952927  10.9839125  12.7167311  40.4023666  10.2469883
  12.8105240  40.2237778  11.7470865  43.4937553  65.6005783  75.6100998
  43.5506134  66.5551300  75.5672607  43.8239250  65.3026962  74.7624588
  74.4448166  31.7903881  60.7814331  74.2644196  30.9421291  61.1865807
  73.7218933  31.9213543  60.1678696  52.6414375  19.7651749  64.6144485
  52.9109573  18.8493652  64.5445709  51.7121239  19.7247906  64.8402252
  41.8412552  50.1898727  10.8680162  42.0056534  49.2926788  10.5777588
  40.9534721  50.3806801  10.5652514  53.8486786  28.4329090  67.8977280
  54.7051125  28.4776535  68.3228760  53.4383888  29.2745876  68.0964050
  74.0307999  65.3080063  51.6198082  73.9758911  65.5197144  50.6879311
  74.1200104  64.3552780  51.6441193  66.0062561  69.5140381  17.4973469
  66.5129547  68.7564621  17.2048073  66.3099213  70.2335052  16.9438305
  15.7801218  10.7012033  81.8544464  15.7892551  10.4037590  80.9446793
  16.6903820  10.9317436  82.0402145  70.3083572  27.3283920  70.1725616
  71.1669006  27.6614304  69.9113998  70.4333572  27.0221386  71.0707932
   9.8133430  55.1682777  66.9502182   9.4160690  55.0859642  66.0832520
   9.3522806  55.9023056  67.3562469   7.3094401  55.3979683  39.2907295
   7.9073949  56.0090332  38.8602867   6.5181856  55.9115295  39.4532242
  66.9668121  32.1101189  73.7533722  66.0877457  32.2541885  74.1036911
  67.0077438  31.1680107  73.5890884  71.9810562  35.1983414  65.6261368
  71.5215225  34.8170509  66.3742523  71.3102722  35.2772408  64.9478683
  19.6673336  12.9578876  27.3572655  19.0538521  12.4423389  26.8337364
  19.9541359  12.3601694  28.0477066  56.9650421  50.5010223  22.3476982
  57.7398415  51.0254059  22.5500259  57.2338142  49.9504547  21.6122627
  78.6039047  63.5764923  16.6378765  79.2626877  62.9808502  16.2808876
  78.8284760  63.6540375  17.5651226   0.1326260  70.4802017   7.3843307
   0.2818527  69.5597687   7.6005759  -0.1332671  70.8806458   8.2120867
  60.5218010  52.4613037  72.7820206  59.6419640  52.7399368  72.5280838
  61.0984917  53.1402016  72.4316559  23.5713673  61.8324966  59.8293190
  23.1304379  62.2450447  60.5720291  24.4835815  62.1118889  59.9070053
  47.9145775  17.8953705  23.3815060  47.2711754  17.5587292  24.0051575
  48.7477264  17.8536854  23.8509235  68.6832047  48.9865303  37.0463295
  67.8273773  49.3675766  37.2427750  68.4823685  48.1634216  36.6009216
  19.7891064  69.8820267  46.1731911  20.5880089  69.9426041  45.6494408
  19.2073936  70.5443954  45.8002205  32.2315941  59.8628120  39.9068413
  31.4931412  60.0480423  40.4870224  32.5184937  58.9846191  40.1572266
  71.8606415   9.4307375  87.7142487  71.2352066   9.7540474  87.0657654
  71.3582916   9.3810787  88.5275192  82.0105515  67.8017731  42.7147179
  81.4493713  67.3577347  43.3504333  82.9010696  67.5697403  42.9781151
  16.4496937  71.9283600  40.9061165  17.1541672  71.2810364  40.9363594
  15.8859663  71.6355820  40.1900711  45.3471184  34.1919518  79.6413498
  44.6407890  33.6638680  79.2692490  45.3264389  35.0070496  79.1399307
  15.5521259  58.1297455  57.6288147  16.2516384  58.6550293  58.0173912
  15.5213881  58.4107285  56.7143021   7.3809834  37.3043709  55.8596764
   7.2568498  38.2534676  55.8657799   7.7678432  37.1189117  55.0040054
  38.1291161   7.3720236  43.6175232  38.6524582   6.8140764  44.1928825
  37.3621826   7.6037040  44.1413269  51.6330032  31.3023911  84.1202545
  52.2749557  31.3781128  83.4142838  51.4648247  32.2055817  84.3889465
  83.7953568  41.4589500  72.7355270  84.6041336  41.3242989  73.2294617
  83.5441284  40.5825768  72.4438324  20.3302174  62.6865349  85.6251373
  20.0327950  61.8824539  86.0508499  19.5239544  63.1330986  85.3667755
  36.5140839  62.7514534  27.6548977  36.6096878  62.3174095  26.8071384
  36.4378700  62.0340805  28.2840233  82.1107864   3.9474947  32.2824440
  82.0701675   4.5327106  31.5260658  82.6885757   4.3949037  32.9006805
  10.6486826  49.1495476  15.8714552  11.2673349  48.6700706  15.3204546
  11.0128365  49.0831413  16.7541866   5.2115254  14.6680326  10.5506315
   4.2804074  14.6812811  10.7721605   5.4546118  13.7431726  10.5927687
  38.9680939   7.1249003  48.3245201  39.2081146   8.0359545  48.4936447
  38.9359283   6.7207637  49.1916237   1.4509975   9.9043055  55.5629234
   2.1120741   9.4405823  56.0768967   1.8228065  10.7754288  55.4245987
  73.3345947  50.2716522  34.0652008  73.2991333  50.7377281  33.2298851
  74.0216446  50.7184067  34.5597687  41.8556938  55.1415672  77.0223923
  41.2468834  55.7795219  76.6501083  42.6461754  55.6470642  77.2117310
  11.3150396  13.6390610  79.5172119  11.5109138  12.7141104  79.3677750
  12.1709785  14.0470057  79.6482925  16.5576229  24.3036213  61.3536682
  15.8534012  23.8165855  61.7815666  16.1452847  24.6931648  60.5826530
  32.9156036  38.5432625  87.5423737  33.6077881  39.0345230  87.0999069
  32.2894173  38.3345108  86.8491592  19.3725929  60.3355141  10.1388712
  18.4892178  60.4145813   9.7788315  19.5366974  61.1800499  10.5584679
  70.5054932  59.9982872  47.2000809  71.1012726  59.6996918  47.8871880
  70.1731720  59.1925316  46.8044090  36.5742874  66.2105103  35.6220932
  37.1773911  66.8479385  36.0044250  36.1668167  66.6748962  34.8909721
  81.7387314  17.3267365   0.1807305  82.4609756  17.0537796   0.7464951
  81.7779694  16.7267437  -0.5640516  61.9530487  26.5314102  24.0878181
  62.0562134  26.8371601  24.9889870  62.7978363  26.7118359  23.6754894
  58.1708031  37.8504753   2.5068731  58.3902016  38.3872604   3.2684221
  58.1162338  36.9586258   2.8501799  14.2187853   4.3791718  65.0339813
  14.4665337   3.6691818  65.6262360  14.2649202   5.1683726  65.5736694
  34.6250076  33.9890671  19.5280113  35.0222511  33.5023155  20.2501659
  34.2650337  34.7752953  19.9384956  57.9191704  68.7548218  44.5620117
  57.7433815  67.8614883  44.2665863  57.6739349  68.7537384  45.4872627
   5.7226706  37.4028511  23.7600422   6.3064685  38.0854301  24.0909481
   5.4542251  36.9181709  24.5405884  64.3225937   3.4942718  19.0089207
  64.4524231   4.0180454  19.7995129  63.4185562   3.6722004  18.7495155
   6.6446404   9.5051994  71.0926666   5.8374238   9.0658464  70.8250809
   6.3523636  10.3369722  71.4654465  68.2583542  11.0050335  25.3401470
  67.6719742  11.7336807  25.5437737  69.0241318  11.1514711  25.8954563
  60.4218674  64.4375076   9.5718479  60.3531075  65.3920746   9.5541887
  59.7192917  64.1360703   8.9958639  63.8211899  58.3325615  13.6523571
  63.8236618  58.6419029  12.7465248  63.1454964  57.6548615  13.6721725
  45.0091820   1.0407442  34.8926735  45.9115372   1.0719351  35.2104950
  45.0838928   0.7328536  33.9894257  36.7341194   6.4968805  40.6698456
  36.3055038   6.5039539  41.5256882  37.4865189   7.0793638  40.7739639
  65.6483994  22.4579582  86.4918823  66.2271805  22.8076534  85.8144073
  66.1264877  21.7117157  86.8535309  86.8906555  67.4387360  87.2200241
  86.6336212  67.0345840  88.0487747  86.0625610  67.6272736  86.7785034
  10.2983494  63.5474815   4.0561643   9.4179602  63.5525055   4.4318252
  10.5744495  64.4636688   4.0806904  71.1054840  13.8950176   3.9419098
  70.6004257  13.9242525   4.7544947  71.5427704  14.7455101   3.9009650
   5.2805147  61.9565315   2.2869442   6.0946198  62.2061195   1.8497136
   4.8183980  61.4187927   1.6438895  17.8974266  41.7271996  75.9652557
  18.7226791  41.3270950  75.6912003  17.2704811  41.0039062  75.9698639
  45.9049721  65.5193787   2.6817424  46.4447517  65.0923843   2.0165009
  45.7635574  66.4037628   2.3439691  62.6849670  31.6314926  61.2531013
  61.9164963  32.0159569  60.8313522  62.3271790  30.9717464  61.8472023
  29.2044697   5.2024469  57.1392059  28.4356747   5.7267556  57.3634529
  29.9458389   5.7903957  57.2838402  13.5521107  53.8084679  27.3344975
  13.1512270  53.0686378  27.7907581  13.4479637  53.6019592  26.4056606
  84.5405579   4.6594110  51.4351044  84.9423752   3.8844008  51.0425110
  85.0763321   5.3897672  51.1256638  42.3806305  10.1274986  40.9839020
  42.4102898  10.3686037  40.0580406  42.1623764  10.9421177  41.4366646
  47.2535324  46.8902893  79.2691650  47.8152542  46.3107872  78.7545013
  47.2647629  46.5148621  80.1495972  62.2923203  58.4724388  27.0780849
  62.7984238  57.8331032  27.5794220  61.4713097  58.5607376  27.5622101
  24.4985962  54.3442993  35.6469955  25.3846836  54.6983833  35.5714798
  23.9412937  55.0031052  35.2327271  61.0656090  21.9806614   6.0270877
  60.1297264  22.1716480   5.9648242  61.3291130  22.3467331   6.8713565
  77.6102600  65.3897247  58.2872581  77.3310776  64.5330200  58.6102867
  77.1604233  65.4874878  57.4480247   4.5965657  56.0177078  82.2355652
   3.7612734  56.3418579  82.5723877   4.5076208  56.0700531  81.2839432
  78.4609985  54.5430222  68.0370331  78.3942871  53.6085205  67.8408432
  79.4012375  54.7050552  68.1140594  72.0383148   3.6328244  54.5843506
  71.9011459   3.5693009  55.5295410  72.2796631   4.5475111  54.4382935
  46.6312523  16.1984005  15.7476435  46.6999817  15.2927256  16.0497360
  46.7280884  16.7238064  16.5418739  59.9168434  62.1936188  65.9385376
  59.9259834  63.1144447  65.6773300  60.8343124  61.9856796  66.1152954
  75.1689911  17.5470791  41.6489601  74.9907227  17.4333725  42.5825157
  76.1241226  17.5597534  41.5873146  76.8653870  13.9161844  36.5765038
  77.2877502  13.1039591  36.8560257  77.2556381  14.5920887  37.1306610
  75.0716705  65.8282013  88.4191971  74.3955078  65.6402893  89.0701294
  74.7665100  65.3915405  87.6239395  84.5470428  35.2499199  79.9992447
  83.9293823  35.1423111  79.2759552  85.0800858  36.0044746  79.7487640
  11.0272646  44.2421951  45.7102547  11.0996504  43.5491562  45.0539856
  10.0879297  44.4150963  45.7733994  37.5947151  23.4939632  17.8293972
  38.1404495  23.8766518  18.5163860  36.7001915  23.7306557  18.0744247
   7.3738122  69.0511627  71.7362518   7.6750765  68.4473038  72.4150925
   7.4820957  69.9199142  72.1232605  20.4307098  15.9674635  19.7551365
  19.5607853  16.1443901  20.1131344  20.4695873  15.0139751  19.6804352
  34.5100861  23.0687370   2.6093826  35.3695450  23.2575188   2.9861085
  34.4196358  23.6965904   1.8925488  62.9049644  54.4748497  30.6445007
  62.7466698  55.0875893  31.3626442  63.4246025  53.7738342  31.0379257
   9.3665266   0.1842465   4.0339918   9.5315542   0.2171413   3.0916991
  10.2380104   0.1569797   4.4289670  60.7103043  39.7957687  24.6580658
  60.7241936  40.5862846  24.1185055  61.3752327  39.2280998  24.2683830
  70.6594696  64.3437195  37.5233459  70.4352341  63.7108917  36.8410835
  69.8527222  64.8389893  37.6651382  72.4406815  43.6935654  59.9763298
  73.2601242  43.6701279  60.4705009  72.6086960  43.1480789  59.2079239
  85.0945892   3.5636046   3.8002717  85.7987061   3.7652743   3.1840136
  84.6673889   4.4052377   3.9596121  64.0257263  57.2964554  28.8360786
  64.9570999  57.5158005  28.8618126  64.0064926  56.3469162  28.7167854
  53.4575577  16.5598736  64.6647186  52.9831085  16.5251350  65.4953308
  53.1912842  15.7645969  64.2033463  12.1428099   6.7152543  10.0607700
  11.2384367   6.7546268   9.7496576  12.2841892   7.5573854  10.4932737
  68.9870529  10.9203157  77.6858673  69.7936554  10.9510355  77.1713943
  68.9963913  10.0547466  78.0944443  31.3017654  45.9023018   9.8018503
  31.2788982  46.8542709   9.7045498  32.2229042  45.7003860   9.9660692
  47.2873268  15.2494144  80.1082535  48.1295395  15.2798471  80.5621033
  46.9548683  16.1455326  80.1599655  10.3085289  69.1847839  80.4062729
   9.9327068  69.5308456  81.2157364   9.5516167  68.9069138  79.8904190
  47.4069519  60.8064537  15.2590113  46.6543655  60.9197388  14.6784859
  47.0902023  61.0837326  16.1186714   5.9219427   1.6406510  41.0062103
   6.1412206   1.0216192  41.7025948   6.0621800   2.5023074  41.3987846
  41.3261833   3.7216568  86.8862839  41.1681252   4.6271858  86.6193237
  40.8216858   3.1971204  86.2645340  57.4486618  58.8750687  39.1873207
  58.2641602  58.3738899  39.1836395  57.5526962  59.5070114  38.4759445
  39.1231842  64.1589966  31.2864723  40.0143814  64.4448929  31.4871197
  39.1541710  63.9085121  30.3631458  25.5245399  22.7814980  83.6603699
  25.9458351  21.9896603  83.9946442  25.8417263  23.4809570  84.2316666
  15.0979395  62.7080193  23.1338139  14.2637091  62.7921906  23.5955563
  15.6161823  62.1180420  23.6811581  51.7644806   3.6019797  50.9703598
  52.2833672   3.6983638  50.1717987  52.4096146   3.4271848  51.6555481
  65.3187180  34.0008888   9.1246634  65.2078705  33.7994728   8.1954823
  64.5287323  34.4873962   9.3601780  23.8530827   1.2654185  20.4407005
  24.0933361   0.4671299  19.9703331  24.5986214   1.8520739  20.3132648
  10.6673698   9.7365379   1.8617300  10.3730116   9.0472946   1.2663062
  11.4159737  10.1338367   1.4167825  79.8363953  11.8824596  31.7912121
  79.0084229  11.8704605  31.3110523  80.4968643  11.6591225  31.1353703
  46.9332695  29.8430805  53.6109047  47.6635132  29.6548519  54.2004318
  46.9657936  29.1435299  52.9583664  77.9176331  65.4688644  77.9010162
  77.6808472  66.3956375  77.8654480  78.1708527  65.3211594  78.8122253
  64.2028580  18.3724346  72.5918579  65.0190048  18.5425797  72.1215515
  63.5191116  18.7171860  72.0175095  35.2545433   8.2823801  20.0081081
  35.7522011   9.0729074  19.7992229  34.7566032   8.0955448  19.2122555
  71.8990250  27.4423084  66.0103149  71.8492432  26.4864120  66.0145493
  71.8437271  27.6891174  66.9334946  31.6525517  29.7995129  77.8385696
  32.1593094  29.6651955  77.0377045  31.7284012  28.9709377  78.3117981
   4.7433805  42.7507553  74.4483337   4.7439346  43.6115303  74.8670197
   4.8759217  42.1341133  75.1683502  85.1354752  65.5515747  27.4441700
  84.5941086  65.0153580  28.0235062  84.5507355  66.2489090  27.1474571
  55.3757095  53.2011909  15.3398190  55.6898766  54.0659866  15.0758896
  55.2482338  53.2711372  16.2859116  55.3850479  61.1636276  11.6668539
  55.6839867  61.6117172  12.4581079  55.2322388  61.8673897  11.0362997
  14.7012682   6.0233312  69.0239563  14.2248392   6.4530334  69.7343063
  15.2035189   5.3324485  69.4559937  56.4672394  30.2903519   6.0882483
  56.4641762  29.7672997   5.2866011  56.0925179  31.1314754   5.8268571
  41.4524727  54.6612740  87.3624344  41.0930138  54.3661385  86.5258255
  42.3910370  54.4857941  87.2951126  83.4018402  39.0882072  40.3548775
  83.8874741  38.2797699  40.1910934  83.2516174  39.0900307  41.3002129
  10.2464895  64.4309387  16.4163513  10.3327284  65.2034836  15.8578024
  10.2100830  64.7816391  17.3062477  70.5133667  51.2029228  87.7560120
  71.3019867  51.1814423  88.2980881  69.8842850  50.6560898  88.2266006
  69.4037094  40.3902130  71.5397186  70.1574554  40.8233795  71.1391373
  68.7619476  41.0899506  71.6611252  86.4445648  56.2264977  19.4401817
  85.6709442  55.7518158  19.1361752  86.9987488  55.5533485  19.8351288
  24.9510956  40.7707558   2.4197741  25.8019714  41.2036095   2.3499129
  24.5513439  41.1530037   3.2010024  78.2495270  64.3672180  29.3128071
  78.5509262  64.5283203  30.2069206  77.3205414  64.5974121  29.3280754
  84.2430649  16.2436657   7.0836492  84.6497803  16.8446484   6.4594440
  83.5306320  15.8343210   6.5926147  70.9010315   7.7843208  63.5614433
  71.5507889   7.5939202  64.2380524  71.1947403   7.2843661  62.7998581
  53.9038086  24.7466354  68.5944901  54.0311623  25.2231522  69.4148178
  53.4189606  23.9608154  68.8467560  37.7539940  69.9073181  81.6724014
  37.1758728  70.1568451  82.3933334  38.3229523  70.6669083  81.5477371
  38.7009239  13.4203997  29.7058258  38.5833855  13.7176790  28.8035831
  38.7080994  14.2250977  30.2241325  19.7180271   6.9253507  75.8971405
  20.3187561   6.1806211  75.8700409  18.8612041   6.5493917  75.6952972
  16.3593197   5.3343730  27.8450871  16.2645416   6.2868314  27.8365688
  15.4690819   5.0040026  27.7244110  21.6073112  18.2386246  67.2447815
  21.6897049  18.7279530  66.4262466  21.7835369  18.8846207  67.9287872
  10.1097450  24.3018970  68.7827377  10.0183887  25.2466278  68.9067154
  11.0323172  24.1776848  68.5598831  38.4789658  57.6395416   7.5725455
  38.1080208  57.8370323   6.7125273  38.6088676  56.6912270   7.5653262
  31.0053120  56.1082306   9.4220781  30.7865982  55.6315651  10.2228184
  31.1472492  57.0096397   9.7111263  14.8957510  48.0117493  48.9003792
  14.7631254  48.0639038  49.8469124  14.4842300  47.1858063  48.6460190
  18.0234222  58.6327438  31.2437363  18.8840275  59.0028152  31.4403038
  18.0300636  57.7736282  31.6657677  83.6305618  47.8648338  44.2178230
  83.1601181  47.9331665  43.3870163  83.7370224  46.9236755  44.3560867
   0.0140067  40.6002045  72.2244492   0.9131396  40.8338509  71.9937973
  -0.2625093  39.9997215  71.5322189  66.8814011  48.5942154  83.7475586
  66.0258026  48.1705627  83.8161392  67.1811295  48.6766129  84.6528778
  63.3817978  15.8864374  12.4238653  63.0466881  15.9014187  13.3203630
  62.7550240  16.4104767  11.9250937  32.2171860   2.4744689  87.9438095
  32.1329613   1.5471370  88.1656113  31.3904762   2.8646567  88.2276077
  72.1501770  16.6366272  58.9255600  72.0446625  16.6632233  59.8765526
  71.2615967  16.5204620  58.5891495  73.7907257  60.7623901  31.4621563
  73.2484512  60.1837387  31.9981880  73.1865768  61.4364738  31.1509514
  52.0686722  71.4438171  15.1991014  52.0934792  72.3082352  14.7887268
  52.5955086  70.8899689  14.6229744  62.6910324   6.0054197  77.9251785
  61.9795723   6.5651741  78.2361908  63.1190529   5.6962562  78.7235870
  41.2631989  14.8627214  74.5183792  41.1034355  15.5223312  75.1933823
  42.0910645  14.4551907  74.7729187  12.7405834  29.5963116  16.6826534
  13.6015329  29.2222519  16.4953632  12.2084417  29.3656902  15.9211597
  66.2936554  33.8810539  43.1896820  67.0166931  34.4407310  43.4728966
  65.6377563  34.4902763  42.8507423  66.9456635  30.6189232  53.1459389
  67.6246338  30.2203827  53.6903648  66.3115692  29.9165745  53.0014839
   1.8303543   2.8216548  80.5099030   2.2835662   3.6011376  80.1885910
   2.5039291   2.1417060  80.5239792  75.6455841  50.3304520  23.8548622
  75.3190536  51.0404510  24.4075928  75.2490387  50.4916801  22.9987164
  61.4923363  18.4022045  85.6061859  62.2630768  18.6370239  85.0894165
  61.4876976  17.4450169  85.6079636  -0.0964449  64.0071182  77.2235336
  -0.2248967  64.9475098  77.3476486   0.6868256  63.8028870  77.7344208
  35.9144363  41.4349136  87.2629242  35.2617760  40.8098450  86.9473953
  36.4863319  41.5845795  86.5100861  77.1364746  52.2322006  30.4459896
  77.7482758  52.9244347  30.1955185  77.6047287  51.7278938  31.1113052
  16.2352104  57.8563309   5.7920647  16.2489910  57.8101654   6.7480512
  16.3966026  58.7789078   5.5944767  23.5420399  15.5910330  11.4047508
  24.1316948  15.3117380  10.7043695  23.8512268  16.4647655  11.6439724
  40.6243744   3.4028993  46.3368034  40.0229836   4.1222758  46.5293121
  41.4739799   3.8268616  46.2157516  65.8895111  46.2775879  78.6223450
  65.6451187  46.7330170  77.8166809  65.1252670  46.3703308  79.1911621
  55.4995766  46.1606560  88.4275818  55.7811394  47.0512123  88.6370163
  55.6039124  46.0934410  87.4784622  67.5832977  43.7083244  63.5739479
  67.1833420  44.5329742  63.2978668  66.8517532  43.1852989  63.9018555
  32.2991829  66.4441452  74.2108383  32.8621635  65.9020157  74.7634583
  32.1414452  65.9098053  73.4324875  40.0462532  71.1142883  38.2673416
  39.8075790  71.8341675  37.6833496  40.9169579  71.3464050  38.5901871
   1.7128304  71.2750702  87.6308517   1.0326133  70.9188995  88.2024155
   2.4789622  70.7266769  87.7997818  43.5114670  52.9062958  76.4948425
  43.0681915  53.5351677  77.0642776  43.4346123  52.0706406  76.9552841
  29.0625858  35.8085365   2.6007993  28.2248459  36.1392174   2.9249513
  29.4951000  36.5766487   2.2277458  15.2383699  36.9853401  65.5098648
  14.9943562  36.2020302  66.0029297  15.5189047  36.6537132  64.6568909
   2.2003863  59.0724869  88.1541061   3.1237035  59.3206520  88.2002640
   1.7383306  59.7858925  88.5943222  60.4870720  57.8896904  40.6750298
  60.6955719  56.9555855  40.6894379  60.4962463  58.1228561  39.7467079
  29.1156769  56.7799377  18.6108456  28.2553406  57.1837769  18.4969711
  29.0686626  56.3533325  19.4664326   0.4964298  62.8457489  66.7702408
   1.2567993  62.3427811  66.4785309   0.0856319  62.2943382  67.4361343
   2.4686086  26.1028309  84.6129150   1.9730450  26.8210258  85.0064163
   3.1687202  25.9229126  85.2403717  74.4522476  50.6622047  21.6217575
  73.9240341  51.4267159  21.3921013  74.5097122  50.1581879  20.8100338
  20.3314323   7.9951115  88.7906570  19.5267143   7.7024989  89.2184830
  20.7119579   7.1967611  88.4244995  49.2833557  36.9198227  75.0936050
  49.5427361  37.0026855  74.1759567  48.8672104  36.0595436  75.1481400
  47.5803108  68.7983322  70.4517365  47.4363747  67.8967972  70.7394104
  47.2480774  68.8193054  69.5542908  58.8378410  27.7542248  14.4885092
  58.4405746  27.8174248  13.6199369  59.7069244  27.3864937  14.3282042
  56.3858795  66.6413574  56.6966209  57.1500473  66.0656128  56.6684418
  56.1093102  66.7171783  55.7833900  27.8993378  62.0324097  79.3508224
  27.2309227  62.3644714  78.7514954  28.7038422  62.0253868  78.8322144
  57.0663605   8.3905592  35.1918716  57.0340729   9.3200998  35.4180183
  56.1783218   8.1839790  34.9004211  68.2414322   4.4514871   1.1301531
  68.1153030   3.7076967   0.5410017  68.4591599   4.0547132   1.9735975
  43.2426758  47.7605934  85.5303650  44.0711403  48.2314682  85.4400482
  43.4976692  46.8424263  85.6208115   1.9253486  40.5407257  75.4346085
   2.7432318  40.8240967  75.8432693   2.1021926  40.5768967  74.4945831
  70.5924759  22.3722630  19.7501431  70.4279099  21.9206486  18.9223766
  71.1666031  23.1012535  19.5152435  32.5811768  10.5431976  10.8080101
  33.4768829  10.6741247  10.4968910  32.1152725  10.1845846  10.0526533
  62.0277748  30.4262543  11.3882132  62.2055664  30.9468040  10.6048536
  62.8074951  30.5379715  11.9320774  14.7950678  40.8333092  81.4020004
  15.6230593  40.7569046  80.9278488  14.9262762  41.5727654  81.9954834
  38.7075768  26.2950611  16.7824612  38.9770203  25.4300900  16.4734974
  38.7372513  26.8481941  16.0018234  43.8876801  10.0313578  50.1002464
  44.3633347  10.6794739  49.5806961  43.0586739  10.4586782  50.3156166
   7.8703947  30.4487457   2.0854316   8.0092468  31.1077251   2.7656505
   7.9962292  30.9228096   1.2634451  76.5824432   8.5975132  36.5134163
  77.0429153   7.8619514  36.9173279  76.8814316   8.5970459  35.6041107
   6.1066337  68.7536850  52.6943054   6.4232898  69.6474915  52.5636520
   5.5434160  68.8095551  53.4662476  14.7950277  48.9585800  40.5979500
  14.0374594  48.7517166  41.1452408  14.4251852  49.1299210  39.7318726
  82.9799271  23.0764961   7.2349591  82.5656357  23.3579254   8.0506754
  83.8454971  23.4847984   7.2526484  64.5571976  60.9485397  68.9636917
  63.7594681  60.4404373  68.8164139  64.2447662  61.8234634  69.1941833
  57.5312119  61.9675446  53.0862694  58.3361893  61.7763519  53.5676117
  56.8929138  62.1875191  53.7648087  13.1125450  62.9051666  31.8648529
  13.0930014  62.0273743  32.2460709  12.3230066  63.3296852  32.2004814
  28.3810768  54.1558723  55.6129646  28.8447762  53.4071884  55.9880447
  28.8224869  54.9206123  55.9825058  80.0782242  47.2972260  70.3418655
  80.6958389  46.7516861  70.8288651  80.6298370  47.8338470  69.7726669
  61.5526848  52.4604149  18.0873966  62.3489952  52.3695297  17.5640755
  60.9130211  52.8416061  17.4859371  36.2966881  55.4264946  13.0283318
  36.2650261  54.5964165  13.5039396  36.3360214  55.1728287  12.1061935
  76.3351746  28.6490231  70.4479370  77.2340927  28.3207359  70.4277954
  76.0703888  28.5661259  71.3640442  86.5853577  40.4363251  42.3409195
  86.7092972  41.3427811  42.0594673  87.0075378  39.9139290  41.6589394
  24.5611897  67.2497940   2.2803810  25.0323830  68.0055771   2.6310971
  24.9786263  66.4942398   2.6940455  27.4068947  63.8275490   6.8778663
  27.4829922  63.1274147   7.5261364  26.9960747  64.5500259   7.3527184
  54.6660271  36.7844658  76.1494141  55.4723930  36.7374458  75.6358109
  54.7422142  37.6025467  76.6405106  14.6322947  11.6879158  63.1515656
  14.6351814  12.0538454  62.2670746  15.5382471  11.4180470  63.3020706
  71.7769318  13.6440296  62.4223595  72.1428146  12.7611656  62.4763412
  71.2322235  13.7258320  63.2051926  70.3786240  52.6374016  62.2070122
  70.8196411  52.2874794  62.9811516  69.6269226  53.1165695  62.5556908
  32.4443932  48.9059029  18.9164124  31.6397629  48.4276009  19.1164951
  32.2543144  49.8098984  19.1672001  13.1068506  13.6583996  74.5565720
  13.9811878  13.2698584  74.5848770  12.5543909  13.0400887  75.0348053
   9.4345875   1.3384185  59.2458611   8.6843987   0.7441971  59.2645493
   9.0878153   2.1720247  59.5637970  82.7025146  22.6882420  45.2734261
  81.9355011  22.9372063  45.7891273  82.9441681  23.4861259  44.8030891
   3.8531168  56.8034439  24.2473946   2.9633744  56.8422661  23.8965626
   4.3627024  57.3735466  23.6715984  26.2648640  66.3367386  43.4047241
  27.1422501  66.0685272  43.1317978  26.3714790  66.6144943  44.3145142
  28.7332497  55.2308540  50.2264061  28.9519978  56.1208229  49.9501266
  29.1127300  54.6699677  49.5499191  23.6593761  53.1397247  74.9383926
  22.8697701  53.2995377  74.4214630  24.3055458  52.8358498  74.3009262
  54.2341919  29.6171741  76.3171387  53.8653755  28.7832336  76.0260162
  54.0742226  29.6334324  77.2607346  37.2087479  63.2182617  23.1081524
  36.9212379  64.1268845  23.0188236  36.9472694  62.8024406  22.2865982
  24.2008152  58.0079269  19.4425678  24.1345043  57.1083717  19.7629414
  24.3160191  58.5357170  20.2327557  14.9526529   0.6570476  49.8092995
  14.8710327   1.3461366  50.4686394  14.1318989   0.1683537  49.8707314
  26.6847038  12.3187180  23.4458408  26.0927563  12.9639368  23.8325233
  26.6114521  12.4617071  22.5022202  16.7705536  67.2424774  35.2512779
  17.1789875  66.8394699  36.0174370  15.9193239  67.5468369  35.5659294
  20.4518089   5.9673386  79.8886719  20.5765133   5.8678865  80.8324890
  20.9123459   6.7775521  79.6702957  74.3767319  14.4343596  30.7229290
  75.0820160  15.0089369  31.0207043  73.9451675  14.1479321  31.5278759
  54.2713394  27.7064915   2.6575027  54.6170044  26.9613705   2.1660323
  54.6391640  28.4738731   2.2192514   0.7354115  57.7829514  55.9420395
  -0.0463249  57.2344360  56.0072441   0.7892134  58.2249603  56.7893677
  78.8302765  69.0189896   1.1964989  78.1515808  68.4218140   0.8818896
  79.6134415  68.7718964   0.7047377  68.2641449  26.8296356  39.0017166
  67.9796829  26.0974312  39.5486946  68.0654984  27.6083546  39.5216827
  72.5961151   4.1853447  75.6464157  71.7066422   3.9218669  75.8823318
  73.1331863   3.4175458  75.8420486  41.7980118  55.6975136  51.1379623
  41.8876152  56.2348137  50.3508720  40.9616356  55.9666824  51.5177689
   7.2511044   4.4454823  51.0913200   7.4086637   4.6787839  50.1764526
   7.9710264   4.8557382  51.5705185  69.9881897   7.1931810  19.8290901
  70.1711349   8.0644693  19.4774952  69.8437424   6.6482263  19.0555305
  25.3572826  12.4506321  15.5176611  25.6379623  11.9530487  14.7496357
  24.4109993  12.5453329  15.4089890  49.4812012  29.6781960  84.3427277
  48.9470940  30.4435730  84.1302109  50.3758888  29.9440365  84.1303711
  76.9526520  11.8331003   5.2908831  76.6310577  11.6709356   6.1777387
  76.5147476  12.6404085   5.0212002  68.0172653  32.4752464  50.1804276
  67.8221970  31.5722694  49.9298058  67.1620865  32.8613472  50.3697090
  42.9041023   7.7164679  54.3879623  42.3479919   6.9860716  54.6590652
  43.5311661   7.3267879  53.7787285  86.2188873   8.5728693  21.2294083
  85.6183624   8.6438742  21.9714050  85.8595581   9.1692286  20.5725441
  43.7179871  70.2031708  15.3708525  43.5505180  70.7648468  14.6140785
  43.9460335  69.3538132  14.9929409  50.3920403  60.2381897  77.6817017
  50.0045891  59.4172897  77.3779984  49.6582832  60.8520508  77.7134323
  17.2615986  45.0430260  60.8715134  16.8380489  45.7390823  60.3691750
  16.5391178  44.4943199  61.1767616  51.1126366  59.7027168  21.6375160
  51.0144081  58.9477692  22.2177200  51.5946007  60.3445244  22.1590748
   2.7141597   9.7103710  31.6942425   2.7247837   8.8539591  31.2668362
   2.4444480  10.3182917  31.0058250  56.6078758  13.6954288  31.9645481
  56.1159210  14.5110006  31.8693848  57.5216217  13.9506674  31.8374577
  20.6847458  17.1568890   1.3168342  20.2477627  16.3266029   1.5063168
  21.4796200  16.9071331   0.8456351  39.9827194  66.2044144  73.5995331
  40.6604958  65.9770279  74.2360458  40.0401382  67.1564331  73.5183105
  65.3755035  55.8036957  41.7568893  65.3856964  56.7088966  41.4458504
  64.5915909  55.4231491  41.3607979  16.9418831  47.2903786  63.9553757
  17.6845341  47.3250771  63.3524666  16.5056553  48.1354675  63.8469353
   8.7197084  14.2410736  82.7894974   8.3014498  13.9311838  81.9862213
   9.6391087  14.3589954  82.5506897  51.9172554  20.8789463  13.1899166
  52.2616081  20.1965446  12.6137400  51.1018372  21.1561337  12.7721891
  76.2929688   0.5887331  39.5155792  75.3654099   0.8013049  39.4122467
  76.6207886   0.5053834  38.6201363  51.9692955  60.9899445  41.4675751
  51.9632072  60.9164047  42.4219246  52.1675606  61.9112015  41.2996063
  77.9875259  61.1086922  23.2324390  78.3108139  60.4954071  23.8924408
  78.5833359  61.8558311  23.2874928  18.1502876  67.5494843  42.7437057
  17.2643909  67.5398254  42.3813171  18.7177105  67.6887360  41.9855003
  12.7358561  46.3967361  82.0359497  12.3169327  46.5113602  81.1829605
  13.6498652  46.2012329  81.8295670  19.6736374  38.1378365  86.4387589
  19.3307743  37.3661537  86.8895111  19.9399815  38.7282600  87.1435242
  79.6452255  17.2818012  23.3387547  79.7818146  16.9260197  24.2168179
  78.8806076  17.8508167  23.4271564  38.4769516  54.1870003  34.9292526
  38.6938286  53.4223518  35.4626503  38.0151253  53.8274765  34.1718292
  14.0187321  16.9896507  32.7505112  14.6277742  16.4999695  32.1977806
  14.1866884  17.9075336  32.5371742  64.1888275  41.0742836  76.1204529
  65.1339722  41.0190468  75.9794464  64.0539017  41.9416428  76.5021744
  62.3418274  53.9986267  59.0226669  61.7058487  54.6089249  58.6494446
  61.9922562  53.1319695  58.8154488  27.0801945  58.1528397  84.0700684
  27.3402252  58.0132027  84.9806290  27.0177975  57.2718544  83.7010117
  78.2585373  14.9397268  21.5824146  78.7683029  15.0240164  22.3881874
  77.4132004  14.5939131  21.8688583  55.5366631  39.0061378  83.4756775
  55.0493584  38.2387657  83.7755127  55.9706726  39.3366165  84.2622223
  30.3364468  51.2507210  24.7459564  29.4714775  51.6172791  24.9295216
  30.5514145  51.5712051  23.8699932  63.2546768  62.7483711  33.9559174
  62.9351616  63.6394043  34.0980415  64.1476212  62.8631363  33.6307755
  31.9033089  70.3440781  72.1235504  30.9989967  70.4703064  72.4108124
  31.8530331  70.3429565  71.1676712   3.5132415  12.8972225  73.6910019
   4.3393431  13.3181667  73.9288940   3.0278172  12.8401155  74.5139999
  68.8367615  69.6220932  15.9932737  68.1953125  69.2545700  15.3852377
  69.0794830  68.8882217  16.5578518   4.0516887  18.1453629  83.7305984
   4.6521382  18.2612782  82.9942169   3.7429180  19.0293350  83.9293060
   6.2934628  67.4412842  47.6029205   5.6669669  67.1396790  48.2607727
   6.6520982  66.6372147  47.2273178  53.7651787  43.4888268  18.0295296
  54.5963287  43.6446114  17.5810299  53.9642296  43.6229095  18.9561539
  66.8191605  25.6566963  55.3799744  67.0696793  26.3929157  55.9380531
  67.5665054  25.0600052  55.4208488   1.8001599  34.1021881  69.1086731
   1.8324698  33.5125847  69.8620377   2.6837535  34.0708237  68.7419128
   2.8714387  70.5441742  82.7926483   3.4458497  70.0896072  83.4088058
   2.0865326  70.7466965  83.3017044  83.1888046  66.4393387  52.9157333
  83.1255493  66.8102646  53.7958755  82.9707413  67.1667557  52.3330269
  86.3889389  53.8559494  36.6738167  86.9765396  53.8729095  37.4292450
  86.6607361  53.0847359  36.1762352  46.9557152   5.5903940  58.4771461
  47.7451286   5.0569911  58.5695381  46.6220360   5.3754978  57.6061058
  56.8893280   3.0253131  55.7592049  56.7356033   3.9693317  55.7970200
  57.6539154   2.8845921  56.3176270  68.8336487  55.2734642  79.6355057
  69.0222473  56.1269989  79.2454529  68.0269470  54.9873123  79.2070465
   4.5794706  17.5926170  18.4160824   4.5326881  17.4790325  17.4667988
   5.4914536  17.4018631  18.6354713  58.2458572  64.0546417  47.5179443
  58.7712555  63.9817047  46.7211609  57.8588829  63.1863480  47.6299858
  44.4935112  67.3573151  64.4836502  44.6463318  66.5769577  63.9508095
  45.1801567  67.3305664  65.1500092  40.5392227  61.2331429  37.9791603
  40.5136604  61.9797211  38.5776634  40.0705833  61.5340958  37.2006760
  26.0650520   6.9165459  53.8452225  26.5581036   7.6764226  53.5358353
  26.6117191   6.1657653  53.6134567   0.3015516  30.2207909  13.1776466
  -0.1565553  29.3895473  13.3017635   1.1045593  29.9847050  12.7132387
  47.6813889  20.6893482  72.4632034  48.0919151  19.8816414  72.7719269
  46.7731247  20.6243343  72.7582703  17.7565975   4.1058650  80.6897812
  18.5400772   4.5999827  80.4484482  17.4474239   3.7296295  79.8657074
  50.0271301   3.3831642  43.8944664  50.0095367   3.3099265  42.9402351
  49.1519508   3.1121428  44.1716652  60.0071487  60.9581871  54.2549629
  60.2749519  61.5605125  54.9490204  60.7522430  60.9382973  53.6544075
   6.7942634  36.3836746  28.9082012   6.8087559  35.5157661  29.3116322
   7.1494918  36.9659309  29.5797825  26.1422939  52.5345192  41.1774673
  25.1890812  52.5284920  41.2645302  26.3312149  51.8248787  40.5634995
  69.4454193  70.0302200  70.8557281  69.6058655  70.9120331  71.1917267
  68.7401199  69.6890335  71.4056091  11.0271225  55.6165237  40.6879845
  10.2240953  55.3628235  41.1429749  11.3958635  56.3173409  41.2256813
  15.9592743  26.5125370  76.4098587  15.0173464  26.6713200  76.4714508
  16.0935268  26.2139759  75.5103760   9.0749083   3.5817406  75.1575546
   8.2278881   3.9273095  74.8758316   8.9500332   2.6330652  75.1831131
  47.1568375   1.7293701   5.9784741  46.8915024   1.7861758   5.0605397
  47.9175720   2.3066142   6.0440593  29.0777817  18.6490917  80.3329239
  28.3174973  18.9548054  79.8382187  28.7086868  18.0977764  81.0228958
  23.4962120  44.3192978  26.1809101  23.6436901  45.1462326  25.7219372
  22.5494480  44.2870712  26.3181419  51.4374771  21.9490986  87.5997772
  50.9339790  22.6345558  88.0389481  51.0707970  21.9112606  86.7164078
  28.5627384  31.2260227  17.6555805  28.5756474  30.9711952  16.7330151
  29.0637207  30.5421085  18.1000023  61.4103661  16.5857372  56.9441948
  61.6263237  17.1503849  56.2020569  62.1938133  16.6025524  57.4938850
  46.5378647  11.9856596  43.2175102  46.1555214  12.2146530  42.3703918
  47.3991699  12.4032202  43.2122765  48.3055077  61.2257805  80.9615784
  47.9190025  60.3588524  81.0851974  48.1369324  61.4343643  80.0427170
  32.9720154  66.5517349  15.7341070  33.7944260  67.0412827  15.7487774
  32.7354469  66.4532013  16.6563644  41.7210922  51.2135391   5.3828878
  42.3664703  51.2489853   4.6768675  41.9258728  50.4060059   5.8542581
  55.9889069  67.3300705  60.4640045  55.8699417  66.6477509  61.1246986
  56.8354759  67.1311569  60.0640182   4.1970072  49.6613960  11.3455124
   4.4268670  49.7612572  12.2693224   5.0051031  49.3624077  10.9285955
  44.4928741  49.8235703  51.1673393  44.0652924  49.5132904  51.9655418
  45.3382492  50.1605873  51.4639778  47.7538376   4.2628107  46.4941101
  47.0934563   4.1533504  47.1783218  47.4098473   3.7711146  45.7483635
   1.4434261  47.8862381  32.0762367   2.2614667  47.4222069  32.2543297
   1.4744895  48.0751152  31.1383724  76.7581024  38.0071564  87.1782074
  76.9065399  37.8234673  86.2506027  77.2984543  37.3652916  87.6389313
  51.2868156  70.7469788  51.3356857  52.1462517  71.0192642  51.0140266
  51.3720551  69.8042908  51.4781952  78.1385193  57.3531685  46.3127365
  78.6171417  57.0741920  45.5321465  77.2278290  57.1211395  46.1309700
  30.7125378  18.2956161  20.0908566  29.9233799  18.8181610  19.9480057
  30.4431839  17.3974838  19.8984051  33.8023109  38.0169220  83.1426773
  34.6792068  37.8841171  82.7826157  33.6619072  37.2630272  83.7155304
  60.8388519  64.5976944  77.7915421  59.9406929  64.5234985  77.4690018
  61.1880150  65.3728638  77.3517380  40.5710564  67.0188522  55.5871544
  39.6978416  67.4091797  55.5500908  41.0285225  67.5190811  56.2629738
  51.5785980  34.2587395   2.5488105  51.0213394  34.1842041   3.3234975
  51.7689934  35.1942749   2.4798436  76.4306412   6.1881108   5.7891226
  77.0359650   6.3070002   5.0572238  76.5010529   6.9992938   6.2923684
  82.4785995   6.9512110  19.7611465  83.3816910   6.7323833  19.5314293
  82.4981842   7.0849380  20.7087574   6.9145727  46.9415550  45.7269135
   7.3422160  47.6959610  46.1321602   7.3175254  46.1826515  46.1487274
  48.8124237  34.8221321  87.2754745  48.4773026  33.9754562  86.9804077
  48.8528404  35.3539200  86.4806213   4.4583740  22.0125713  12.5736427
   4.8051524  21.8680820  13.4540405   3.5624101  21.6778049  12.6112061
  73.6485519  37.8157272  86.9282608  74.5641327  37.9902534  86.7103577
  73.4144516  38.5055275  87.5492325  32.1985588  57.6850395  67.7509613
  32.6783447  57.5311127  68.5648041  31.9558582  56.8104591  67.4469223
   8.6554279  69.0172882   2.2062235   8.3155727  68.7918777   3.0722041
   9.4497480  69.5208511   2.3842878  38.0281944  60.5810623  13.7211943
  37.2355003  60.5284233  14.2551384  37.8548737  61.2924385  13.1046419
  35.1103935  31.4794331  77.5853577  35.8720436  31.1214867  77.1292953
  34.5545044  30.7191906  77.7563705  48.9648781  23.5472355  80.0408020
  49.7087097  24.1381912  79.9236984  49.3613892  22.7022171  80.2528305
  80.6685944  63.8561516   8.7262945  80.5871735  64.6337051   9.2785740
  81.3774490  64.0671387   8.1186419  16.6245308  47.4714813  56.0385284
  16.9211617  46.7222977  56.5552177  15.6948662  47.3032951  55.8846741
  66.8616638  19.6926289  87.3585205  66.2719193  18.9409580  87.3000107
  67.5102692  19.4376736  88.0146713  13.5922089  57.0200348  71.8743591
  12.8166981  56.9820786  72.4341583  13.2743931  56.7677307  71.0074310
  85.0269394  47.0712471  20.2593307  84.4964981  46.3091812  20.4919720
  85.8307800  46.7011833  19.8944759  55.9050407  12.5328598  79.0706940
  56.6146545  12.9654360  78.5957718  55.7419205  13.0988407  79.8252106
   7.6470170   0.4170463  88.1478500   6.8057361   0.8736080  88.1424179
   7.4173679  -0.5071055  88.2449875   2.2127705  20.0231190  82.7694550
   2.1259401  19.7419682  81.8586044   2.0398786  20.9643116  82.7471237
  60.7079468  61.5290833  21.4406662  61.6089745  61.7023430  21.1679726
  60.6819649  60.5848694  21.5956268  21.3038902  49.6271858  55.5858002
  22.2608013  49.6139336  55.6052094  21.0493851  48.7110329  55.6958961
  26.7002602  58.2251625  48.7875633  26.1713314  58.6186218  49.4815750
  26.1761646  57.4871979  48.4761734  11.1059914  67.0420303  24.2524300
  11.9828730  67.4166260  24.3360271  11.2465677  66.0955200  24.2767086
  20.9096527  17.4032688  78.0404663  19.9650536  17.2490482  78.0270996
  21.0892048  17.8612537  77.2193451  51.5178261  20.8306770  17.3197250
  51.0617485  21.4936543  16.8013725  50.8704529  20.1366100  17.4438858
  33.1161728  63.0858955  72.4356995  32.6717224  63.9335022  72.4194870
  32.4943581  62.4816093  72.0302200  67.6714478  14.9246922  64.1780472
  67.9640121  14.2603540  64.8019791  66.9460983  15.3657179  64.6203079
  10.8378696  52.1986008  40.1794472  10.7563000  51.3955956  40.6939964
   9.9665089  52.5934486  40.2119598   5.8654027  36.5915298  78.1724472
   6.7245717  36.4694519  78.5763779   5.2571988  36.1497421  78.7650223
  58.7097244  12.9571486  55.0868263  59.1615028  13.2508459  54.2957077
  58.7426796  13.7112846  55.6754074   7.0805354  56.0522575  53.7494392
   6.4338140  55.5555649  54.2507172   7.3776588  55.4439850  53.0727158
  58.8395653   9.9349518   5.9394593  59.4651413   9.5601950   5.3194237
  58.6234818  10.7923975   5.5729518   9.6280489  49.6720848  77.7773972
  10.0786791  49.4661636  76.9583969  10.3310442  49.8905640  78.3891983
  38.7321854  24.5120754  12.7933025  38.2000122  24.2077408  13.5284224
  39.3796616  25.0941029  13.1911163  38.6304436   2.5291770  82.2422867
  38.2415085   2.4106295  83.1088333  38.6637154   3.4782681  82.1224899
  25.5344963  42.6622276  82.5144653  25.4456406  43.1343231  83.3423920
  24.9647465  41.8992043  82.6114960  59.8478737  57.6386299  45.0690536
  59.0152054  57.5742607  44.6013412  60.4768715  57.1943016  44.5005760
   0.2457091  27.4960480  46.6606483  -0.5372774  28.0170593  46.8387222
   0.8198427  28.0858364  46.1720276  54.5476341   6.3723483  26.0364304
  54.3947029   6.9682856  26.7697124  53.7385521   5.8656116  25.9668655
  29.6238823  52.1727562  45.4757729  29.9966812  52.7956390  44.8518562
  29.4028988  51.4065781  44.9462738  20.8912849  12.9526072  19.0615482
  20.4377499  12.1110697  19.1100616  20.7035770  13.2753897  18.1801796
  77.3245773  69.2459488  62.3781700  77.8817139  69.2892761  61.6010284
  76.5848465  68.6996841  62.1124077  41.4218941   5.8027005  34.0783386
  41.5986061   6.0959067  33.1844521  41.7663803   4.9102049  34.1101685
  31.6235256   6.4194651  85.7372360  32.0818977   6.1573434  84.9388504
  31.7168159   7.3716941  85.7653198  12.4748650  11.4356995  44.3555145
  11.8745785  11.1121378  43.6838036  12.0528278  12.2255564  44.6935120
  17.1430569  11.4689569  67.6757050  17.2106743  10.6498814  68.1663971
  18.0092220  11.8684044  67.7558975  20.3398476  68.0859909  35.2690582
  20.2234745  68.5188446  34.4232864  19.9736729  67.2106934  35.1425438
  13.1587067  38.6355057  81.2901764  12.2723818  38.8611870  81.5725327
  13.5943842  39.4794693  81.1712570  52.3299408  55.2393227  61.2487068
  52.3062325  55.9178162  61.9234772  51.4109192  55.0906258  61.0261726
  75.2729797  16.0618629  55.8341713  75.4306107  15.1254234  55.9544525
  74.8365936  16.1240921  54.9845085  80.4729919  57.6343651  66.4879684
  80.5660782  57.7954712  67.4269104  79.5274353  57.6218948  66.3396759
  24.7669640  14.7214108  69.2019348  25.2018337  14.6221581  68.3550186
  23.8460941  14.5320730  69.0219803  34.9890518  10.6271238   7.8394847
  35.0619049  10.5043364   8.7859774  35.7680283  11.1304302   7.6026001
  72.9066162  10.9320154  85.0657120  73.0018845  11.3590460  84.2143631
  73.4213715  11.4734087  85.6641693  24.1772690  55.8354378  56.4081459
  24.4584999  55.0125542  56.8081512  24.6218624  56.5133667  56.9170456
  74.7875595  40.7168922  64.0278015  74.6582336  40.7154846  64.9762192
  73.9959717  40.3083305  63.6775208  75.5925674   8.7629251  73.1757126
  75.8142853   9.1378975  74.0280457  75.6630859   9.4969797  72.5654449
  76.3982620  33.6588135  76.3050156  76.0573349  33.7602234  75.4163513
  76.6606979  34.5424004  76.5631485  16.2676849  14.1253300  28.9801102
  16.4542313  13.4058084  29.5832043  17.1199093  14.5306654  28.8199501
  81.1069794   3.9880881  63.9696350  80.5176163   4.4949660  64.5281677
  81.9826431   4.1921029  64.2980118  10.6858006  54.3783035   8.9875984
  10.2834263  55.2081795   8.7314110  10.7929449  53.9001541   8.1653290
  46.3086662  44.6848946   0.8300725  46.2837029  44.1576004   1.6285529
  46.3080521  44.0436096   0.1194479  26.1930027  16.5303936   6.5645757
  27.0028877  16.7713757   6.1148582  25.5883121  16.2968788   5.8602653
  63.4398079   0.6916797  67.7674866  62.6929970   1.2830948  67.8609695
  63.1291084   0.0049542  67.1774826  84.9147415  35.6449013  25.1708641
  85.1082764  35.8003578  24.2464142  83.9769440  35.8187675  25.2517700
  82.7085876  12.5712442  45.5347023  81.9849167  12.1161070  45.9652596
  82.8953781  13.3171883  46.1047096  84.4718628  48.9106064  46.8161697
  85.0273514  48.3748627  47.3824272  83.9247971  48.2785034  46.3499107
  15.7507658  18.0132179  29.7327671  15.6312361  18.4316845  28.8802242
  15.5140877  18.6899281  30.3670235  46.3499756  40.6802330  72.6257706
  46.3853951  40.3419952  71.7310257  47.2205086  41.0482445  72.7773438
  63.8399544  38.3269081  60.8479424  63.0576744  37.8082542  60.6601410
  63.8423347  39.0086441  60.1760330  72.8258972  45.8053436  32.3107033
  73.1815414  46.0099030  31.4458866  73.5344162  45.3422012  32.7576180
  75.0709381  55.7884674  74.8095169  74.4549789  55.1121635  75.0913620
  75.2593536  56.2871666  75.6045151   2.7943006  11.6412191  65.0733261
   2.8857424  10.6884079  65.0779724   3.1203308  11.9173012  65.9299011
  72.8563995  31.8011646  73.1028061  72.6502914  32.6269150  73.5408554
  73.8029785  31.8332767  72.9642715  52.7567978  69.0377502   6.7432256
  53.6053123  69.1166840   6.3073120  52.2431259  69.7697525   6.4018254
  66.6407242  15.9097233  84.6628647  67.2848053  16.4528427  84.2085266
  66.0897598  15.5566177  83.9643021  29.5007076  47.7251511  12.9902401
  29.3589916  48.0861282  12.1151152  30.3533077  48.0695038  13.2561884
  11.1945915  64.2268600  79.4779129  10.3581781  64.6915588  79.4514465
  11.4542007  64.1484909  78.5599289  50.4796982  52.4463425  88.4237137
  49.8731117  53.1769295  88.3031998  51.2294884  52.6637001  87.8698120
  54.9852486  41.3797760   1.9102831  55.0206337  42.2728577   2.2528944
  54.1411057  41.3285141   1.4619284  70.6333771  62.0256233  42.8832130
  71.3965988  61.8488541  42.3332329  69.9435425  62.2671623  42.2651329
  26.3413887  12.8735600  85.8088684  27.0210819  13.5467606  85.7764740
  25.7328682  13.1137695  85.1101303  51.9778252  27.7504044  75.9054871
  51.3516884  28.3899727  75.5661774  51.4671974  27.2135658  76.5115356
  76.7707138  69.4050903  22.7788010  76.9439468  70.0126038  22.0596676
  76.5986862  68.5675049  22.3485813  10.9215479  10.9885921  54.8489723
  10.2885303  10.3923683  55.2490234  11.7370892  10.8250799  55.3226662
  53.1511612  61.6751366  61.5417023  53.2779846  60.8420906  61.9957771
  53.1997223  61.4511642  60.6123428  58.6913795   4.8608160  64.1163712
  58.5028076   5.0206246  65.0411072  58.1470375   5.4937587  63.6480675
  74.6956482  38.9476242  52.1826096  74.6006546  39.1255493  53.1183205
  75.3829193  39.5477600  51.8932533  68.8844299  65.3795929  17.7019520
  68.2056122  65.8619385  17.2299576  68.5064926  64.5117722  17.8443756
  74.2750244  36.6057014  31.4785652  74.1666336  37.0694771  32.3088608
  73.4951630  36.0551720  31.4081459  20.7476978  63.8708191  21.5863743
  20.1270485  63.3902130  21.0386105  21.1760082  63.1953659  22.1122513
  64.4787827  57.9473724  76.0088120  64.8938980  57.8062057  76.8596878
  63.5829086  58.2101021  76.2200394  35.6990891  51.2472343  22.8382778
  35.9094276  50.4253807  23.2816162  36.4960785  51.7717361  22.9153366
  52.2992744  57.9233589  87.1157913  52.5592651  58.3830261  86.3174515
  52.5474548  57.0122528  86.9591904  78.0650101  48.1615601   4.3521576
  77.4838028  48.0863075   3.5953453  78.4303894  49.0438614   4.2867584
  85.2295456  66.1198273  38.7995110  84.4674911  66.5810089  38.4490623
  85.2347412  65.2809830  38.3384857   3.9783771  56.4788055  18.6543121
   3.2330120  56.9575844  19.0168495   3.6046798  55.9545441  17.9459801
  71.9733734  60.6133728  21.8478241  72.1450882  61.4775238  21.4736786
  71.0247498  60.5910759  21.9737129  73.5136108  68.6605072  70.2165756
  72.7518463  68.1856461  70.5489044  73.1539612  69.2676392  69.5698318
  82.8161011  41.8665466  82.9827194  83.1975098  41.0186157  83.2102585
  83.2548447  42.1160126  82.1693878  45.6989899  48.6735077  15.3184347
  45.7076225  47.7169037  15.3510103  46.4913139  48.9362717  15.7868490
  10.0780258  15.6551504  74.0228348  10.5487080  14.8217144  74.0314484
  10.7627859  16.3158760  73.9190216  66.6784668  44.0607109   9.6911058
  66.3861084  44.2920876   8.8095036  66.2786102  44.7210464  10.2570620
  11.4383230  63.4099388  74.3891220  11.9864693  63.7025795  73.6610184
  10.8678541  64.1559219  74.5743484  56.9551430  14.6749973   6.2954974
  57.4174232  15.3995094   6.7169371  56.0505714  14.9790382   6.2210474
  25.7642899  70.0707092  30.8300209  25.1157475  70.6875076  31.1694050
  25.2450256  69.3726654  30.4308586  33.7845764  18.9805832  78.2038956
  33.1856461  19.1204529  77.4704437  34.0794563  19.8592148  78.4432373
  41.2083473  18.5588627  52.9595413  40.6149940  17.8514271  53.2119255
  41.0492249  18.6825638  52.0237999  82.4137115  65.4639435  82.0686035
  83.1901932  65.5519028  81.5158310  81.9872284  64.6655731  81.7572327
  20.7090797  33.7515602  55.9954720  19.9917717  34.3841934  56.0338516
  21.4964352  34.2876358  55.9009972  55.5183792   8.0660372   4.1251802
  55.9908752   8.6033525   4.7610040  54.7331657   8.5733232   3.9194272
  70.2512589  15.2931318  15.4586725  70.7132568  15.0610476  14.6531143
  69.3427811  15.0397825  15.2952337  82.9566574  24.7311115  42.3330498
  83.0821075  23.8622570  41.9514923  82.4130936  25.1958847  41.6968460
  71.3793793  58.0299568  11.0232038  70.5973282  57.9513969  11.5695095
  71.3396683  58.9205971  10.6747637  76.4179230  52.5563622  48.7399178
  76.3449097  53.4314423  48.3589478  77.0014267  52.0843964  48.1457787
   5.8615212  45.5197525  20.9522324   5.1619101  44.9812393  20.5823975
   6.3804078  44.9106140  21.4775295  76.5542679  38.0809822  81.8577347
  76.8615723  38.9145470  81.5014191  75.6110306  38.2008209  81.9680252
  43.1918716   4.9479628   4.7738948  42.6308022   4.2631469   5.1378484
  43.1594734   4.8064518   3.8277674   2.5013032  21.5362053  48.4238586
   2.1039367  22.2342014  47.9031525   2.4094961  20.7519035  47.8828621
   5.6794353  45.7077522  40.5113106   5.6756411  45.3517456  41.3998375
   5.6503992  46.6566925  40.6333771   1.3734610   1.2804683  57.1803589
   2.0848863   0.6443751  57.2544632   1.7238675   2.0788190  57.5754318
  29.6257305  36.9122810  88.8511200  29.1443253  36.9314919  88.0240021
  30.0451546  36.0519638  88.8641968   9.2799454  59.6924171  38.1840363
   8.4540243  59.8601570  38.6378555   9.1681747  58.8244514  37.7962570
   8.2341976  49.3631477  57.0517960   8.1995745  50.0760422  57.6896133
   7.5493731  48.7564888  57.3332443  65.1913452  47.7675896  29.0319595
  66.0191803  47.9474716  29.4775696  64.7880936  48.6283417  28.9191513
  67.0770416  23.4263554  28.2563610  66.2239075  23.8517227  28.3427219
  66.8731003  22.5372143  27.9664211  49.0827637  46.5152168   3.0993230
  49.4527817  46.0128708   3.8252487  48.8061333  47.3412132   3.4961035
  72.3776932  61.1987381  76.3403625  73.2787628  60.9015007  76.4666443
  72.3934326  62.1231232  76.5883484  39.4606171  11.0001392  82.2706146
  39.9527855  11.3065252  83.0322723  39.8255005  11.4929333  81.5355988
  68.5480042  11.8394785  87.9579468  69.2710495  11.4080915  87.5026016
  68.7153473  12.7746744  87.8411713  24.8301601  56.7992172  31.3957176
  25.6840458  56.8765297  31.8213158  24.7369251  55.8640671  31.2139740
   7.3959608  35.4866486  85.1401367   6.8127522  36.2329559  85.0018311
   6.8160443  34.7778969  85.4187012  62.8012390  41.1544685  46.8667068
  62.1617279  40.9403267  47.5459747  63.5802460  41.4304695  47.3496170
  60.3136902  48.4786377  57.0788193  59.9975586  49.3517265  57.3112144
  60.8480453  48.6176567  56.2969170  86.2073288  47.0719223   3.2775922
  85.8374939  46.3820877   3.8285766  87.1375809  47.0853539   3.5027244
  49.5330696  34.5427399   4.5529723  50.1289062  35.2366867   4.8351960
  48.9005966  34.4649391   5.2672243  29.6991634  49.5507393  27.0601444
  29.8476810  50.0878410  26.2818775  28.7965050  49.7422485  27.3146324
  73.0770187  55.5377083  17.7165527  73.7466278  54.8702583  17.8660736
  72.7540436  55.3593216  16.8333206  72.1257477  30.0083637  55.1050224
  72.9566040  30.2719231  54.7094879  72.2736969  29.1084785  55.3957939
  52.4417458  61.7007446  82.9578018  52.0761604  62.5659561  83.1421661
  53.3807068  61.7988510  83.1157990  76.0481262  53.5329247  55.3184929
  76.8076096  53.3306274  55.8648453  76.0416489  52.8448524  54.6531029
  82.0336304  31.9293613  48.2871284  82.4744186  32.1195297  49.1152458
  82.0045013  30.9735203  48.2452850  20.1547794   2.6229277  26.8309841
  20.2899113   1.7478224  27.1945267  20.6496048   2.6209280  26.0116081
  12.5301018  69.3106613  53.8855820  12.0400639  69.9618378  54.3876457
  12.9395151  68.7552109  54.5489693  26.9425564  11.6583347  52.9727402
  26.5797825  12.5182705  53.1851997  27.4762669  11.8096104  52.1926765
   0.6946630  51.6703682  35.4095268   0.2536269  51.0009918  34.8864059
   1.5926784  51.3512993  35.4989471  45.4366684  62.2205696  85.7273178
  45.8262787  61.4083900  85.4035950  44.7195511  62.4010849  85.1195450
  74.2734451  13.6639376  69.3394470  74.5542145  13.4602365  70.2315826
  73.5067749  14.2258759  69.4520645  50.8821411  59.2138977  31.3632698
  50.4629974  58.4289780  31.0104942  51.3768921  59.5728531  30.6266499
  11.7373676   4.7943411  78.4522324  11.2400751   5.3976650  79.0044403
  11.3014288   3.9499426  78.5670395  61.3456688  21.1485195  72.3755264
  61.8837395  20.4182796  72.6812439  60.6304550  20.7335911  71.8933105
  47.4176979  55.1580124   8.2645464  47.7945328  54.9553986   9.1208029
  47.1583519  56.0771904   8.3284378  10.0356016   7.1661515  58.5439529
   9.1921806   7.5843306  58.3707466   9.8086081   6.3180337  58.9252701
  85.4306412   7.7577138  67.1045151  84.9644318   6.9350767  67.2533569
  85.8058853   7.6653032  66.2287979  30.1577988   2.2702231  13.4145279
  30.2475815   1.4464300  12.9354286  29.9096222   2.0062156  14.3004961
  12.4107018  10.6921492  13.1914921  12.7555408  11.4114161  12.6623678
  13.1812401  10.1725121  13.4205770  45.3725891  62.5090065  43.7718658
  45.9361572  61.8249664  44.1334038  44.8701668  62.8267479  44.5220947
  50.3770676  11.1265774  23.0357418  49.6582718  11.1822939  22.4060917
  50.2527580  10.2810926  23.4669437   8.9227152  68.1321335  74.0185394
   8.2277746  67.9482040  74.6505737   9.4651623  68.7953796  74.4452515
  31.1847515  16.3444080  41.1013222  30.4552956  16.9582977  41.0160980
  31.4203529  16.3796101  42.0284042  55.1431084  51.7798996  18.3377686
  54.4961548  52.4826698  18.2761726  54.7031059  51.0924454  18.8378105
  75.6493454   0.3500016   6.7983322  76.4917145   0.2165992   6.3637733
  75.1008453   0.7678278   6.1344008   4.0960298   1.7300282  17.9380512
   3.4702229   1.9649239  18.6231956   3.5901556   1.7731346  17.1265926
  11.4874449   5.9334211   6.9039974  12.4270420   6.0926051   6.9937229
  11.4289637   5.0763130   6.4818873  61.0871811  13.7390423   8.0821123
  61.9443588  13.4129992   8.3562927  60.5221024  13.5948887   8.8411493
  81.1573715  23.2515888  50.4554062  81.2788315  22.3493538  50.7511292
  81.8743515  23.7362595  50.8643913  42.7209930  41.2822304  51.4017334
  42.3776131  40.6725349  50.7485962  42.4208488  40.9297867  52.2395477
  19.5675068  32.7681160  22.4363403  19.5952873  33.5389557  23.0031452
  19.7675304  33.1055222  21.5631962  85.5714111  65.3219223  59.6324997
  85.4504852  65.4320145  58.6893730  85.4498444  66.1999893  59.9936676
  79.6313019  34.7146111  77.1577530  79.7304535  33.9014244  77.6528625
  79.8939438  34.4857368  76.2661972  72.8793182  29.4449406  64.4915314
  72.7684174  28.6660500  65.0367508  73.1290283  30.1343956  65.1067810
  16.9823990  41.8625221  64.4635315  16.3824558  41.7431755  65.1997757
  17.8109818  42.1183472  64.8687897  63.9269142   7.6087809  67.7297897
  63.0367851   7.4337335  68.0351791  64.4318924   6.8470302  68.0143356
   3.0263748  35.9356728  86.7586441   2.7984581  35.0595894  86.4475632
   2.2064171  36.4273071  86.7117996  43.2757187  64.2246780   3.3192766
  42.7386856  63.4674644   3.0859182  44.0720558  64.1233368   2.7979219
  61.5496407  48.2120934  86.2465591  61.6676483  48.4444008  85.3255081
  60.8720474  47.5360527  86.2381439   8.2529774  39.3073425  82.5275040
   7.5236149  39.3945351  81.9137802   7.9724293  39.7926216  83.3034134
  45.1828995  22.9161720   7.4342709  45.3678665  22.4598007   8.2550917
  45.1565514  22.2224922   6.7752213  23.9930267  68.0612488  61.4172707
  24.7821484  68.5943756  61.3208809  23.6622276  67.9595032  60.5248260
  26.1102028  19.7078476  85.9796829  26.9646683  19.3849831  86.2658234
  26.0551414  19.4553795  85.0580215  46.9920654  51.3671799  88.7756271
  47.6801186  50.8118095  88.4090424  46.4375114  50.7652779  89.2720337
  43.2373810  32.7478142  66.6521988  42.9254951  32.4746971  67.5149612
  42.9853821  33.6689415  66.5869675  77.5176468  57.6717491  61.7413063
  77.5878067  58.3626633  62.4000549  77.5372162  56.8578987  62.2447853
  52.4369698  70.0318375  69.5090256  51.9134407  69.2868347  69.8041763
  53.0122032  70.2282867  70.2484436  16.2322083  64.8362045  28.0976696
  17.0260143  64.9017258  28.6285286  16.5085373  64.3668442  27.3105354
  86.0917435  10.4230900  50.7022896  85.8543701  11.3052893  50.4166107
  86.9165344  10.5379744  51.1742554  27.5390110  54.4943848  39.3814621
  26.8662395  53.8941689  39.7029419  28.3663826  54.0812988  39.6285439
   8.5798225  12.2717648  11.8272142   9.2554321  12.7681856  12.2891121
   7.8024297  12.3539639  12.3796043  84.8202591  15.6938362  85.3676834
  85.4852066  15.4445276  86.0094910  85.2352676  15.5368881  84.5195312
  86.5626678  11.1028051  69.7646027  86.4950867  10.9497871  68.8221359
  87.3568649  11.6274567  69.8657303  29.2497959  52.7845726  28.1583843
  28.8371677  51.9222946  28.1088982  28.8835011  53.2682228  27.4180202
  64.5004044  42.2491035  60.4796295  65.2322006  42.7559853  60.1278000
  64.2145233  41.7018433  59.7481842  63.5779533  13.2962885  63.1567574
  63.2137070  14.1344643  63.4413948  64.0716248  12.9803114  63.9135170
  58.2045631  39.2090683  33.7331886  57.7523613  39.9076958  33.2602615
  58.7679367  39.6675644  34.3565826   2.6216073  55.0851974  69.8135910
   1.9225314  54.6287651  70.2817688   3.2835400  54.4119759  69.6559525
  11.9004478  54.3391418   2.5339940  11.0023584  54.2176895   2.2259104
  11.8685379  55.1416206   3.0548058  15.0888891  52.3168449  23.6349182
  14.6914091  53.1831131  23.5464859  14.5265360  51.7412453  23.1165791
  69.3817444  47.5945053  68.9143829  68.5689011  47.8810692  69.3308029
  69.4732513  46.6775818  69.1734467   5.4439464  57.9790039  59.4389610
   6.3318439  58.3258743  59.5258560   5.5442715  57.0335312  59.5496368
  73.4927673  12.7942886   4.9334831  74.0125427  13.5039053   4.5559773
  72.5992279  12.9683199   4.6376333  38.6045418  54.7947884  56.7041626
  38.9284439  54.2499352  57.4214172  39.3143997  54.7922478  56.0620346
  56.6154480  46.3507500  16.4935665  56.8128738  47.2503433  16.2328205
  57.0099602  45.8108101  15.8086901  69.0065536  68.4242935  57.8371811
  68.2751007  68.6430664  58.4145432  68.6191711  68.3893433  56.9625702
  54.3741226  33.6647224  17.8910561  53.8613281  34.2834930  17.3710575
  54.1486168  33.8698502  18.7984161   9.4665604  43.9720345  86.8539047
   9.1386814  44.7267075  87.3429794   9.7423258  43.3510971  87.5281677
  59.0126343  33.7923431  82.0028687  58.5351334  32.9796600  81.8362045
  58.3682709  34.4839516  81.8521805  74.8722076  26.0479736   3.9769607
  75.3711777  25.5682240   3.3158288  74.0929871  25.5120010   4.1245584
  63.8293228  20.0050259  51.7834854  63.3288803  19.5358105  51.1159325
  64.1782532  20.7706928  51.3271561  73.6863632  12.9581947  18.7952347
  72.8675461  12.4634523  18.8267555  73.4742889  13.7984829  19.2016449
  48.7109413  13.1443844  15.3004045  47.8382645  13.0616341  15.6848812
  48.5999718  12.8640985  14.3919125  44.3607445  65.0794983  73.1276550
  45.2873993  64.8440857  73.0815353  44.1217766  65.2895737  72.2248840
  11.2272110  46.3072243  42.4609871  10.9831982  46.0696754  43.3555603
  10.4881697  46.8242073  42.1403999  66.6230011   5.3568711   6.6394444
  67.5334091   5.0634594   6.6753702  66.5932159   6.1169562   7.2204905
  24.3025684  36.9477501   8.5303106  24.0040874  37.1218033   9.4229736
  25.2577953  36.9583702   8.5908127  43.8927803   2.9443786   6.7088399
  42.9967232   2.7089114   6.4682708  44.4365730   2.2782912   6.2883081
  46.9786797  52.2031097  62.9130478  47.1973877  51.7796440  62.0829391
  47.2204132  53.1203842  62.7849884   8.2257004  27.7874641  75.6123428
   8.4765358  28.6452389  75.9551773   8.1720676  27.2265968  76.3861542
  80.5060120   7.3734918  72.5373306  81.1209412   8.0857105  72.7129288
  80.9215012   6.5992498  72.9169922  76.7587967  16.1489162   2.5757678
  77.6648026  16.3674679   2.7939694  76.6189499  16.5404530   1.7135762
  41.7500687  26.9326839  85.8239746  42.1150398  26.9394894  86.7088394
  41.7998047  26.0164585  85.5514221   6.3622589  17.6391602  46.7715111
   7.1454453  18.0996647  47.0728188   6.3016257  17.8535347  45.8405952
  68.7684860  32.1864815  15.3274221  68.4233398  32.6153221  16.1104965
  69.2706909  31.4437885  15.6627264  77.7597733  52.1528702  88.3037872
  77.3827896  52.2744865  87.4323959  77.7292252  51.2071075  88.4481049
  77.8521729  30.2452030  49.9760399  78.5847244  30.7693024  50.2999573
  77.6057281  29.6934452  50.7183723  73.9661255  26.4774876  72.0852127
  74.2221832  25.6809883  71.6201782  73.4628296  26.9783211  71.4432678
  83.4702072  33.5893974  69.5221024  82.9058533  32.8882790  69.1962738
  84.2662201  33.5206146  68.9949722   1.2773385  49.3792763  52.1050835
   0.8750668  48.7066765  51.5555153   0.9888492  49.1673203  52.9928207
  62.8296814  24.6968899  13.7689524  62.3996925  24.5138130  12.9335947
  62.2962112  25.3846264  14.1672716  71.6715240  17.0546780  43.4021683
  71.5113831  17.6086884  42.6381912  71.5926361  17.6480637  44.1490936
  67.8117752  30.3755264  13.5373096  67.6207581  30.7386799  12.6725187
  67.7063217  31.1147842  14.1361475  78.6366882  27.9295197  59.5935097
  77.9440155  28.4840603  59.2344589  78.1787643  27.1539688  59.9176369
  32.7313614  47.3482285   0.0747161  33.2959366  47.4262466   0.8437408
  32.7248688  46.4118271  -0.1236359   0.5450942  40.4871140  15.7536135
   0.1983716  39.6907234  15.3513985   1.0234433  40.9229469  15.0483027
  52.8911171   8.7016344  26.2453709  53.4227028   8.7188807  25.4495373
  52.4294281   7.8640223  26.2069035  46.7209473  41.8012695  79.3752670
  46.8023605  42.3960190  78.6296997  46.7499695  40.9263802  78.9880219
  80.9781113  39.7281342  23.8261318  81.3670883  39.2582092  23.0885029
  80.0343475  39.6212006  23.7073822  86.3298492  19.0646057  80.5898666
  85.7449646  19.4719677  81.2287674  86.7459106  19.8013000  80.1421967
  41.0614128  62.0123024  79.1278534  40.6952667  61.3873558  78.5020599
  41.9520569  62.1706657  78.8149490   5.6425586  63.6993256  19.1864891
   6.1711416  62.9827843  18.8352089   5.7213268  64.3965683  18.5354252
  45.3272171  69.6627731   3.8340235  44.6334305  69.5592117   3.1827450
  44.8837852  69.5553894   4.6754913   1.1003566  53.4785919  58.4790993
   1.1052604  53.6721077  57.5416794   0.3716098  53.9931488  58.8260765
  30.3797016  58.1164894  35.2020378  31.0531254  57.4667892  35.0004883
  29.7904034  58.0924263  34.4481277  79.6552277  34.0128403  14.4248676
  79.1450195  33.5196724  13.7824469  79.9168549  34.8091621  13.9626408
  18.2118263  17.1287670  83.7635269  17.8044796  17.8872242  83.3451462
  17.5280724  16.7720165  84.3304825  52.9624176  58.3909607  27.1454582
  53.7897720  58.4204636  26.6649971  52.4307442  59.0814400  26.7494850
  11.3233089  53.1429749   6.5347834  10.7995310  53.6139183   5.8866339
  12.2295055  53.2946091   6.2663674   5.4123168  16.9736366  78.1244812
   6.0866661  16.7094936  77.4986115   5.7450004  16.6807213  78.9728622
  57.8650665  15.9136095  69.3511734  58.5952339  15.4206610  69.7254639
  57.7681427  15.5628948  68.4658279  40.8973083  61.9732437   3.2969019
  40.3768654  61.1778412   3.4096365  41.7614174  61.7446136   3.6393602
  81.6990433  53.0822716  11.3769093  80.7794876  52.9802132  11.6223316
  81.9104462  52.2791901  10.9008837  17.3029232  10.2316217  88.7792587
  18.1671066   9.9703522  88.4612045  17.3787670  11.1734276  88.9324951
  48.7371025  60.0021172  28.1770649  48.5160561  59.5167656  28.9719276
  47.9476433  59.9514656  27.6381626  53.9169388  56.5899124  10.7699223
  53.0057335  56.3809853  10.9755726  53.9392090  57.5457916  10.7249069
  17.4796696   0.2076630  32.3301544  18.3299160  -0.0995714  32.6446724
  17.2276764   0.8916289  32.9505730  84.2808228  48.3210487  75.1236572
  84.6827316  49.1887283  75.0807953  84.9603729  47.7605667  75.4982224
  56.0720673   3.1389167  31.7918549  55.1832428   3.3458540  32.0806351
  56.5671196   3.0251777  32.6031609  25.0470409  36.0937576  78.1546402
  25.8248749  36.6504745  78.1903458  25.3757133  35.2409897  77.8700562
  69.2539368  38.9027748  21.4702721  69.0467529  37.9782066  21.3343239
  68.5443115  39.3739624  21.0336304  70.4767990  26.4080925  22.8986664
  70.3906784  25.4583073  22.8166733  70.5981979  26.7160015  22.0005093
  84.0902176  15.8889008   1.4629064  84.4281693  14.9946756   1.4141115
  84.8254623  16.4380074   1.1906513  71.2871933  26.1309929  82.8835983
  71.3560028  25.2318821  82.5625076  70.9894180  26.6339035  82.1255417
  61.8570595  46.5944595  72.0305939  61.8681107  46.9488983  72.9196854
  60.9357872  46.6238213  71.7724762  75.4130630   5.7240076  10.2574358
  75.7171173   5.3613963  11.0894804  75.1153717   4.9629650   9.7590160
   9.6111069   1.8096242  72.2315216   9.2898741   2.6885791  72.4327164
   9.6814518   1.3794327  73.0837021  48.4531631  32.2266426   2.2456453
  48.5013084  33.1775208   2.3443615  49.3360481  31.9683018   1.9810616
  58.4995537  48.7266846  87.0089111  58.6916695  49.4968262  86.4739304
  59.0819321  48.8083572  87.7641602  17.9099731  36.4134903  24.1568356
  18.5478668  36.7055702  23.5056744  17.4445629  37.2105331  24.4105053
  60.6466866  30.5051956  22.5985451  61.2351799  29.8386631  22.9530010
  61.2228394  31.1077023  22.1281548  45.6558151  63.8008156  29.5569477
  45.5437317  62.9018288  29.2479324  45.1865883  63.8277130  30.3908138
  72.1236572  63.0909424  20.7936916  72.4813766  63.9140816  20.4609604
  72.4392929  62.4273186  20.1803341  37.5523224  46.8989410   4.7340832
  38.4471321  46.8480988   4.3979902  37.5764999  46.4072266   5.5549765
  43.4086075  37.8265800  67.6957092  44.1464920  38.0012856  68.2798615
  42.6961021  38.3633728  68.0427170  46.5600319   0.2090862  21.9390354
  47.0457268  -0.5083895  22.3459301  46.3383255   0.7908677  22.6660900
  68.9000168  46.1876068  21.7198658  68.8628311  46.3951149  20.7861691
  69.8272629  46.2628975  21.9452095  18.3496990  63.7631607  82.5787201
  18.0984173  64.6228180  82.9164810  19.2484531  63.8801498  82.2708359
  81.2303238  59.4772797   5.8608689  82.0506363  59.1200714   6.2010312
  81.0943527  60.2824554   6.3603077  66.8597412   8.2011023  16.1898556
  66.6632080   7.3625641  15.7721720  66.7036362   8.0469913  17.1215820
  57.7724953  51.1063995  67.6933365  56.9876900  51.1075554  68.2413406
  58.4715843  50.8112793  68.2767868  74.0693283  36.2679214   6.6062908
  74.5751038  36.7653580   5.9636555  74.4497681  35.3898888   6.5828152
  66.4900742  71.8321075  76.9329987  66.9823227  71.0205765  77.0568619
  65.7583084  71.5844879  76.3678207  68.0610580  42.1820831  28.8474388
  68.2720871  41.6074715  28.1115570  67.7879944  41.5867920  29.5455055
  29.4293404  57.6975403  49.2722244  28.5958614  57.8897896  48.8425903
  29.6695328  58.5162048  49.7061958  40.5442924  21.9044800  79.9435043
  40.3081551  22.4396343  79.1858292  41.4211655  22.2035732  80.1840591
  69.4674606  31.2511997  27.4200115  68.8591385  31.4703922  28.1257915
  69.8758163  32.0852852  27.1881065   0.6268889  57.4783592   2.4398780
   1.0294374  56.7458229   2.9063303   0.6937392  57.2393913   1.5154015
   6.7351418  51.7295990  60.5355568   7.4158201  51.2177658  60.0985985
   7.0550928  51.8384743  61.4311066  75.2288437   8.3122606  17.9717999
  75.2304993   9.2543402  17.8023453  76.1397171   8.0451365  17.8485603
  44.5863953  55.9293251  64.9357681  44.0522575  55.5389366  65.6275253
  43.9635620  56.1317635  64.2376785  86.5152664  49.8208046  73.6415863
  86.4946671  50.1769562  74.5298233  86.5789032  50.5906219  73.0762863
  52.8753014  24.2578869  23.9328117  52.2892265  23.6836128  24.4257183
  53.4977913  23.6629658  23.5147114  55.0511475  51.9630547   8.4166212
  54.5491905  51.6863747   7.6499915  54.4155922  52.4213486   8.9664078
  35.0098114  31.1749783  71.1648331  35.8730583  31.3767681  71.5258255
  34.9675255  31.6764088  70.3505783   8.6052294   9.4927368   7.6005058
   8.8056307   8.7097435   7.0876784   7.6630135   9.6182299   7.4877577
  19.0950489   0.5411748  49.9630165  18.5712166   1.2852488  50.2599754
  18.4843864  -0.1959262  49.9607010  46.6244049   2.9964757  79.6299057
  46.6755180   2.4522274  80.4156647  47.3408585   3.6239078  79.7261200
  20.6824226  38.9195099  79.6152267  20.1671391  38.3910370  79.0057831
  20.5889778  39.8159981  79.2930298  11.2070303  52.2844543  12.0167875
  11.2410460  52.5098305  12.9464540  10.3257227  52.5366936  11.7412786
   3.8411424  18.3925571  60.1086998   4.4058766  18.5370026  59.3494644
   4.4465237  18.1952744  60.8234215  28.5199680  31.7589226   2.3842866
  27.8467846  32.0078926   1.7509844  28.0730000  31.7818222   3.2304115
  60.9416428  30.1281757  50.1882477  60.3954124  29.3829670  49.9381905
  60.5573463  30.4429512  51.0064583  49.7585831  51.0262489   7.7082825
  49.3654671  51.3063469   6.8817015  49.9689102  51.8423347   8.1621552
  18.0832920  47.9726715  15.2407246  17.3468094  47.3625145  15.2015142
  17.8378983  48.6009636  15.9198856  29.3556080  59.8789635   7.8064227
  28.5643482  59.3904305   7.5795431  30.0123196  59.2043457   7.9792109
  63.4786301  67.4467468  44.5355988  63.7815666  68.0936127  45.1728058
  62.5420227  67.6215134  44.4436722  80.0980759  51.5307045  52.5148087
  79.8725204  52.4211807  52.7838936  80.0633087  51.0200233  53.3236542
  72.5960388   9.0714235  40.7935562  72.6807556   8.1734524  41.1140289
  73.4669876   9.4507771  40.9108925  22.6123638  68.7855911  36.7042351
  21.8969803  68.4783325  36.1474152  22.2950039  69.6123734  37.0674782
  72.1715240  22.0155983  39.5971642  72.9823914  21.5809479  39.8613548
  71.4768372  21.4292259  39.8968430  55.9891243  37.5109978  87.3927231
  55.5307655  38.2342606  87.8205414  56.5060005  37.1086960  88.0907364
  21.3624649  58.8497849  26.2229652  21.3205528  59.1992989  27.1130848
  20.5193996  58.4144478  26.0966454  42.7461205   8.7391062  32.8724403
  42.7183266   7.7992587  32.6931496  43.4249725   9.0746574  32.2869530
  34.8254051  27.0598602  13.8773212  34.1093063  27.6943455  13.9067020
  34.4607811  26.2686386  14.2738686  57.0109558  42.0798645  28.9360275
  56.1652222  41.8478165  28.5524654  57.5233994  42.4157486  28.2006264
  23.7796707  48.0343094  63.5042801  24.5798454  48.2719536  63.9727631
  23.9211273  48.3516045  62.6123466  46.1309204  61.1397858  65.7949066
  46.9479866  60.6443214  65.7387924  45.4603767  60.5320396  65.4830627
  60.0830383   2.1732476  18.1017056  59.6859398   1.9614784  18.9465122
  59.6265182   1.6119083  17.4750328  52.1892242  66.5730133  37.7502747
  52.8812637  66.9715576  37.2225609  52.1590614  65.6622467  37.4573288
  82.7311325  67.4477386  77.0102768  83.1825867  68.0907288  77.5570755
  83.3861008  66.7686234  76.8488235  70.1622849  70.7982101   5.2962055
  70.4251633  70.7721024   4.3761811  70.6731873  70.1031723   5.7111006
  32.5650406   9.6994829  13.2592945  32.5822296   9.9707289  12.3414917
  32.4228897  10.5111732  13.7463102  39.3830528  54.3396416  17.2747383
  39.2638817  55.2888069  17.2413330  38.5743904  53.9836159  16.9065781
  39.1296768  26.2164898  21.3771038  40.0589638  26.1207409  21.5856361
  38.7096481  25.4718418  21.8075771  85.6198044  37.4437065  39.5187912
  86.5674591  37.4760094  39.3879089  85.4168472  36.5096931  39.5703964
   7.8768392  47.2102547  59.9008865   7.4479556  47.2170563  59.0451736
   7.3569932  46.6004868  60.4245033  66.7820511  26.0985565  24.4506130
  66.6140289  25.1562557  24.4421215  67.2719803  26.2472115  25.2593784
  67.9400940  29.2159042  17.7994041  67.9754639  29.8241901  18.5376244
  67.0056076  29.0625019  17.6600227  84.9582520   0.0798937  84.7876205
  84.9896317   0.8160842  84.1766586  84.4989166   0.4238521  85.5537338
  79.9163055  30.3264732  74.1071320  79.6685104  29.4369774  73.8548813
  79.1060638  30.7171059  74.4344559  44.2871895  41.6473007  23.9594078
  43.5225220  41.4454613  23.4201717  44.7223663  40.8037796  24.0831928
  81.7357254   0.1132934  78.9457169  81.0939026  -0.4924240  78.5750351
  81.5717926   0.9415054  78.4946899  48.8318520   6.7423949  43.8201103
  49.1330147   6.3973827  44.6606445  48.4717903   7.6040854  44.0300598
  76.8033371  23.2079811  70.5796127  75.9267578  23.5924740  70.5797806
  77.2986908  23.7413044  69.9579773  75.2845154  24.9851131  38.2631340
  75.5344086  25.6488285  37.6202774  75.4927597  25.3809605  39.1094055
  40.9111557  12.1175871  22.6681938  40.2822533  11.7504644  23.2894306
  41.3424377  12.8219633  23.1520138  13.4819832  39.3846588  53.6281471
  12.7125921  39.1611404  54.1518936  14.0897818  39.7810020  54.2524223
  83.3920059  67.5887222  66.6174164  84.2650299  67.8809128  66.8794861
  83.3571625  66.6698151  66.8831940  59.6699409  58.0263443  51.7750816
  59.1876869  58.0737038  52.6005630  60.5373154  57.7058907  52.0224648
  86.4276886   4.4427462  79.4716492  86.9878235   3.6861680  79.6450653
  85.5391693   4.1245880  79.6314697   4.8880835   1.1705697  88.5065689
   4.9462194   2.0064261  88.9693832   3.9485409   1.0063080  88.4258881
  76.0213165  25.9789333  73.8667908  75.5136795  26.3122692  73.1269073
  76.8616333  25.7245636  73.4854965  65.6062927  20.4269657  83.3045883
  66.3769989  20.3849812  83.8707047  65.1729431  21.2443504  83.5501938
  83.8611526   5.8740463  47.6284103  84.2637405   6.7224488  47.4430084
  84.2698364   5.2736454  47.0049286   2.7673404  40.5377350  61.6057816
   2.0176439  40.7585983  61.0531464   3.5164845  40.9378128  61.1642494
  56.2530479  47.4711189  56.8082581  55.8567619  47.1445503  57.6160583
  57.1922417  47.4885178  56.9922256  46.7451477  33.8827553  16.6292896
  46.5567589  32.9563637  16.7794380  47.5989189  33.8864708  16.1965199
  83.6867142  54.8338394  77.9484253  83.7225266  53.9106903  78.1989136
  82.8568497  55.1475143  78.3078156  20.1760311  44.5058784  79.7393951
  20.8889637  44.6546173  80.3605499  20.1628189  45.2942543  79.1966934
  60.9768639  35.3067322   0.3151133  61.6750717  34.6519508   0.3137643
  61.2659264  35.9663963  -0.3153763  75.3305435  27.6252575  60.0348701
  75.2174683  28.2512150  60.7501450  75.9085236  26.9523659  60.3945847
  49.7159920  67.1659241  73.9311066  49.2602043  67.3375626  73.1070709
  49.1137505  67.4765854  74.6071396  38.1547546  43.0236282   4.1466794
  37.9131508  42.2310753   4.6259718  37.3826370  43.5859337   4.2089624
  47.5849228  60.7292328  47.1434059  47.9729385  61.3039513  47.8032341
  48.1454964  59.9533539  47.1421089  16.2353020  61.6179123  77.9469147
  16.4877682  60.6948776  77.9245834  16.5723267  61.9382324  78.7835999
  61.3649521  28.7710648  16.9788189  60.9042625  27.9637871  17.2075062
  61.7474976  29.0704002  17.8036156  82.3677979  16.8804016   9.4018574
  82.9586487  16.7675762   8.6572838  81.4930878  16.8952084   9.0133991
  84.5017776  48.7402687  56.3058624  84.8936615  48.9967537  57.1406555
  84.6275253  47.7923088  56.2634544  26.4878883   5.3483391  75.1701813
  27.0481625   5.5732265  75.9129791  26.6445770   6.0447865  74.5324936
  81.3549042  27.9909878   9.5703430  81.2867966  28.2204857   8.6435614
  80.4947891  27.6346016   9.7926712  65.7814255  62.8203850  55.8011894
  66.3673630  62.5936356  55.0790405  64.9042435  62.6383324  55.4640923
  17.7833977  69.3751068   6.7568007  18.2393818  68.8601837   6.0910926
  17.3649845  70.0830841   6.2669749  17.4716663   0.1327252  45.2207909
  16.8680286  -0.4026264  45.7358170  16.9209442   0.5368583  44.5502586
  23.7986641  29.6305847  26.5086422  24.3232346  28.8791599  26.7850838
  23.9180470  29.6699352  25.5597324  18.2567387  67.5233612  32.8200035
  17.8058090  66.8121567  32.3649368  17.8814240  67.5202637  33.7005463
  21.3911972  23.3192749  12.5011797  21.5970898  22.8952332  13.3342638
  20.5007210  23.0317173  12.2996941  74.6311340  63.4372330  17.1758862
  74.9131241  62.6173744  17.5815220  75.4057999  63.9986267  17.2068291
  59.3474808  27.8143864  49.8331566  58.5618477  28.2602959  49.5166473
  59.9203148  27.7662487  49.0677986  51.9204750   4.1009974  64.3186951
  52.6795540   3.6184242  63.9913521  52.1890907   5.0192313  64.2882843
  68.9030838  54.4093056  63.6645622  68.4815979  55.1781044  63.2804718
  69.6964874  54.7517471  64.0762482  44.6832771  64.0251923  88.3304138
  44.8325233  63.4693565  89.0952682  44.7847672  63.4361305  87.5827866
  29.1217003  18.1001873  40.9414864  28.4151821  18.1974888  41.5799179
  28.6744595  18.0305099  40.0980682  86.0014572  56.3650055  77.5851364
  85.8392105  56.9408722  78.3323212  85.1743927  55.9005928  77.4566422
  49.3068390  55.1419945  88.3621140  48.4428253  54.8992577  88.0292511
  49.4601135  56.0199013  88.0127945  37.4241638  64.8535461  39.4472580
  38.0325317  65.5622025  39.6568527  37.6900482  64.1328659  40.0183525
  49.1433945  24.8234539  54.5156174  49.4362946  25.5402813  55.0782890
  48.8974571  25.2488937  53.6941910   7.4723158  38.4348145  74.9476318
   6.8956399  37.7474709  74.6141129   8.3398581  38.2004662  74.6179657
  45.0243378   4.9962897  32.6837845  45.9727859   5.0221038  32.8102951
  44.6846237   5.6611767  33.2827415  60.1647034  26.5076275  17.7297344
  60.8509941  25.8457317  17.6452675  59.4754715  26.2154884  17.1332054
  64.2809982  31.3643341  71.6518860  64.0839462  31.4054794  72.5876770
  64.0258331  30.4791069  71.3920898  41.3768196  53.9334106   5.1499801
  41.3737793  53.0969658   5.6153603  41.4727364  53.6942482   4.2281165
  69.0890503  25.4324532  43.7518578  68.7411041  26.2443600  43.3831177
  69.8087540  25.7148342  44.3162384  67.3504791   8.5039635  44.4376793
  68.1659775   9.0044737  44.4114342  67.5678711   7.6698818  44.0214119
  86.1871109  62.2937431   1.0523193  86.1551361  61.3439674   0.9377191
  86.7596130  62.4246521   1.8081897  28.6495667  38.7590523   1.9449825
  27.8906059  38.4677734   1.4396453  29.3387718  38.8826218   1.2923259
  69.2240219   3.3121111  20.5051880  69.5916672   3.0111303  21.3361397
  68.3256378   2.9817626  20.5071125  43.0783463  60.2419510  34.6264915
  43.0831261  60.5017090  35.5477600  42.1535454  60.1049156  34.4210739
  55.6568031  27.8865948  56.0984116  55.0794868  27.6816063  56.8338852
  56.2188721  27.1164913  56.0132523  85.0319138   9.8940926  15.2831354
  85.7434921  10.5191727  15.4215412  84.5315323  10.2585955  14.5530720
  29.8487797  26.9526196  14.2870092  29.3241463  27.5216103  13.7237682
  29.2085896  26.3874722  14.7194405  41.0355034   6.5690851  77.5167542
  40.3807640   6.0142231  77.9406357  40.5242653   7.2410455  77.0658188
  78.5155182   5.1277838  12.1132507  79.0330353   5.1772866  12.9169645
  78.8805695   5.8109317  11.5508642  71.2711716  12.5755129  15.8337431
  70.7653656  13.3876734  15.8056965  70.8586807  12.0136728  15.1776819
  31.8411961  47.8933144  81.6690674  31.5975666  46.9935455  81.4515991
  31.7736149  48.3668060  80.8399353  70.9991608   1.6103929  76.6561127
  70.6220551   0.8948582  77.1680069  70.3554916   2.3159456  76.7202988
  46.0974159  59.2743607  52.1540794  45.4961052  58.8792038  51.5228043
  46.3247452  60.1213722  51.7705154  59.0320396  61.4466095  62.0627403
  59.5521507  62.2028923  62.3343086  59.0028076  60.8853455  62.8375664
  55.0988235  53.6948738  65.7250366  55.0190697  52.7700768  65.9587479
  54.1952667  53.9998970  65.6427231  28.8572483  66.6336212  71.0789108
  29.2444534  66.4405212  70.2250900  28.0640793  67.1293869  70.8756027
  32.5535965  53.9865456  73.1205368  31.7879124  54.3201180  72.6528931
  33.1430779  54.7382088  73.1817780  28.1309662   9.9633617  27.7520695
  27.7213039   9.9861641  26.8872643  27.4975777   9.5060291  28.3051510
  82.0831451  40.4794426  16.3614216  82.7703247  39.8131371  16.3542194
  81.5233536  40.2542229  15.6183624  81.7866974  23.5242062  66.3607559
  82.2670135  24.3519001  66.3393860  82.2897110  22.9406567  65.7927094
  62.5082512   1.9363302   2.4961412  62.6445198   1.0793921   2.0920134
  62.4198380   1.7490839   3.4306753  54.1031456  45.1581573  31.9970112
  54.5292053  45.7568474  31.3835964  53.6669044  44.5141373  31.4391937
  65.4307098  26.0572834  62.6689720  65.4927063  25.3295288  62.0502968
  66.3006439  26.1099110  63.0648041  12.9717274   7.8801990  27.6415024
  13.8083229   7.8998971  27.1767960  13.1807423   7.5007138  28.4950447
   5.7063518  43.1166916  25.6964741   5.3153920  42.6082344  24.9859447
   6.4003525  42.5539970  26.0399399   8.4076071  70.2224197  44.7470703
   8.0427132  70.2966385  45.6288719   8.2469788  69.3124771  44.4972000
   5.8227992  62.0487595  27.5121841   6.2255731  62.4425354  26.7382679
   4.9723496  62.4817734  27.5861320  56.8650513  53.3006592  43.9968605
  57.5891304  53.1504898  44.6046371  56.1975746  52.6662598  44.2580986
  71.6524734  35.1189880  59.7090683  72.0755005  34.4915924  59.1228485
  70.7388840  35.1348991  59.4238548  50.6333313  18.0586071  62.3971481
  50.3081627  18.5313530  63.1633110  50.4191246  17.1422920  62.5723953
  74.8591309   8.6056194  51.7573662  74.3525085   7.8087587  51.6005936
  75.0870132   8.5657120  52.6861877  37.5524712   4.4963799  63.1814117
  37.7866669   5.3805127  62.8991089  37.8550110   4.4464593  64.0881653
  61.0267143  20.7798405   9.2696505  61.9671974  20.8273678   9.4413071
  60.6805153  20.2400837   9.9803104  16.4487762  30.8935890  81.2357712
  16.8652611  30.1617374  80.7806091  16.3455544  31.5665550  80.5629425
  79.2584839  42.1596069  71.8999329  78.8380203  42.7863998  71.3112259
  79.5565414  41.4542885  71.3255463  53.2232094  17.5963039  58.3665237
  53.0548744  17.7350006  59.2985420  52.4579811  17.1135082  58.0541763
  41.2773781  48.6726685  27.3224907  42.1554260  48.3550072  27.5331059
  40.8350334  47.9162712  26.9372387  43.8589172  58.2009583  87.4102936
  43.8494873  57.2787666  87.1539612  44.6705589  58.5449448  87.0372772
  69.2129364  23.5992661  22.9854183  69.7971878  22.8506775  22.8650131
  68.3765945  23.3116741  22.6192722  70.9784851  22.3288250  10.0834761
  70.4745941  22.3233814   9.2696619  71.4771194  23.1452465  10.0509853
  67.9882355  12.3198223  65.7701187  68.3200607  11.4352827  65.6161194
  67.0401230  12.2105761  65.8434219  56.8356514  39.4650307  18.4385414
  56.9734688  40.1667480  19.0748062  56.5673180  38.7127190  18.9660416
  30.3349743  58.7877045   4.0794029  30.5847683  57.9117584   4.3735976
  29.3794823  58.7959480   4.1359553  50.3676643  17.4628525  83.4296951
  51.0122681  17.5425549  82.7265854  50.8255272  16.9851665  84.1213684
  19.7111168  15.9205179  59.7416496  19.0159187  15.8015833  60.3887863
  19.8808270  16.8625526  59.7428284  27.5574760  14.1734381  72.7160263
  27.1417179  14.8240328  72.1502533  27.5666237  14.5803194  73.5823975
  81.9671707  70.7774811  24.3076477  81.8299561  69.8316879  24.3613091
  81.2677383  71.0887604  23.7330742  51.7307014  15.8647909  26.5749607
  51.0610847  15.7026825  25.9104576  52.1077843  15.0026474  26.7503071
  31.7513103  43.3934135   4.3170581  31.0397968  43.6814003   3.7451811
  31.4936829  42.5147514   4.5960035   0.5440066  22.1980171   5.3182425
   0.9479862  23.0329990   5.0819435  -0.1835411  22.1015472   4.7037511
  59.5683098  18.7512608  58.5211792  60.4519806  18.6007290  58.8568840
  59.4879532  18.1504478  57.7803688   3.3029897  63.3347931  34.0827560
   3.4221792  64.2775497  34.1977997   4.0715585  62.9437447  34.4982262
  18.7103195   4.9980125  26.5151920  18.0554123   5.2565069  27.1636581
  19.0211334   4.1440945  26.8159428  41.5584335  62.6810303  32.1281395
  41.9723511  63.4603462  31.7572308  42.0540161  61.9489555  31.7611294
  83.5803299   7.2428474   6.9095898  83.3838043   6.3082633   6.8450723
  83.8671951   7.3653603   7.8145370  39.6114693  62.5210648  67.1489029
  39.5557671  63.1633835  67.8564072  38.7925301  62.6264725  66.6646881
  39.5893021  20.2739601  18.1310215  39.2963600  20.8881931  17.4578705
  40.4596062  20.5865955  18.3781319  69.9884109  71.2052917  77.9772644
  69.5180435  70.9067459  78.7556229  69.6814957  70.6299286  77.2765579
   3.2755523   6.7321572  30.3799438   3.6290739   6.9193888  29.5103474
   4.0394778   6.4844995  30.9008236  86.8166046  68.8075562  38.2924728
  86.6855927  68.1568222  38.9821167  86.5617599  68.3575439  37.4870071
  50.8745117  45.2524910  23.3118744  51.5273247  45.4136925  22.6306362
  51.3885994  45.0377960  24.0902405  77.7962036  27.6338348   0.6593454
  77.3007126  27.6545506   1.4780594  78.6731491  27.3497887   0.9172408
  76.5714874  31.8848858  29.1299591  76.3237076  31.1874409  28.5229950
  76.6243439  32.6696129  28.5843925  46.8874893  38.7411385  10.8133841
  47.8055725  38.9871140  10.9267654  46.4657631  39.0064049  11.6307039
  32.6464577  46.4206238  37.0647278  32.8005562  45.5374222  37.4000473
  31.7211647  46.5870590  37.2446251  64.0076294  39.6908646  65.7659836
  63.2051811  39.7812347  65.2520370  64.1559143  40.5620804  66.1337204
   6.4345694   3.1777837  27.3669357   7.2502794   3.6614249  27.2367821
   5.7689786   3.8565021  27.4790154  43.7619362  60.7085533  19.2072277
  44.1941376  59.9442940  19.5884686  43.5296516  60.4345741  18.3199787
  16.4010563   9.8249207  51.4888153  16.7349854   9.0797682  51.9882889
  16.0663910   9.4397650  50.6789513  16.4986610  70.0808640  18.1219769
  16.0092144  70.8582230  18.3910065  17.2410793  70.0446625  18.7250824
  74.2346191  29.0975971  38.6585541  73.5357513  29.7516575  38.6540871
  74.2465210  28.7659283  39.5563736  51.7060127  42.1821404  22.4182434
  52.1782875  41.7333298  21.7169876  52.0929642  41.8405876  23.2243710
  18.4672489  47.6480179   4.2305670  19.2480011  47.2570496   4.6227446
  17.7929649  46.9740791   4.3165002  19.1569138  22.2572651  81.9211273
  18.2471657  22.5532207  81.8894882  19.5926914  22.7476540  81.2240982
  50.0532265  40.8094177  19.9705696  50.9383659  40.6758118  20.3095627
  50.0166168  41.7418480  19.7573566   2.6480157  62.7507782  41.5959778
   3.3358748  63.1988373  41.1037102   2.9713233  61.8557205  41.6987953
  24.6997280   9.9447803  19.6518192  24.4180183  10.8244286  19.4006405
  23.8849049   9.4549351  19.7629414  79.2799301   8.9179363  22.2474480
  78.6607513   9.6404428  22.1433411  79.8756714   9.0039196  21.5031834
  71.9800415  37.1344910  24.0938702  72.2691269  36.4521179  24.6996994
  71.3097076  37.6164742  24.5781918   7.1107025  33.8483162  80.1566696
   6.5871692  33.3606415  79.5208130   6.7360101  33.6137047  81.0056686
  77.1832123  18.0975018  24.5942574  76.6248322  18.7058220  24.1101151
  76.6263123  17.7724533  25.3016720  38.9233665  67.3717728  84.8104401
  39.6941719  66.8399506  85.0085831  39.0209312  67.5998154  83.8859406
  20.0311985  52.3855400  81.4554901  19.9532375  51.6111679  82.0127106
  19.3336258  52.2856827  80.8076782  36.4354897  51.6991920  36.4867744
  35.8908119  51.9095421  35.7282829  36.5985832  52.5440063  36.9062042
  71.6012955  25.8448429  61.9033890  71.6520157  26.7979279  61.9761276
  71.2717361  25.6893883  61.0182610  44.1320038  56.9934196  40.1484413
  43.9002304  56.2355080  40.6851730  43.8144035  57.7461929  40.6471405
  69.4997559  25.6255074  25.8610935  69.8760376  25.8562164  25.0117321
  69.8151474  26.3061657  26.4556236  39.3147240  60.2211227  26.4026966
  40.2329712  60.3325157  26.1564388  39.3458748  59.8923492  27.3011227
  14.0691776  23.0653744  32.0454178  13.9794130  22.2961922  32.6080284
  13.7746563  22.7681160  31.1845303   0.6179245   4.7212195  12.5710840
   0.8804681   3.9018235  12.1516886   0.2695725   5.2549314  11.8569174
  61.6287689  21.6198368  13.1522999  61.2462196  22.4108124  12.7725039
  60.9273262  21.2472515  13.6865168  80.0270462  60.7511139  54.3544617
  80.3981018  60.3410759  55.1357536  79.6417465  61.5675812  54.6725082
  82.1339569  36.5839119  73.7507477  82.8841782  36.3148460  74.2808380
  81.4324265  35.9853439  74.0072784  73.2454224   1.1619658  36.1023903
  74.0585709   0.6646515  36.1901665  72.9578171   0.9942972  35.2049484
  42.1639977  19.7525463  55.2878761  42.1569176  19.2454605  54.4760590
  42.1333733  19.0940247  55.9818802  37.2567749  33.5115242  13.7296906
  37.1060867  34.4567070  13.7172976  38.0419617  33.4011765  14.2659159
  67.6868286  43.6033134  22.6829491  67.3688049  43.3279037  21.8231544
  68.1688690  44.4124374  22.5121212  18.6354675  65.9218063  17.5369549
  18.9395580  65.0154648  17.4888458  18.2070637  65.9857101  18.3905449
  54.6962929  42.6389961  82.7987366  54.9960365  41.7614021  83.0358276
  53.8291473  42.5010872  82.4175873  80.5856400  39.5486832  28.0300903
  80.7912903  39.1562614  27.1815948  80.1890564  40.3926010  27.8138618
  71.1383972  64.4545593  23.4833946  71.3458633  64.3614731  22.5535946
  71.9339523  64.1737671  23.9355869  53.3133469   9.1012936  77.6135025
  53.3529053   9.9460611  78.0618744  52.5888443   8.6397266  78.0357361
  55.4349174  56.9142914  15.8602409  55.7803230  57.7541656  15.5576782
  55.4341965  56.3603859  15.0795879  66.3783035  13.6589365  81.9007568
  66.1799698  13.0051146  81.2303696  67.1408081  13.3071957  82.3602066
  24.9475937  42.2840118  66.5167694  24.4360619  41.4783211  66.4430771
  24.4476051  42.9314690  66.0197372  40.8667488  50.2619858  23.9105129
  40.7653885  51.0315018  23.3503284  41.7086029  49.8868332  23.6521072
  61.6949501  38.5196533  18.2552872  61.0487709  39.0932655  18.6671791
  61.2060280  38.0587044  17.5735874  85.9879150  69.4677277  16.3286400
  85.0811462  69.3866882  16.6243153  86.5115128  69.2823868  17.1082077
  69.5204163  25.8088741  80.7182083  69.3960724  24.8689137  80.5868912
  69.4247055  26.1875305  79.8443146  35.0748482  59.6105499  85.7351227
  35.7989960  59.7818832  86.3371887  34.3163795  60.0219116  86.1495361
  33.7746201  37.5726814   8.2408924  33.6212502  37.9105225   7.3585243
  33.6646080  36.6255150   8.1571856  55.3441200  51.6292534  35.3996544
  55.0429306  51.3267746  34.5429039  54.7880974  52.3831100  35.5965691
  77.1464233  20.3978596  19.5944233  76.6931610  20.2051449  18.7736626
  77.5982819  19.5834808  19.8154297  19.5466595  53.3916779  13.1588087
  20.1758842  53.9880333  13.5645981  19.4380589  52.6871490  13.7976208
  78.1943207  36.0224648  73.0614929  78.1773758  35.1976509  72.5760803
  78.9772415  35.9621964  73.6088791  21.0812874  46.8413811  63.4099998
  21.8230095  47.3771667  63.6910973  21.0585175  46.9441528  62.4586067
   8.0238037  51.0037346  54.6310539   7.9870372  51.8107109  55.1445427
   8.1143932  50.3088570  55.2831039  26.6198330  23.6765003  80.9808960
  27.5311852  23.4119644  80.8556290  26.3483162  23.2284184  81.7819748
  75.8899765  16.7805500  31.3479748  76.1113510  17.2312946  30.5330772
  76.7318497  16.6442585  31.7826195  14.0849609  10.5364895  19.3114357
  14.1690378  11.4012966  19.7130203  13.2293606  10.2199831  19.6012688
   1.2695695  68.8665085  68.8702164   1.3170068  68.3433075  69.6703644
   2.0437360  69.4283600  68.9051819  65.2406006  15.7505074   7.5079250
  65.8100739  14.9835062   7.4475904  64.3923492  15.4448900   7.1865296
   5.6276579  66.2515640  57.8039284   6.2793131  66.9251709  57.9984436
   5.7024078  65.6298447  58.5278854  61.5836830  36.4371376  61.6354942
  61.5518112  36.2500954  60.6972885  61.9570961  35.6464233  62.0248070
  42.2752304  63.3427162  35.6320648  43.1486130  63.2261047  35.2581139
  42.1126328  62.5339699  36.1175804   3.5908725  12.2765894   1.6374912
   3.5458248  12.1274509   2.5819278   4.3211155  12.8852577   1.5256900
  25.8240795  48.2035217  65.4404449  26.3089046  47.5246124  65.9097672
  26.3536510  48.9936218  65.5478287  31.9003258  24.1043243  86.6616211
  31.5221519  23.4465313  86.0780792  31.8708897  23.7003803  87.5289154
  62.0237579   8.0953913  37.3129044  62.4583702   8.3003387  38.1407585
  61.5796928   7.2630959  37.4751434  80.9940186  21.7463436  81.7491760
  81.5683899  21.5740738  81.0030823  80.9815598  22.7003250  81.8265991
  26.1417084  26.2069798  74.1833038  26.2883663  25.2962246  74.4387360
  25.5328579  26.5448685  74.8400879  72.1336594  15.5654240  49.2674904
  72.0825577  16.5154037  49.1618652  72.7227783  15.4384680  50.0111694
  58.7541924  13.1972761  62.2631950  59.0281067  13.9566975  62.7774734
  58.2908478  12.6394176  62.8879662   6.5779510  18.0981960  29.5850677
   6.6419353  18.3401146  28.6611557   6.1364794  17.2488956  29.5802536
  70.2576447  69.3920135   7.9517775  69.3741989  69.2637939   7.6063557
  70.4135284  68.6242828   8.5017986  64.5627213  50.3056450  86.3304062
  64.6521378  51.1300125  86.8085785  64.3072586  49.6683693  86.9973755
   7.7210784  25.6138191  39.4496307   7.5836210  24.8428688  38.8992004
   8.6419706  25.8400784  39.3192673  73.0525665  27.1143646  19.5757828
  73.0869370  27.7111721  20.3233604  73.2280731  27.6707096  18.8168964
   7.4070783  17.1262894   4.8087716   7.4251227  16.9762802   5.7539716
   8.2345572  17.5691700   4.6207104  10.2472830  51.5369263  88.6739273
  11.1031685  51.2378044  88.3669815  10.1112480  51.0688095  89.4976959
  67.3297348  48.4167938  31.1318016  68.2166214  48.4155846  31.4918900
  66.9919281  47.5420876  31.3241825  65.1579132  59.2494583  18.3902206
  65.5575256  58.4688950  18.0064754  64.4092484  58.9165840  18.8851242
  41.0929260  32.6753044  84.7889709  40.9346046  33.3447571  84.1233902
  41.9060020  32.2516556  84.5139008  71.0693970  14.0771074  65.0933609
  71.0645370  13.4433718  65.8107071  71.8347473  14.6260834  65.2639389
  79.9194336  50.7811813  25.6137009  79.9286194  51.3434448  24.8391018
  80.1509476  51.3649025  26.3361301   0.8798100  51.0680389  70.7488174
   1.1324019  51.8347931  70.2344971   0.3080713  50.5671501  70.1670456
  54.1328812   1.1743609  81.6479721  54.6628876   0.3817655  81.5636139
  54.1758270   1.3932638  82.5788116  73.2421417  33.2231483  33.3358154
  73.4659500  34.1182289  33.5907021  73.9463959  32.9595795  32.7435417
  53.2247429  43.5229530   2.5403979  52.2675819  43.5226212   2.5491686
  53.4706917  44.0996857   3.2636671  20.7821217  68.1502609  15.1445942
  20.6396904  68.8550415  15.7764406  20.9969692  68.6006775  14.3277731
  70.0862656  64.6748123  15.1225424  69.8228531  64.8194885  16.0313416
  69.5518799  65.2879028  14.6177855  53.9819527  20.9121151  75.6420135
  54.6703072  21.4480705  76.0359039  53.1827812  21.1754055  76.0983429
   9.4218788  55.7811127  30.0110245   9.3611126  54.8925819  29.6602421
   9.3644171  56.3470001  29.2411537  11.6245346  62.1836929  83.8556137
  12.1646013  62.2240410  83.0663528  11.0030556  62.9050865  83.7577057
  54.4744873  16.7740479   9.5807724  53.6077614  17.0991592   9.3372068
  54.3140106  15.8916941   9.9153309  45.1096191  66.8942337  30.9389362
  45.5730438  66.1441345  30.5663395  45.4334145  66.9534454  31.8377590
   9.9923773   3.2380877  22.7437477   9.1329679   3.6212447  22.9193535
  10.5946198   3.7380185  23.2947502  27.7767639  33.4793739  81.0008469
  28.1247749  34.3083420  80.6723175  27.6500721  33.6274071  81.9380035
  21.9236584  71.3544693  73.6402969  21.1776638  71.2949142  73.0434952
  22.6625538  71.5863190  73.0777054  70.4197235  28.6855259  20.8531399
  70.8259125  28.6869526  21.7198849  70.3305054  29.6118069  20.6289215
  35.8976707  51.9399910  67.5510178  35.8638611  52.0229301  66.5980225
  35.2320595  51.2840118  67.7581100  56.4113235  62.0316925  55.5926208
  55.5199356  62.1854553  55.2795486  56.2985535  61.7024918  56.4843254
  14.7772541  63.4050026  76.4121094  15.2843456  64.2152405  76.3611298
  15.3134327  62.8201714  76.9475708  24.2985687  33.7368736  81.3996201
  24.8996372  33.0292015  81.1669159  24.5416756  33.9729576  82.2948227
  12.6035261  11.1482115  79.7225037  13.4888039  11.4995613  79.8177338
  12.7265072  10.3028793  79.2906265  45.7472954  30.4203091  19.1131611
  45.7269135  29.8257961  19.8630753  46.6760750  30.4998226  18.8957253
  59.7366982  26.3240490  71.1703644  59.2562943  25.5194187  70.9753952
  59.0606117  26.9494133  71.4312515  22.2881603  59.2689629   0.8735149
  21.7769394  60.0780029   0.8919715  23.1933689  59.5547714   0.9965740
  29.4939861  50.9255638  86.7749481  29.8598671  51.3087845  87.5721283
  30.1898155  51.0170212  86.1240311  83.8262100  43.3618965  52.8582573
  84.2382355  42.7658920  53.4837494  83.7551575  44.1920166  53.3295174
  19.1612358   8.9919004  64.2702713  19.3578644   8.5350971  65.0881348
  19.1796818   8.3062792  63.6025772  57.6204147  20.0031815  67.4265137
  57.4017754  19.4549103  68.1800537  57.5868683  20.8983421  67.7638474
  84.3405151  18.5374165  85.0991364  84.0834885  18.5391026  86.0211868
  84.4013824  17.6102524  84.8691559  80.9694138   8.2414885  83.1124344
  80.9562149   9.1781549  82.9156799  80.4917297   8.1634712  83.9382477
  56.5514717  26.2078266  52.9094124  57.4888382  26.0772762  52.7661247
  56.3590775  25.7102356  53.7041550   8.4529343  40.8120499  60.3720284
   7.6441860  40.3326035  60.1923409   8.8211708  40.9931755  59.5072594
  13.9482174  69.5199127  72.0547333  13.5124884  68.9734268  72.7087402
  14.8588924  69.5624313  72.3464432  79.5147705  64.0664749   5.5389476
  80.1092911  64.6281662   6.0362120  78.7158966  64.5856171   5.4466138
  69.4931335  39.6932144  17.9047813  68.6672516  39.8948860  17.4649143
  69.6482391  40.4433975  18.4787121  13.6949949  61.5428963  16.3902874
  13.1513329  60.7654915  16.5179825  13.4295845  62.1385117  17.0910206
  29.3598881  12.5023212  14.3313789  30.1542435  12.8241787  14.7575703
  29.1012230  11.7409067  14.8505821  77.5901260  40.1885185  39.2846451
  77.7368546  40.0136223  38.3550682  76.7029953  40.5458450  39.3240166
  30.4300022  48.8528404   0.1921172  30.8768482  49.6178894  -0.1701846
  31.0110817  48.1189995  -0.0080208  49.7247925  55.1990242  60.5459518
  49.4508972  55.4531784  61.4272118  49.3769341  55.8874626  59.9791412
   5.8935599  37.5063477  48.7898483   5.0252910  37.4413872  48.3922081
   5.8800840  36.8652878  49.5005493  17.3316860  27.4705677  16.9869061
  16.7724628  26.7191029  16.7899227  16.7382030  28.2214088  16.9712658
   2.0186672  30.0796757   4.6472797   2.7488921  30.6682339   4.8385949
   2.2960613  29.2325802   4.9961538  75.7153854  62.5317116  32.7231140
  75.2570648  63.3008003  32.3844719  75.0810089  61.8195915  32.6413994
  70.1297607  71.2061920  10.4625769  69.8311539  70.5354309   9.8484554
  69.5529022  71.1108932  11.2204618  65.2133560  14.7499552  28.6918201
  65.7721558  15.4672327  28.3926811  64.6109848  15.1587954  29.3132973
   3.0616820  32.6626358  18.7446461   3.4283340  33.5260086  18.9353905
   3.3490112  32.1138535  19.4743805  78.5338898  44.0514565  38.3433609
  77.7895660  44.6525650  38.3135948  78.4714203  43.6352882  39.2030907
  52.0935860  22.0738907   3.6819775  52.0207558  22.0015907   2.7302945
  51.3380318  21.5913029   4.0173612  13.0981379  51.6670570  43.4890785
  13.0544691  52.4993019  43.0182343  12.3360443  51.1769753  43.1804314
  39.4741859  66.7702332  12.8697996  40.3377228  67.0286484  13.1919088
  39.6259918  65.9410629  12.4162979  43.5840111  12.5485210  82.1925278
  44.2999649  13.0099916  81.7558441  43.2575722  11.9351616  81.5341492
  71.0423355  65.9479370  59.3226013  71.1357346  65.3568115  58.5755539
  71.7919312  66.5393829  59.2552071  47.9205437  68.0977707  84.0491333
  47.4752998  68.7293396  84.6140289  48.1133423  68.5864029  83.2489471
  64.1709976  71.0944519  70.2586441  64.3946991  71.6323166  69.4991150
  63.2588501  70.8429947  70.1137772  64.0179214  27.3553162  83.7389450
  64.6130524  27.1955605  84.4714355  64.2692337  26.7076015  83.0805054
  30.3787041   9.8293304   9.0238800  29.7320766  10.3828239   9.4617710
  30.0726471   8.9355822   9.1780691  49.7621727  60.7335320  12.0027456
  50.0983772  61.4396591  12.5546331  48.9883728  61.1070061  11.5808697
  69.6844025  62.8969688  56.4866486  70.5137329  63.3697586  56.4165611
  69.1292801  63.4650002  57.0208855   6.7485619  41.8836403  84.1655273
   7.0699143  42.3598595  83.3999023   5.9250512  41.4913940  83.8753433
  66.9434357  32.5457878  77.6589355  66.4594269  33.1253929  78.2471695
  67.8227539  32.5031662  78.0347061  22.2725029  51.2580338  76.3145905
  22.1830959  51.3363762  77.2643814  22.4963093  52.1413193  76.0214157
  38.1849976  57.3953819  57.3016205  38.2115402  57.8295174  56.4489441
  38.2800674  56.4645996  57.0995483  54.6411362   4.1231060  81.3425751
  55.5522041   4.2571397  81.6037674  54.5539474   3.1738169  81.2560806
  36.0515404  65.8631744  48.1364517  36.5451088  65.9113770  47.3177338
  35.4638824  65.1169052  48.0182648  32.4177704  45.4723358  78.4780273
  32.7831917  44.7617455  79.0050583  32.6207619  45.2293816  77.5747070
  75.3640518   9.5897274  82.8051529  75.8802948  10.3676529  82.5940781
  75.7120438   8.9080944  82.2302551  64.5335464   6.7239604  36.0224419
  63.7807465   7.2270799  36.3329124  65.0532303   7.3539600  35.5231819
  56.2107811  25.7938862  21.8083420  56.9345093  26.2789268  21.4118710
  55.6938362  26.4613209  22.2594833  74.2254715  33.3595543  64.5019302
  73.7513046  33.9939346  63.9643745  73.9547577  33.5558281  65.3988266
  57.4292755  45.9032860  74.9163284  57.2182999  46.0698624  73.9976501
  58.1421013  45.2651482  74.8864746  85.4471130  53.3666077  54.3106575
  85.0289307  52.8262024  54.9809685  85.5030365  52.7964287  53.5438461
  25.4763165  11.8782206  36.7107620  25.3599339  12.2946386  37.5647430
  25.0838757  12.4917622  36.0896454  23.6981125   1.5130309  72.8756943
  24.0711689   1.6809317  72.0103226  24.1476707   2.1292384  73.4539871
  33.9875450  47.6142883  83.1145477  33.7615776  47.0287476  83.8372574
  33.3045921  47.4629440  82.4611664  77.5495529  45.8437614  33.1937904
  77.9085312  44.9655571  33.3207970  77.7145538  46.2922134  34.0231857
   1.7950512  10.0681515  82.9263382   1.0600009   9.5581341  83.2666550
   1.6833842  10.9366217  83.3130188  40.9396477  65.6449738  85.0429153
  40.9343414  65.1613388  85.8689346  41.8605156  65.8628769  84.8988647
  36.8860016  58.3979797  42.1981621  36.3890343  58.1981583  41.4048615
  37.3872261  59.1824875  41.9755554  39.5424538   5.1305623  82.1758041
  40.4140854   4.8473029  82.4519424  39.5220032   6.0674033  82.3711014
  50.2096786  71.3163300  30.1104164  51.0478325  70.8541107  30.1195850
  50.2968369  71.9563675  29.4040298  50.1736908   1.2821344  60.4913254
  50.3689461   0.3851513  60.2201653  50.0991783   1.7695284  59.6708832
  13.4393759  15.4531097   4.5239401  13.0642958  15.6445494   3.6643488
  14.1373472  14.8227901   4.3457122  78.9891281  38.4096451  49.6057281
  78.0911484  38.3039284  49.2915688  78.9114990  38.4026108  50.5597496
  51.8824120  52.7739372  44.8282509  51.2679024  52.6611328  45.5534286
  51.9925995  53.7217865  44.7529221  63.7694893  35.7553787  22.5233707
  63.5671768  34.8886871  22.8757153  63.0020523  36.2859840  22.7372227
  40.9888039  57.7101669  10.0676508  40.4604568  58.2955055   9.5250092
  41.5299911  57.2276535   9.4427280  73.0856323  68.9113922  51.6883202
  72.5189362  69.5088501  52.1763077  72.8782806  69.0814972  50.7694588
  37.0235367  12.7826357   4.2652984  37.4785690  12.6392641   3.4354656
  36.1194420  12.5209494   4.0910320  51.8984337  12.3701992   7.1555343
  51.6802330  12.3466291   8.0872345  51.3396225  11.7002649   6.7616467
  59.2190552  64.7722702  39.5585136  59.4506607  64.8627090  38.6341705
  60.0222397  64.9942856  40.0295105  31.3258953  69.6195526  17.1166840
  32.0102882  69.2498703  16.5588493  30.5287342  69.5580902  16.5903873
   9.4110374  49.4953880  38.5191727   8.6135168  49.4295807  39.0443993
   9.1233339  49.3181343  37.6236076  40.1954346  47.2846489  69.2129898
  40.6832161  46.6860161  69.7786179  40.2599220  48.1335640  69.6505051
   2.5654972  45.3244171  67.2732620   2.9354308  46.0739479  67.7397156
   3.3275430  44.8413849  66.9535751   4.2301588  45.8455772  10.6880865
   4.6719189  45.3396835  10.0060663   3.8985457  45.1867256  11.2981510
  20.2283936   3.7902684  44.8776550  20.5054302   3.9967303  45.7703247
  20.0130367   2.8579617  44.9032936  16.3374043  11.7783728  74.8119125
  16.8081970  11.5878162  75.6232529  16.6813679  11.1458302  74.1811905
  15.7601871   0.0467850  84.0184784  16.6436691   0.4033905  83.9261627
  15.4158850   0.0257420  83.1255875  58.7682343  19.6423836  16.2197151
  57.8922691  19.2587337  16.1781349  59.3419075  18.9068508  16.4344673
  10.7410688  69.4045410  10.4756508  10.9205675  69.8879395  11.2820835
  10.0592356  68.7781830  10.7185841  26.3072701   2.4577930  19.5334015
  26.8710079   1.8351092  19.9924183  26.1773701   2.0703087  18.6678295
   3.3547504   7.1324654  38.3051186   3.0619309   6.8228679  39.1622314
   3.1402202   8.0653067  38.3013000  51.6623383  36.7481613   6.8867464
  51.9609184  37.4843826   7.4206562  51.0594788  36.2689819   7.4552360
  45.3490181   3.8756192  38.5427780  44.8167839   3.7697971  39.3312988
  46.0426407   3.2221162  38.6325111  60.3521576  15.4880056  79.4282227
  60.9179993  14.9906349  78.8377304  60.8246574  15.4982748  80.2606049
  16.6948624  22.6419601  75.6971512  17.1812592  22.2494907  76.4221497
  16.8588047  22.0593758  74.9555664  84.9539719  64.2795639  83.2107315
  84.8993149  65.0932846  83.7118378  84.2580109  63.7295685  83.5704193
   3.6838348  30.2469578  41.7827988   2.8686125  29.9467354  42.1846848
   3.5523291  30.1115189  40.8443985  25.3373699   7.7297206  32.8432655
  25.0672340   8.1419067  33.6638527  25.8596840   6.9749904  33.1149292
  33.0009918   0.4890750  76.2298813  33.4107018   1.3116735  76.4976578
  33.6078377  -0.1887380  76.5274353  58.4815445  46.8286324  67.0169830
  59.1531525  46.9014587  66.3388443  58.8785744  46.2742195  67.6887207
   1.9035923   4.0919719  27.0354424   2.2801955   3.7392712  27.8416691
   1.6458521   4.9854569  27.2623463  55.1326599  35.9483681  61.8358994
  54.2744713  35.9055138  61.4141083  55.6983566  35.4091110  61.2832527
  66.6912689  52.7768402  12.0435982  66.9634323  52.6878586  12.9569654
  66.0181656  52.1061935  11.9278307  49.6871147   1.5580777  11.1981754
  50.5687828   1.7489387  10.8780708  49.2082977   1.2671269  10.4220877
  49.2809181  16.9553566   5.4129324  49.9231529  17.6565590   5.3030138
  48.5441704  17.3731079   5.8589368  78.8003387  54.3265915  73.4879532
  78.6182404  53.3999367  73.3317947  78.1201019  54.7900124  72.9993362
  73.9359741  26.3064842  45.1192703  74.8826523  26.4255447  45.1958160
  73.8358841  25.4765625  44.6529617  39.7508774   7.7195692  72.3617172
  39.1556129   8.2984972  72.8378906  39.3058853   7.5487490  71.5316391
  43.9876518  12.4913683  88.6489258  44.9372826  12.4833851  88.7688065
  43.8321915  11.8819046  87.9273911  43.5415535  67.3170929   0.4936907
  43.4184952  67.2896500  -0.4551691  43.6798744  68.2435532   0.6905730
  13.8040628  45.4152336  59.7553673  12.8987999  45.7120895  59.6625900
  13.7578735  44.4661026  59.6402359  20.1740341  28.9299946  81.0690460
  20.6595135  28.1444016  80.8172836  19.2540855  28.6859455  80.9672394
  62.1778259  59.2428513  62.1272659  62.9317398  59.0416565  62.6816711
  61.5496407  58.5454178  62.3148804  57.2758026  19.6544762  59.8368835
  58.0884438  19.7421570  59.3387260  56.9881821  18.7569065  59.6699257
  73.4855804  57.8548698  32.2262688  74.2993469  57.6571236  32.6898537
  72.9239807  57.0982819  32.3948250  74.4234543  29.7713051  87.6103592
  73.9354706  30.5218163  87.9492264  73.7595291  29.0951595  87.4752274
  36.8529701  23.7671089  72.4548645  37.6477737  23.8271103  71.9248428
  36.3584213  24.5566616  72.2351837  55.9061852  55.5465050  60.2442970
  55.4345779  55.2901649  59.4517632  56.6780701  54.9805870  60.2572937
   9.6103859  55.2998810  22.8973427  10.4135914  54.8019638  22.7451115
   9.0777178  54.7311058  23.4532127  77.1317673  49.3542557  54.9493217
  78.0320587  49.6366539  54.7882080  76.5917282  50.0454369  54.5661011
   3.0779293  34.8464737  73.1157150   3.5584660  34.7845535  72.2901917
   2.1694422  34.6603546  72.8785553  34.5443039   3.0385928  57.6763763
  34.8833084   2.3487649  58.2468529  35.0605583   2.9611394  56.8740578
  44.3332672  58.4284058  82.8726501  43.7461929  59.1518707  83.0921402
  44.0444946  57.7074318  83.4321518  78.4981537  36.0436401  53.9680710
  78.0965347  35.2644463  53.5836372  78.9829407  35.7145500  54.7249832
  73.3623734  54.4178772   6.5492291  73.1789856  54.2522697   7.4739861
  74.3090134  54.3015289   6.4682026  63.2649803   9.5406523  71.0926819
  62.4630775   9.7144518  71.5856094  63.9685631   9.6569672  71.7311783
  75.2695770  25.1850929  76.5486832  75.6562500  25.2290154  75.6741638
  75.9290085  24.7389164  77.0800018  78.5907364  64.0369186  87.9216080
  78.8600769  63.7072716  88.7789383  77.7317200  63.6419411  87.7721939
  19.6236744  29.5661697  57.9409904  19.8356647  30.4232693  58.3106842
  19.7885437  29.6624794  57.0030289  69.9195099  68.7116547  53.4312859
  70.3646622  67.8657150  53.3816109  69.6897812  68.9150238  52.5245895
  46.6396675  59.9363747  84.9396210  47.5923767  60.0133247  84.9911499
  46.4722328  58.9953537  84.9913254  83.5262680  58.1956787   0.6517941
  82.6235886  58.3228989   0.9437097  83.6067276  57.2500191   0.5273547
  67.2093277  60.0493507  41.7184639  67.2693176  60.7844849  42.3285561
  67.2148056  60.4561157  40.8520126  11.5587521  45.2793465  50.6929245
  11.9054747  44.4073906  50.8818817  11.6394958  45.3685989  49.7433243
  70.0587616  52.3072853  28.3484802  70.0811081  51.4197121  28.7061729
  69.2535782  52.3370705  27.8317394  81.1232529  33.7988777  58.9031906
  81.3684616  34.4382324  58.2343636  80.4887009  34.2586861  59.4528770
  14.3599567  60.8219185  61.7722931  13.6015301  60.8435135  61.1887245
  15.0565004  60.4301910  61.2454071   9.9198704  41.2265167  57.9183159
  10.0886421  40.9518509  57.0170364  10.4446621  42.0192909  58.0293617
  15.5852633  51.5116386  13.4960661  16.4304676  51.2996368  13.8921928
  15.5813007  52.4670105  13.4370651  79.4148026  57.9685783  13.4548788
  79.7608795  57.9339409  14.3466539  78.4645996  57.9342384  13.5652132
  43.5613823   2.2157381   9.6494179  44.3573952   1.9244597  10.0941162
  43.7155724   2.0148873   8.7263165  67.2419434  17.4411507  68.2097397
  66.5673447  17.4448147  67.5306702  67.8586502  18.1210461  67.9383621
  33.6201820  41.1469498   8.3021784  33.1183205  41.1668434   7.4873338
  34.5317574  41.0709572   8.0202398  43.4354973  48.0981369  88.9502716
  43.6874733  47.6324921  89.7477112  43.2507133  47.4050484  88.3164597
  62.3086090  47.7562256  31.1382999  61.5655403  47.5157738  31.6917076
  62.6513672  48.5582123  31.5327148  21.8981628  49.0046616  70.2926407
  21.0453453  48.6230621  70.5007706  22.2700901  48.4160156  69.6358337
  65.2246017  23.8351440  32.3518181  65.4651184  24.6070023  32.8642845
  64.2788391  23.9151134  32.2278748   4.2987623  38.2322693   2.1796141
   3.9757073  37.6302605   1.5092012   3.5994771  38.2611618   2.8326046
  74.1442032  36.4752922  57.8730774  73.3528442  36.9870567  58.0406303
  74.7867966  36.8175125  58.4945183  75.4181671  63.7779350   7.1304045
  75.2335815  62.8391266   7.1021333  76.1231995  63.8641968   7.7720623
   3.7234201  38.6282845  42.5660515   3.8083940  38.0290413  41.8244896
   3.6923432  38.0569000  43.3333740  24.5558987  43.1037750  85.1106796
  23.6193504  43.1025848  85.3084412  24.8867626  43.9016914  85.5231018
  64.2550125  54.0014229  18.2777786  63.7562790  54.2785606  19.0463448
  65.1413879  53.8541641  18.6077614  53.3075638  69.5708389  48.6070290
  52.8248253  69.4152527  49.4188080  53.4836121  68.6956787  48.2615738
  62.6389999  11.2513294   3.8198655  62.6278572  11.2178135   4.7764134
  63.4185448  10.7543068   3.5718555  51.5440254  53.2028122  34.1480522
  50.9211884  52.5146942  34.3821564  50.9974747  53.9264641  33.8417206
  53.9151649  14.2602272  12.7460670  53.8633156  14.0582638  11.8118534
  53.0362129  14.0795937  13.0793037  57.3325615  33.4978561  57.1193504
  57.5657768  33.6018906  56.1968460  57.0091972  32.5993080  57.1847878
  24.8841343  68.8897858  10.1547384  24.5595379  68.4566650   9.3652601
  25.7685413  68.5428772  10.2718267  76.8503571   4.2778306  42.6818275
  77.0720978   3.3758771  42.9132233  77.5881805   4.7959127  43.0034485
  76.7446289  70.0106735  73.6061325  76.0991364  69.4784088  73.1410904
  77.2641602  70.4172897  72.9126053  28.8310757   2.6702278  45.0827484
  28.4139690   3.4551654  44.7276039  29.1938419   2.9510286  45.9228592
   4.2309232  69.8264236  87.7686005   5.0514479  70.0180588  88.2227402
   4.4941907  69.3133011  87.0046387  24.2896671   9.3090696  41.7683525
  24.5243187   9.7285118  40.9405594  23.7621479   8.5524693  41.5124016
   2.3371902  28.5780983  18.4083710   2.9218321  28.5498772  19.1657543
   1.6955645  29.2542057  18.6261482  16.7920055  25.1788521   7.1287589
  17.1312714  26.0532646   6.9376173  15.9834747  25.1191330   6.6198950
   2.7609897   3.2012026  83.1870117   2.9699490   4.1304193  83.0914917
   2.1251137   3.0261583  82.4932861  21.5053730  24.9571457   5.9887261
  22.0171738  25.7559566   6.1159716  22.0925732  24.2509613   6.2584119
  18.7318897  48.9168320  62.1744232  19.6852627  48.9470863  62.2543983
  18.5716991  48.8796234  61.2314568   4.1550364  30.6929436  69.1068878
   4.4268880  31.4262180  68.5549469   4.4621797  30.9258995  69.9830322
  78.0894318  64.2441864  82.2508545  78.3673782  64.3012466  81.3366699
  78.0030670  63.3054390  82.4167786  78.9913406  47.4932671  38.7961769
  79.6817245  47.8208237  38.2197227  78.8354492  48.2081032  39.4133759
  21.9566078  28.0469437  27.6227551  21.9484558  27.1387424  27.3205376
  22.6566906  28.4610195  27.1181202   3.2543828  58.9034958  22.4048767
   2.5729764  58.6211967  21.7947750   4.0566044  58.9077263  21.8827133
  11.0395880  39.1210213  16.7734947  11.3189430  38.3146553  16.3399429
  10.7424183  38.8375168  17.6381035  83.5453796  54.5381851  30.0608883
  84.1690369  54.7468071  29.3653545  83.8059387  55.0982246  30.7921181
  22.1348286   1.1928558  46.2818298  21.2621155   0.9717844  45.9566650
  22.5368519   1.6903130  45.5696869  22.7392044  65.3891983  66.4747314
  22.7575150  65.3067093  65.5212708  23.1302204  66.2454147  66.6486130
   8.3759785   0.8253149  19.0610714   9.1073761   1.2263077  19.5306396
   8.2209358   1.4074403  18.3172131  26.2329922  27.8277702  17.5147953
  26.9580956  28.0566921  16.9333744  26.6504364  27.3936882  18.2588005
  13.8327980   2.1674063   6.2397337  13.7836494   1.9057064   5.3203154
  13.1496181   2.8307900   6.3367844   1.9419401  49.0361862  41.4110489
   2.1053097  48.6942368  42.2900314   1.9140582  48.2589607  40.8530426
  62.4158554  34.0042000  62.7191544  63.2456055  34.0114784  63.1963310
  62.4453850  33.2008133  62.1996117  83.3751678  23.0963783  23.3751965
  82.5745621  23.5288677  23.0781784  83.9278564  23.0534897  22.5948601
  81.2415619  13.7634325  65.8430176  80.5027084  13.2909098  66.2264862
  81.6829834  14.1655254  66.5911484   6.6674681  51.9575768  74.3235397
   7.3585296  51.9325256  74.9853897   7.1301036  52.1120872  73.4999390
  71.9890060  69.6116333  35.5992050  72.6379395  68.9195557  35.4721489
  71.8986206  70.0165176  34.7365723  68.1720200  65.3765182  37.4203987
  67.2887955  65.4496994  37.7820511  68.0767975  65.6307220  36.5024948
  67.0717392  55.5218620  34.1650276  66.7236481  55.6880951  35.0410576
  67.2123489  54.5754089  34.1387901  32.4267349  13.2152252  51.3749504
  31.5731869  12.7878962  51.3036919  32.2218895  14.1246243  51.5923500
  35.1782188   3.3601909  44.7021484  34.8857193   2.4545553  44.5996742
  35.9040298   3.4488180  44.0844307  79.1676483   3.4852617  17.6781998
  79.4742966   3.8844535  18.4923515  79.1175537   2.5496843  17.8742027
  73.5951385  12.0651064  53.8997078  72.7252808  11.7084246  54.0796127
  73.5252686  12.4341774  53.0192871  33.8314362  10.1161146  72.6473541
  33.5050774  10.1358871  73.5469818  34.7802238  10.2078018  72.7346878
  48.2410393  56.9888344  80.8728180  49.1307755  57.2890320  80.6871262
  48.3588448  56.2268715  81.4400635  78.7567215  58.4563293  77.8256454
  78.1523361  58.0855255  78.4686508  79.1080475  57.6966400  77.3612366
  15.9578056  66.6410065  54.2285194  16.8987694  66.6796188  54.0572624
  15.7586441  67.4717789  54.6602440  48.6720085  33.4205170  55.7902641
  48.4074211  33.1969757  54.8979340  48.6724701  34.3775673  55.8072968
  76.1043015  29.4268475  76.0629654  75.5530548  29.1359787  75.3365021
  75.6480713  29.1213779  76.8470459  51.2954369  20.9355183  54.7483978
  52.2352257  20.8762150  54.5766068  51.2331963  21.4044075  55.5805626
  40.5131798  21.6362286   0.4798022  41.3881149  21.3682327   0.7606949
  40.6377907  21.9656315  -0.4102527   4.1220846  26.0209961  47.9714470
   4.1181793  26.4759064  47.1292648   3.6836100  26.6242123  48.5715332
  79.5524139  55.2910461  38.6571846  79.4702301  56.2430992  38.6017532
  80.4845657  55.1398048  38.8135452  76.1752472  13.7992611  33.9480057
  75.6181870  14.5658789  33.8130608  76.4578934  13.8661385  34.8600769
  23.2930813  27.1121788  83.5540848  22.4113846  26.7569771  83.6666641
  23.1529694  28.0182915  83.2792053  63.8116226  16.4318695  58.5937004
  63.8482399  15.6128969  59.0878448  64.6025391  16.4219131  58.0546379
   1.2434741  25.8973331  17.2433147   1.4594238  26.6321754  17.8174267
   0.9327961  25.2132721  17.8364182  54.6233368  20.7790203  23.7656422
  54.2915573  21.0346184  22.9049320  54.1681442  19.9607964  23.9644890
  63.1816826  70.1905823  52.1299629  63.1464500  69.2343750  52.1557159
  63.7229691  70.4306564  52.8820305  76.0989990  63.3116264  35.1479721
  76.5414276  62.5035934  35.4079170  75.9464493  63.2096062  34.2085304
  68.4302292  13.7183123  74.5228653  69.2690811  13.8953762  74.9485397
  68.1467590  14.5693922  74.1888885  40.1747932  59.7631607  64.2231979
  39.6674309  59.7599945  65.0348740  39.6121597  59.3211823  63.5873299
  62.2468109  58.9909592  77.7383270  61.6113853  59.4835243  77.2188568
  62.7384033  59.6608467  78.2135239  21.5300941  69.2488632  12.6262712
  21.6442642  69.4390564  11.6951313  21.2877522  70.0895691  13.0144949
  16.5311718  57.7492790  11.4406185  16.0320854  57.0506592  11.0174456
  17.3575916  57.7790489  10.9585657  23.4511166   6.2852187  54.9133034
  23.3113651   5.3565845  55.0986137  24.3517094   6.3325467  54.5924873
  60.4416695  31.2199039  47.4121971  59.6243935  30.7645435  47.2098656
  60.5634155  31.0871544  48.3522949  38.6111259  41.6806068   1.7850845
  39.3350983  41.1796570   2.1607833  38.1621475  42.0570679   2.5420041
   4.6458540  45.5921021  75.3336563   5.0485144  45.6732521  76.1982498
   3.7693479  45.9611778  75.4420624  40.0855217  68.3869476  44.2535553
  40.9323273  68.5822144  43.8522835  39.5661201  68.0080414  43.5444107
  68.6617126  32.1616402  29.9020691  68.4158630  33.0265236  29.5737858
  69.4693756  32.3125343  30.3931217  83.1639938  69.6103592   9.3881025
  83.8002701  68.8966064   9.3440008  82.5479507  69.3403091  10.0691271
  66.7099915  32.3725510  23.6440907  67.0463104  32.9928627  24.2908783
  67.3893967  32.3366585  22.9707756  42.6718445  66.7763062  17.7306156
  43.3474312  66.2528000  17.2996235  42.2735405  67.2829132  17.0228481
  14.4937763  40.9816437   5.6519666  14.5040979  40.8115234   6.5938711
  15.1977243  41.6156998   5.5153708  45.7490959   7.7474847  74.2875977
  46.0517998   7.9085765  73.3939285  44.9027519   7.3136678  74.1792679
   8.3210621  17.1429005  55.0487022   7.7239513  17.8528767  55.2845535
   8.6213646  16.7937870  55.8878479   4.8322854  26.1051197  80.7396851
   4.0889630  26.7038040  80.6670151   4.5351381  25.3014507  80.3130112
  59.8051605   0.7632945  61.5470581  60.6698875   0.4450074  61.2878876
  59.8750572   1.7164780  61.4942627  63.8965988  13.4060717  40.5182724
  64.7758026  13.7820797  40.4752579  63.3676720  14.0816555  40.9426041
  22.2978916  18.9820004   2.5506325  21.5164795  18.4939194   2.2910070
  22.0933857  19.8924904   2.3375223  56.4855576  14.0195503   0.8406423
  56.8134804  14.7912397   0.3789135  56.5872345  13.3038454   0.2132201
  25.3922462  45.2898483  86.5440750  25.2343407  45.1545906  87.4784164
  24.7951241  45.9970894  86.3001709  66.1881943  54.7629433  48.5900383
  65.4610901  55.3581390  48.4075623  66.2086868  54.1720123  47.8373032
  14.3118944  46.9129105  78.7514725  14.3677778  47.8640976  78.6600647
  14.0984907  46.5999489  77.8724136  48.0114136  58.1717949  50.4962769
  48.6452713  58.8552284  50.2786179  47.5214882  58.5269356  51.2379494
  28.2032452  59.2488098  58.4003716  28.8078060  59.6745529  59.0082207
  27.3947163  59.1427612  58.9016342  53.1526337  64.6040726   4.2133970
  52.9021721  65.4910736   4.4717274  54.1097450  64.6131592   4.2226834
  43.8465996  40.8237915  11.4357481  43.9674034  40.0987434  12.0488911
  44.2432823  41.5766716  11.8739738  83.6102295  58.1610985  41.8967590
  83.5746841  58.6935730  41.1021271  82.7649841  57.7126236  41.9225578
  15.8849373  63.7910690   4.8955121  15.0552073  64.0606155   4.5016541
  16.4539547  63.6019058   4.1494093  35.2430115  67.6345139  58.2812157
  35.9103279  67.2182693  58.8268013  35.5707321  68.5223083  58.1374931
  38.8799171  49.6248207  62.3368797  38.8157005  48.6782265  62.4636345
  39.5312424  49.9087219  62.9782867  71.2212906  64.4602127  28.7716637
  70.8001862  64.0742493  28.0035877  72.0015717  63.9238167  28.9119034
  22.9133320  10.8614054  83.1044006  23.5926399  11.4652452  82.8041534
  22.8356838  10.2185621  82.3994522  66.4341583  35.0051270  17.4965954
  67.0457230  35.6524620  17.1456375  66.0997925  35.4027252  18.3005543
  56.2512627  60.4935570   5.2426457  56.9036407  60.0099525   5.7493591
  55.5736504  59.8468857   5.0454278  77.8480225  32.9709702  80.5943375
  77.8601532  32.1081467  81.0086060  76.9491806  33.2793007  80.7094269
   5.1756434  70.4865494  66.2795868   5.7590613  70.9716110  65.6959991
   5.7312131  70.2321091  67.0163574  78.6533356  61.3049545  65.7020874
  77.8749237  61.8347855  65.5300903  78.6086884  61.1105766  66.6382828
  20.5739460  12.2589149  31.3669529  20.9126549  13.1307383  31.5704975
  21.1186657  11.9537039  30.6414471   0.5568907  71.0367279  40.5013924
   1.2534227  70.3840332  40.4301910   0.5054993  71.4282608  39.6294441
  42.8207626   5.0826097  16.1773052  41.9704170   5.5201373  16.2187424
  42.7059708   4.3979306  15.5183144  63.6811256   0.1961596  58.2530441
  64.5496750   0.5935136  58.1900291  63.8462448  -0.7462581  58.2244530
  58.4232597   6.5336652  72.7509537  59.3467674   6.4571738  72.5111389
  58.4358902   6.8221092  73.6635742  38.1022911  20.4068165  12.2466431
  37.8369865  20.6094360  11.3495417  39.0119591  20.1194286  12.1682692
   3.3239844  15.4861364  67.7924271   2.7808266  14.7811356  68.1448212
   3.4229367  15.2714510  66.8648758  29.5131321  70.5892792  38.4229050
  29.3736305  70.2448730  39.3050385  30.4238873  70.8838272  38.4220390
  15.1333733  47.4837914  75.9023972  15.9972191  47.7567291  75.5933456
  14.5342302  47.7507362  75.2052536  41.8517227  53.2997208  13.3768387
  42.2308807  52.4764290  13.6845074  40.9063110  53.1520157  13.4015217
  21.6655827  46.4143372  84.9008942  22.3148003  46.9378357  85.3706741
  21.6559010  45.5752106  85.3613358  29.3010254  64.4473038  87.0426712
  28.6916561  63.8922157  87.5292740  28.8680878  64.5991669  86.2025909
  56.5854454  25.0813160  55.9715042  57.4535904  25.0752335  55.5683670
  56.7057571  24.6283588  56.8061218  64.2489243  40.2260628  21.1818275
  64.7094193  40.1855087  20.3436565  64.9435730  40.1838608  21.8390350
   3.3308544  26.4863720  75.0299988   2.4184277  26.6333866  75.2791901
   3.6788893  27.3630543  74.8671112  86.0987091  21.7885075  36.6773491
  85.9514084  21.4078560  35.8115311  86.4455948  22.6625996  36.4988365
  57.6866379  54.6650200  41.8823967  57.2693710  54.1816711  42.5954857
  57.0534973  55.3446159  41.6510582   7.5294147  15.7240753  11.1681213
   6.8142090  15.1930914  10.8177357   7.3556523  16.6063595  10.8400764
  47.1879845  53.4124146  17.9950390  46.3049812  53.1767578  17.7104378
  47.7365456  53.2588310  17.2258015  15.2642841   8.0641661  39.2825470
  15.4123869   8.4351158  38.4126625  14.4054193   7.6459999  39.2215500
  37.9996834  38.8771706  79.9408035  38.2896538  39.6518784  79.4591675
  37.7761841  38.2419586  79.2605209  59.9366722  46.5607376  81.8244858
  60.1946182  45.9230537  81.1588593  59.0136871  46.7371368  81.6422348
  67.9049149  64.1662064  70.9676361  67.9051361  64.9459457  71.5228195
  67.4704742  64.4459915  70.1618958  42.4970055  18.5291729  85.1925812
  42.4497337  18.3553886  84.2524719  41.6557045  18.9338627  85.4039383
  22.8930531  55.3933525   8.3854342  23.2845268  56.1675415   7.9809418
  22.2695026  55.0722046   7.7340655  24.9172821  52.1385918   5.0384130
  25.4999161  52.8877678   5.1629081  25.5041771  51.3838463   4.9920788
  30.5451069  50.2116699  30.0374050  29.8755112  50.8844681  30.1607609
  30.4561214  49.9504013  29.1208611   4.0062151  47.5803185  21.8871307
   4.7079997  46.9920425  21.6084499   3.5036185  47.0697479  22.5219116
  47.7488251  61.6320992  10.3730230  47.2492065  62.4057198  10.1120195
  47.4695740  60.9495354   9.7628126  53.7865143  70.4374695  71.8855820
  53.5067940  70.4257660  72.8009262  54.4614792  71.1152496  71.8500443
   5.2712393  46.3311882  34.8028831   5.9200959  46.6492043  35.4306450
   5.0590630  45.4478645  35.1044655   0.5482270  46.7878075  28.4880466
   0.6453300  47.7357025  28.5791225   0.4674726  46.6448250  27.5450363
  38.8311310   7.7057767  13.5177746  39.1293831   6.8598585  13.1835585
  39.6332932   8.1531353  13.7872906  44.4680519  66.9706192  67.8915024
  45.0829124  66.2381744  67.8502197  43.9607811  66.8129120  68.6877670
   0.0022693  15.9408541  87.3209686   0.2126748  16.2032223  88.2171402
   0.6988449  15.3299837  87.0804443   5.3043094  58.0688057  20.7341022
   5.0404711  58.1052208  19.8147030   5.4671931  57.1402588  20.8999405
   8.3425512  19.7435112  58.0621834   7.9610147  19.7426834  58.9400558
   8.7035160  18.8632336  57.9570808  47.8997345  20.7403088  57.3744659
  48.6204987  20.8617439  57.9925117  47.9012642  21.5377712  56.8450470
  69.0337219  51.0623398  33.7287025  69.3281097  50.7574806  32.8704338
  69.0780487  50.2859459  34.2868042   2.1869464  34.5544777  65.8442230
   1.3937061  35.0597534  66.0222626   2.0208464  34.1379662  64.9985504
  39.1449852  58.7621918  66.7822723  39.9381218  58.5050240  67.2524109
  38.8505135  57.9593277  66.3522415  12.5065613  70.1792908  47.2652512
  12.7189093  71.1106491  47.2043571  12.5879021  69.9755020  48.1969643
  75.4679565  17.5808735  61.8977432  76.2780685  17.0714684  61.8764267
  74.7716217  16.9249115  61.8651123  65.0649414  37.7414513  49.4995041
  64.5699539  36.9305878  49.6166458  65.4262695  37.6759148  48.6155472
  85.9676208  56.3264313  35.5790291  85.4670715  56.8417740  36.2115669
  85.7766113  55.4165421  35.8067284  33.6405716  64.7864990  75.8737106
  33.4027481  63.9541321  76.2821808  34.5506020  64.6683273  75.6014786
  73.5820770  53.5725288  81.3435974  72.6851044  53.2436142  81.2846222
  73.5652237  54.4013329  80.8650208  40.2071457  71.3398361   6.1015878
  39.3804436  70.8575363   6.0877118  40.6672478  71.0491791   5.3141508
  10.9382515  59.0106621  26.0241394  11.2725229  59.9072914  26.0475140
  10.6011753  58.9038200  25.1346474  71.2151566  44.6084633  66.8533401
  70.9991379  45.4485970  66.4486847  70.7663345  43.9592934  66.3116989
  11.1047745  10.5765591  59.7036209  11.7462978  11.2829227  59.6279144
  11.6252594   9.7744865  59.6588249  24.7839642  65.4653320  58.8577156
  24.2384777  65.3704300  59.6385307  24.9952908  66.3983383  58.8251305
  18.3295727  17.5244980   4.8976040  17.7164536  16.9636974   5.3728094
  18.2160053  18.3900909   5.2901387   5.4493775  62.9265213  53.2844620
   4.7694225  62.6095276  53.8789406   5.1422706  62.6750298  52.4134445
  78.4040527   9.5349855  64.2537689  78.4435196  10.3969870  64.6680527
  78.1774750   8.9370594  64.9660797  15.5846090  70.9973755  75.2285614
  16.0253735  70.7763443  74.4081345  16.2463093  71.4660339  75.7372360
  32.8649025  28.0751877  20.1387119  33.4005966  28.7019424  20.6249619
  32.6664391  27.3866577  20.7733536  52.2611237  41.2760201  13.5380583
  52.3990211  41.8113594  14.3194847  52.9150772  41.5905075  12.9138203
  53.4419174  46.2570877  61.7554245  53.2596626  45.5831490  62.4102707
  52.6263008  46.3373070  61.2608871  52.7718582  61.3870163  78.9143448
  52.2751694  60.7646141  78.3831711  52.1892281  61.5975914  79.6440201
  61.4624863  39.3744125  37.2080193  61.3157692  39.0237427  36.3295364
  61.3428040  38.6230850  37.7888947  16.9898815  42.4377251  14.2904243
  17.7867737  42.7908058  13.8947906  16.5584583  41.9647446  13.5788097
   6.9032884  62.2109642  47.9495392   6.8226013  61.3190422  48.2874641
   6.6705823  62.1383553  47.0238991  80.1831970  71.6818161  22.6123581
  79.9368515  70.9275970  22.0769176  79.3494339  72.0557098  22.8974533
  25.8981934  24.2214718  18.8119678  26.1939678  25.0944958  19.0699940
  25.7102318  23.7780590  19.6391869  61.7392769  37.4914513  12.8640518
  62.4348488  37.1998062  12.2746840  62.1384964  38.1946983  13.3762074
   6.7441468  66.2986145  50.8937569   7.0522194  67.1335983  50.5414467
   6.1216202  66.5427170  51.5786667  70.5684967  49.1085243  77.8237915
  69.6492920  48.9555817  77.6049271  70.6542435  48.8009415  78.7261581
  25.3581924  57.7810059  26.0210972  24.5648746  58.3142204  26.0716972
  25.8615494  58.1679230  25.3047447   7.7472229  10.0629120  81.9513321
   7.4149814  10.7864914  81.4200363   8.5133934  10.4248018  82.3965912
   7.2705474  17.3628464  37.5673523   6.8738561  17.9720898  38.1899986
   6.5480199  16.7996254  37.2899208  41.5294914   8.4011850  44.2660370
  41.4632454   9.1226892  44.8915558  42.0996284   7.7634358  44.6955147
  63.7455978  70.5986633  84.5715714  63.1093254  71.2957306  84.4119339
  63.4362831  70.1702042  85.3696823  38.4444733  18.4510593  79.2910385
  37.8134270  17.7448769  79.4300308  38.2419968  18.7846088  78.4169769
  31.2256298   4.1063995  25.5285530  31.6327324   3.3657227  25.9778824
  30.3645248   3.7824063  25.2644329  74.1818848  59.8170242  57.1346931
  74.6772156  59.2724953  56.5228424  74.1153564  60.6668358  56.6992264
  80.6402664  22.1521416  12.0737686  80.8454895  22.3514271  11.1603136
  81.4430771  22.3620548  12.5509109  69.6286316  37.7454720  10.8481312
  69.1822968  38.1099014  10.0837927  69.9890518  38.5078087  11.3010883
  29.1665516  53.1517906  30.8674908  30.0027065  53.3128929  31.3046684
  29.3757668  53.1766624  29.9337654  77.7340927  15.7605133  48.8075027
  77.6901855  14.8707180  49.1576004  76.9467010  15.8454952  48.2698860
  64.5009842  29.7805080  82.1899948  64.1828537  29.3074760  82.9589386
  64.9165726  29.1081295  81.6501541  80.7210999  28.0592804  18.7462883
  80.5057602  27.6044197  17.9320641  79.9193192  28.5279465  18.9780903
  34.5279694   6.6646872  50.0948257  33.9981461   7.3398900  49.6710129
  35.1676636   6.4097805  49.4299622  12.6790018   9.0832176  77.7434387
  13.1533957   8.2535820  77.7971725  12.7857685   9.3616972  76.8338928
  79.9745483  32.4613037  26.7702351  80.1288376  32.1781158  27.6714725
  80.8486404  32.6342163  26.4205418  33.7050858  58.0138016  87.8356476
  34.0255013  57.7568398  86.9710464  33.0991821  58.7342262  87.6621552
  78.9781342   0.1792964   1.6862767  78.1196823   0.5452309   1.4732239
  78.9497375  -0.7137414   1.3428978  27.3832340  10.8503418  62.7685814
  26.5738220  11.1524982  62.3565292  27.7763233  11.6429205  63.1339989
  71.0653610  67.7983017  70.6811447  70.6371841  68.6394348  70.5217743
  70.3451691  67.1708145  70.7428589  70.2404556  46.9046936  58.3877258
  70.5592041  46.6448174  59.2520714  70.4624176  46.1674767  57.8189774
  39.0368767  14.9916172  18.3281250  39.0255394  15.9069986  18.0485172
  38.3542061  14.5726309  17.8040600  83.8074265  67.1247177   7.3731847
  83.2096558  66.4394226   7.0744033  84.1799545  67.4851532   6.5684838
   6.5727825  24.5027771  35.0165710   7.1643839  23.7559967  35.1090775
   6.9964614  25.0650845  34.3680801  30.5114708  63.7043457  57.0497131
  30.0328999  63.4944725  56.2477417  29.8286324  63.8799896  57.6970978
  73.0457840   4.8069715  64.5265198  73.8749084   5.2660842  64.6606827
  73.0535507   4.1038165  65.1759338  28.9983120   5.6697083   3.0102017
  29.4041595   5.6633778   2.1433218  29.5309086   6.2805557   3.5195525
  34.5556526  21.5116444  78.8945007  33.9632034  22.1775856  78.5455627
  34.9134140  21.9031811  79.6913300  57.9578285  12.1788626   5.1129265
  58.0737228  12.9542751   5.6620498  57.1354752  12.3349361   4.6485906
  30.9471169  26.3141651  16.8443260  31.8622169  26.5873699  16.7796307
  30.4958172  26.8280659  16.1746502   3.5477953  52.4835930  40.6573029
   4.3248839  52.2540855  41.1669044   3.7167735  53.3745842  40.3510170
  78.7505798  22.6784992  80.1031418  79.0671082  23.3852367  80.6657791
  78.6425018  21.9326744  80.6933060  52.7736702   1.6927444  46.8321953
  53.0439987   2.5914078  47.0207672  52.5975876   1.6880226  45.8913422
  86.9906387  64.5136108  54.3839684  86.1722031  64.0174561  54.3991699
  86.7392807  65.3805542  54.0654411  81.8738708   7.7964587  42.4491005
  82.2136002   7.5737538  41.5823746  82.3570709   7.2282543  43.0490150
  73.8891449  15.8917303  85.3023224  74.4377060  16.5775223  84.9215317
  73.2503662  16.3645973  85.8357925  35.7871590  54.7882042  57.1859322
  35.5718727  54.7728996  56.2533798  36.7049332  54.5190430  57.2243195
  79.3280411  24.8163471  56.3019257  79.3783798  23.8721409  56.1530113
  78.6840210  25.1253109  55.6647263  12.1884928  49.2831116  47.8636436
  12.8828363  48.7302780  48.2221031  11.5183754  48.6658440  47.5701218
  21.5949345  46.1811867  89.0941391  20.9034386  46.7695961  89.3971939
  21.3795547  46.0107079  88.1772003  10.6522884  60.0604897  33.4817390
  11.5461254  60.3886604  33.3838043  10.7371864  59.3037224  34.0616760
   9.1538696  25.9987984  58.1062813   8.3463602  26.4584637  58.3362122
   9.8535414  26.5827484  58.3990211  11.0237980  71.4150696   7.0618210
  11.4484930  70.7549896   7.6096897  11.3803205  71.2650604   6.1862535
  14.9341745  52.3046722  48.4982262  14.2091007  51.6823463  48.5549088
  14.5535984  53.1409264  48.7666893  80.1190643  67.5430069  33.7465591
  79.3338318  67.7843323  33.2552185  80.3993835  66.7142868  33.3581352
  30.5887585  11.2355518  36.1116295  31.3482742  11.4907455  35.5879440
  29.8374519  11.5746002  35.6249886  78.2973404  50.9031639  37.4902115
  78.2636948  50.4962921  36.6244431  77.9883957  50.2217560  38.0872574
  58.5195923   1.8386722  83.3133087  58.9134827   1.8402967  84.1857071
  59.1234741   1.3230387  82.7788162  47.0352898  60.3405762  37.9510117
  47.4718170  59.4922981  37.8729210  46.5965157  60.3067932  38.8010521
  42.4464722   0.5489683  50.0162773  41.9470100   0.3946136  49.2144394
  41.9662666   1.2431308  50.4676895  11.3941994   3.9213328  54.8543358
  12.1759748   4.4318933  54.6436539  10.9049492   4.4732203  55.4644890
  27.9825230  33.5816689  84.1770477  27.9314022  32.8182449  84.7522049
  27.0904350  33.9282074  84.1591187  60.0664520  71.7495270   0.9487308
  59.2863998  72.2048721   0.6318584  59.7275658  70.9629898   1.3762226
  56.1757736  60.1298103   8.5652866  55.5294189  59.4624939   8.7958183
  55.6539803  60.8911476   8.3116512  75.2781067  30.2820225  41.3934669
  76.1399460  29.8793945  41.2869186  74.7104950  29.5629826  41.6709976
  69.6961975   9.0354662   9.4382219  70.6506805   9.0696745   9.3748798
  69.4824142   8.1081343   9.3353519  84.4690933  31.7688541   1.6010573
  84.5336456  31.4682026   0.6945948  85.3675156  31.7341022   1.9294767
  42.3839188  34.0738182  25.5214367  42.9583626  33.3863182  25.1844082
  42.0070000  34.4759865  24.7388611  59.5906067   8.0587950  65.8673096
  58.9626007   8.1463919  65.1502533  60.4143410   7.8286896  65.4374924
  82.3625336  21.7862740  70.3226166  82.7061844  22.2395458  71.0924759
  81.9371338  21.0045414  70.6749802  33.2965927  52.7461052   7.4579358
  32.9007988  52.0275269   6.9647617  32.5685654  53.3395653   7.6423769
  43.1484184  58.3413696  22.8767567  42.7283516  57.9251709  23.6294556
  42.5442543  58.1881752  22.1502914   5.9382820  10.8409014  78.0741272
   6.2027888  10.0276499  78.5041122   4.9954095  10.7451124  77.9397812
  15.8024788   8.6314096  22.2922325  15.5959997   9.5592060  22.4053345
  16.4606819   8.6154881  21.5974331  42.0704956  71.3890839  88.7694321
  42.1481209  72.0095978  88.0447464  41.5644264  70.6612396  88.4083710
  18.6401520  56.7825317   0.2969448  19.1471100  56.0265465   0.5930984
  17.9696465  56.4114723  -0.2766102  76.8489380  40.3666000  52.9468613
  77.4371414  39.6135063  53.0025520  77.4185638  41.1253166  53.0737495
  12.7800255   7.8573070   3.8812757  12.9980059   8.7267075   4.2172208
  12.2650566   8.0274916   3.0925577  65.7657013   5.1485391  47.6281471
  66.3472595   5.5864406  47.0066528  65.8382721   5.6664448  48.4298592
  63.4715500  55.5852661  23.8617001  63.5919342  54.8307076  23.2851772
  64.2963867  56.0671234  23.8009338  72.3255157   9.2000628   9.1281977
  72.8969955   8.9733400   9.8618441  72.8741074   9.0838470   8.3524570
  12.9485369  53.3337898  71.6577759  13.7930908  53.7692833  71.5424271
  12.5492620  53.3512840  70.7880020  59.3331566  28.8063679  28.6598854
  59.6525536  29.7041016  28.5688229  59.1352692  28.5306110  27.7648811
  77.3914490  66.9582062  89.3576126  76.5750046  66.4974747  89.1642685
  78.0517654  66.5060501  88.8324738  20.3593330  55.4685936  54.9050369
  19.7735863  55.2857704  54.1703911  20.9988728  56.0877609  54.5531044
  75.7107925  39.0798149  19.4485493  76.4800720  39.3420753  18.9429169
  75.9123993  39.3446121  20.3460293   8.3698196  27.3377991   6.4846401
   8.6263371  27.5815525   7.3740301   9.1430149  26.9051113   6.1224484
  14.5192413  60.1014442   3.0817831  15.1514044  60.3538628   3.7547505
  14.0177002  60.8990784   2.9130614  33.6171799  54.4384727   1.2667578
  33.2458801  53.5598450   1.3466301  33.9819031  54.6239395   2.1320965
  80.8947296  24.1474667  32.0418396  80.5713959  25.0477886  32.0750694
  80.7142029  23.7958126  32.9136086   2.3176093  64.6834030  31.7031975
   2.3676705  65.5319748  32.1432571   2.7633526  64.0791016  32.2967987
  34.9712486  50.1941490  20.0161133  35.2956390  51.0940094  19.9806919
  35.3810081  49.8224106  20.7972260  59.1091537  23.5796642  81.0069656
  58.4904289  23.1685963  81.6106491  58.7689362  24.4655533  80.8817291
  55.4004059  60.0244827  60.8780212  56.0075226  59.3049202  60.7051811
  54.6323051  59.8234406  60.3433838  28.3568325  61.7096939   4.1232066
  28.4456902  60.8932037   4.6148167  28.7859669  62.3669891   4.6709623
  62.7197342  61.8869896  66.0415344  63.5888481  61.9475517  65.6450500
  62.8511848  62.1597862  66.9495773  39.7662048  20.8356895  72.6522903
  39.6596146  21.2447186  71.7934723  40.5848618  21.1985607  72.9904556
  78.8538742  71.4091797  87.4188766  78.4668350  70.6392059  87.0022430
  79.7650070  71.4076767  87.1255188  68.5668793  52.6030502   5.4635110
  69.4932327  52.6175117   5.2228985  68.3553619  53.5163383   5.6568942
  17.8948326  15.0055161  23.9842930  17.4120121  14.3322058  24.4636345
  17.4154987  15.8151169  24.1604099  65.4845886  45.3970871  37.5377274
  64.6799927  44.9396515  37.2935753  66.1282730  45.1123161  36.8890305
  69.7588120  14.8567581  33.4185677  69.8603973  15.3722029  34.2187080
  69.8448792  13.9479723  33.7065468  15.1219778  18.8986111  26.7545509
  15.7943573  19.2559395  26.1745052  15.2436924  17.9503860  26.7067471
   6.0670471  46.1444817  68.2791138   6.2730956  45.4395447  68.8929901
   6.8969307  46.6054268  68.1564178  83.2848053  67.6550217  80.4492722
  82.7801208  67.3473206  81.2021713  83.3233109  66.9001007  79.8620453
  67.6860657  11.3976917   4.8591537  67.0960693  11.8191547   4.2342529
  68.2015762  12.1168137   5.2243218  25.0547314  63.7697182  84.4514694
  24.3832188  64.1316757  83.8732986  24.5706158  63.2144470  85.0626450
  39.1106110  57.7897110  70.2646484  38.9659538  57.8528137  71.2087479
  38.3657303  57.2827568  69.9415665  35.4696465  56.3067131  35.6317215
  35.2008209  57.2006302  35.8435707  35.3406639  56.2356033  34.6859207
  38.1058464  60.6349831  77.7561646  37.5459442  61.3142242  77.3801651
  38.8607788  60.5947647  77.1690674  68.0178146  16.5305099  21.4776115
  67.4913483  16.8383713  22.2153721  68.4447861  17.3189564  21.1425323
  55.5921555  15.9881449  77.9436035  56.5452843  15.9263382  77.8806992
  55.4300117  16.2861233  78.8386688  86.2807236  27.5126209  80.6089859
  86.7985535  28.3107529  80.7141800  86.3352737  27.0778160  81.4599838
  20.6098843  55.6498985  17.8651066  19.8422337  55.1215591  18.0837364
  21.0396919  55.8072205  18.7057896  65.8092346  70.5260544  49.1950455
  66.2966232  71.2477417  49.5923462  66.3430634  69.7511826  49.3706589
  80.7966232  45.0690346  50.5873146  81.1516724  45.6003380  49.8746529
  80.9843292  44.1664772  50.3296547  27.6759033  51.3282051  14.5185966
  27.6341801  51.4862747  13.5754614  27.0030499  50.6669579  14.6806231
  41.4192352  67.9720230  80.2860107  41.3431892  68.8213654  79.8511963
  41.7013512  67.3733292  79.5944824   7.8661709  66.6458435  19.9396839
   7.3331594  67.0855484  19.2772713   8.0733576  67.3317566  20.5743713
   8.4699402  42.2510567   2.0643764   8.5682201  41.6218414   1.3497691
   7.5525665  42.5208969   2.0214362  78.5999832  32.9174423  11.7284946
  77.6733780  32.8994675  11.4891148  79.0419617  32.4661980  11.0092812
  56.4208603  13.4266176  28.7683983  56.1029243  12.7122908  28.2162342
  55.6317749  13.9108343  29.0115318  67.6673279  24.2032890   9.1353188
  67.7164459  23.3782730   8.6524439  67.6732101  23.9424915  10.0562868
  14.6368866  17.0518913  78.7131348  14.6086006  17.9154530  78.3011932
  14.5505543  16.4363422  77.9852066  58.6151466   0.6110958  16.1674137
  57.7847786   0.9574686  16.4941330  58.4241638   0.3376623  15.2701998
  11.2125463  30.3768406  28.5182743  11.2618580  30.7244511  27.6277866
  11.6195278  29.5123787  28.4608154  53.7286224  58.6496582  44.2478600
  53.1352272  58.8027115  44.9831772  54.2547035  57.8967628  44.5173340
  31.1561241  38.3232231  85.3924561  30.9528751  37.4051743  85.2132645
  31.4330826  38.6766319  84.5470963  67.3135529  71.0535049  37.4167976
  67.7113037  70.3639069  37.9482880  66.3734207  70.9640579  37.5729599
   7.2316947  48.7641563  29.0833511   7.6845636  49.6072350  29.1023521
   7.2500286  48.4619102  29.9913940  26.3215179  48.3621864   9.0320768
  25.9212761  48.6579132   8.2144079  25.6906090  48.6058846   9.7094231
  40.1783409  16.8804855  10.0075951  40.3886871  17.8137512   9.9759588
  40.1733513  16.6048813   9.0909433   1.7701994  20.0486374  63.7443581
   2.5904737  20.0076389  64.2359848   1.0964280  19.8145237  64.3826752
  69.7364197   6.0529170  81.2632065  70.2414322   5.3357272  80.8800201
  68.8836594   5.6660719  81.4616623  65.5574188  24.2156982  15.9961576
  64.7805710  23.8101311  16.3811913  65.4830093  25.1418705  16.2261600
   2.1678653  68.9455032  54.1422844   1.5360993  68.2672958  54.3813210
   2.9162855  68.7893677  54.7182350  26.4245739  23.8156242   2.5478714
  27.3210831  23.6505470   2.2558925  26.2410622  23.1102753   3.1683874
  29.4250183  45.8550453  23.4430370  30.3130398  45.5376511  23.6070805
  29.5423546  46.6028328  22.8571396   7.5987248  40.1544609  32.9832001
   7.2665906  40.3683128  32.1113129   7.6169987  40.9928017  33.4448090
  77.0889664  55.7058754  88.1716385  77.8996658  55.8194542  87.6755600
  76.7387772  54.8677864  87.8696213  34.1350403  56.4878769  11.5374336
  34.1122665  57.3043022  12.0365953  34.6888657  55.9049759  12.0567951
  59.1988068  68.3629150  73.8767929  58.3571739  67.9483566  74.0665894
  59.0332184  68.8961639  73.0993271  67.2911224  21.7041531  39.9163551
  66.6975479  20.9537601  39.9449120  66.7130585  22.4645672  39.8543396
  61.6781731  25.5936050  59.0127945  61.6512794  25.7149620  59.9618874
  61.3202591  24.7168827  58.8731995  24.4328976   1.8154936  84.5320587
  24.9098129   1.5090293  83.7607803  23.6547546   1.2593012  84.5691452
  66.8276367  55.8763847  75.6029739  66.1651001  56.3408318  75.0915375
  67.2172318  55.2579460  74.9849243  72.5609436   8.0152216  44.3329849
  72.6741791   8.9166994  44.0317421  72.8851929   8.0211210  45.2335739
   3.0796304  13.9657469  21.7520390   3.9219940  13.6976624  21.3849068
   2.8579290  14.7691078  21.2811985  57.2014236  19.2215919  25.0425606
  56.5167923  19.1462231  25.7072639  57.7119102  18.4168549  25.1321964
  63.9790840  49.1919861  17.7491684  63.6407738  49.7420921  17.0426540
  63.4060936  49.3781471  18.4929848  50.1019402  31.7405434  26.7091713
  51.0192146  31.6442814  26.9652500  49.9339180  32.6809616  26.7692661
  72.5781326  67.0801468  15.1967640  71.9468002  67.7893753  15.0757809
  72.8870773  66.8811340  14.3129187  36.6013985  16.9929523  24.9445534
  35.8786621  16.3757763  24.8306179  36.3129082  17.5720177  25.6500244
  40.6111755   1.3100955  22.6080399  40.8445358   1.0655323  21.7125149
  39.7628098   0.8925829  22.7569962  17.7816715  45.6583710  69.1299973
  17.8026199  44.8133926  69.5792236  17.4985657  45.4494171  68.2398224
  26.5246010   7.3588405  15.8989944  26.0260010   8.1316748  15.6337442
  27.3663158   7.4521041  15.4528446  23.3493195  14.9805803  64.1338196
  22.9618168  15.4119339  63.3722382  22.9199963  15.3898392  64.8851013
  82.0446014  30.6208210   2.2622650  81.6803360  30.6286278   3.1474113
  82.9319534  30.9646130   2.3653965  66.3790970  35.1973076  22.5854893
  65.4325485  35.3394966  22.5776424  66.5109329  34.4317055  22.0262909
  25.6978798  22.3447876  23.8105946  24.9286385  21.8554935  24.1022968
  26.2079258  22.4868793  24.6080246  68.0428009  63.5911674  84.4472122
  68.4908600  63.1838951  83.7058563  67.5818329  64.3389740  84.0670395
  11.4268169  67.5653305  21.3327560  10.4945717  67.3482895  21.3393116
  11.6893330  67.5218277  22.2522259  47.3178291   1.5127064  58.6502914
  47.2716026   0.9688212  57.8639793  48.0862236   2.0668330  58.5133972
  77.4580460  13.5913696  43.8741150  77.9592743  13.2235165  44.6019135
  77.7930984  14.4829540  43.7789993  16.6915455  35.1859703  10.6191378
  16.4843712  35.4926376  11.5018978  17.6477795  35.1493683  10.5965614
  50.5015640  17.4711666  18.2602863  51.1055107  17.1032753  18.9053707
  49.7401924  16.8916664  18.2872162  12.4865513  47.4327087  14.1034088
  12.7074633  47.9129105  13.3053875  13.2368269  47.5708809  14.6815319
  34.0697021  67.8958664  68.4096985  34.2683525  67.1486893  68.9740524
  34.9098091  68.3403625  68.2962341  37.0037537   4.3464890  39.0224190
  37.0267982   5.0176368  39.7045212  37.4239159   4.7580075  38.2672043
  18.5391388  61.1549301  64.6261902  18.7158642  60.7144356  63.7949486
  17.9174175  60.5811195  65.0738907   7.9048195   2.7986853  86.4109955
   7.9140959   1.9061501  86.0652695   6.9846311   2.9675977  86.6133652
  84.3603897  49.7241745  16.3599720  84.7332153  50.3041649  15.6960125
  84.9432220  49.8169479  17.1135807  63.7275238  66.8460846  60.2156830
  64.3917007  66.2755051  60.6023903  64.0104752  67.7316666  60.4435272
  64.9208755  38.3154755  72.0445557  64.9831390  39.0657349  72.6357040
  64.4886932  38.6611404  71.2635498  66.9443970  58.0429459  47.3225441
  67.1553345  58.8277359  46.8167343  66.0131531  57.8949776  47.1578598
  70.5215683  18.1767826  70.8348007  70.2437592  17.6087170  71.5533752
  70.9735184  17.5910511  70.2274399  17.2891369  64.2128296   2.3347704
  17.5324650  65.1283264   2.4722168  16.4446659  64.2542343   1.8860093
  66.4072647  70.7136459  85.9348755  65.5593796  71.1578522  85.9329300
  66.1931839  69.7894745  86.0625610  85.8285141  67.7622681  36.0345497
  84.8936005  67.5569763  36.0395622  86.0016022  68.0690460  35.1445160
  66.8819580  34.2494507  34.8958092  66.7381821  34.2956543  35.8410225
  66.1238937  34.6938591  34.5162315  60.2673225  24.6418839  34.8468590
  60.2529831  23.8492508  34.3104286  60.3610153  24.3221340  35.7441978
  69.3096619  34.3984833  82.7657471  68.7810211  35.1464348  82.4876556
  68.6901703  33.6700363  82.8085556   9.4322386  13.4189978   9.2264490
   9.4086008  12.8335962   9.9834023   9.0386992  12.9100580   8.5176907
  36.1928177  38.5901756   6.6090050  35.7888756  38.6027336   7.4767060
  36.9823074  38.0604439   6.7199903  80.9013596  20.6227646  33.0910492
  80.8401184  21.3804665  33.6727448  80.8491974  19.8668976  33.6760063
  35.8600082  56.6365166  28.2366772  36.1921005  55.9842796  27.6198044
  34.9346809  56.7307320  28.0105648  75.3903656  11.0014086  38.1874542
  76.0018845  11.4089403  37.5741043  75.6372452  10.0766096  38.1929092
   7.6892319  52.3034401   9.7472916   8.0108013  52.4307938   8.8547640
   8.3034277  51.6810188  10.1366348  55.3970871  58.1666107  25.7913857
  56.0605202  58.0896378  26.4770699  55.8989639  58.2774811  24.9838848
   2.7784171  44.9822922   7.5865207   2.2874315  44.1606255   7.5920835
   2.8982077  45.1959953   8.5118380  26.7138844  61.1341515  21.3160133
  27.2913761  60.5583038  20.8148804  27.2718334  61.8682747  21.5728874
  17.7046413   2.8515332  41.3624954  17.1063461   3.4893153  41.7517395
  17.1335506   2.1582844  41.0315971  63.0673676  37.1289597  56.2379951
  63.2720718  36.2035255  56.1041908  62.9229774  37.4722481  55.3562164
  25.3160877  28.0113239   4.2889619  25.7956200  27.4315033   3.6972785
  24.9675961  28.6983147   3.7207813  30.4368954  59.9219780  41.8380661
  29.7584896  59.2468262  41.8251152  29.9582863  60.7398720  41.9730377
  40.1187630  24.1018162   9.2493391  39.2868309  23.6442184   9.3706923
  39.8729210  25.0201206   9.1374998  26.0726681  58.7573547  72.6141510
  25.5959759  57.9366150  72.7381973  26.3589687  59.0033455  73.4937820
  75.9456177  23.4421520  52.6639481  76.8452682  23.1388569  52.7859421
  76.0080566  24.3967247  52.6974602  82.0321808  12.8564653  10.8639555
  82.2248688  12.8794794   9.9266338  81.4891510  12.0764627  10.9777622
   1.5153767  60.4869690  69.0263443   1.4320900  61.2593651  69.5855484
   0.6383591  60.1036301  69.0152283  15.3879700  14.5592337  12.0578308
  15.5872288  15.1571007  12.7783051  15.3047276  15.1268673  11.2916098
  59.1456757  37.8580475  83.2334137  58.6359253  37.9733238  84.0353546
  59.8954124  37.3262825  83.5005417   3.3412738  48.0591507  79.9520493
   3.7685573  48.1740150  79.1032410   3.6864150  47.2302322  80.2837143
   3.0621634  20.0421352  30.1516762   3.0743062  19.1837616  30.5750923
   2.2097454  20.0833302  29.7181816  48.4838715  41.3545189  23.4566517
  48.8029709  42.2488480  23.3358841  47.9837303  41.1692886  22.6618042
  41.1941566  52.3325462  53.2447243  42.1086349  52.1179504  53.4288635
  40.9344101  52.9099846  53.9625893  67.4777069  48.9791718  18.6423092
  67.2110291  49.8956261  18.7146111  67.7368622  48.7343369  19.5306377
  33.4200363  66.4336014  18.7498856  33.3590202  66.6960144  19.6683865
  32.9623833  65.5938492  18.7097969  61.5933456  16.6277447  61.0852432
  60.6816330  16.5451107  60.8056259  61.9709549  17.2698936  60.4841728
  14.0070276   8.6400366  53.1551208  14.1833715   8.1502552  53.9583931
  14.5736532   8.2351408  52.4984436   0.4061791  16.5177288  53.3854523
   1.3610110  16.5824184  53.4039764   0.1257321  16.8714638  54.2295227
  84.1956024  43.5947418  16.0585976  85.0781326  43.9653702  16.0567970
  83.6829758  44.1941910  15.5162764  76.0864258  65.5343170  55.5916405
  76.6522827  65.1473160  54.9236069  75.8886337  66.4101410  55.2599106
  32.6508942  68.7653427  31.6145611  33.2464943  69.2721786  32.1664696
  33.2172050  68.1401749  31.1621323   4.3052998  24.2801208  31.3628540
   4.2023211  25.2234592  31.2373848   5.2463579  24.1282444  31.2758179
  64.7575455  13.7359552  89.1871872  64.0236282  13.1602125  88.9724350
  65.2710266  13.7804613  88.3806000  75.2976151  64.9528885  76.4344635
  75.4713745  64.5915451  77.3036423  76.0155792  65.5674820  76.2826767
  83.9807892  13.6439228  83.1032181  84.9127579  13.7967939  82.9473572
  83.8127060  12.7815742  82.7232971  80.2970200  20.1051388  83.7987137
  80.1707687  20.7611027  84.4842834  80.6472321  20.5983601  83.0568771
  76.2352524   3.5221455  49.1960564  76.2856522   2.6466217  49.5796585
  76.5642319   3.4120612  48.3039322  22.2463284  61.7016449  22.4824715
  22.9750690  61.4041481  21.9378014  21.5610504  61.0479355  22.3435726
  77.5983505  53.7083244   2.3503385  77.9946594  53.3988724   1.5358392
  78.2426071  54.3153000   2.7146800  27.7855511  63.7133560  55.6726990
  27.3171864  62.9487572  56.0077477  27.3068295  63.9596252  54.8812370
  23.8220272   4.6391044  47.3989868  24.0567989   5.5639100  47.4754639
  24.3371983   4.2042317  48.0784836  31.8746338  32.0373917  85.8399734
  31.9460487  31.1183472  85.5821152  32.2898788  32.0773926  86.7014847
   0.4600907  33.3352356  55.6419449  -0.3243287  33.6297035  56.1047707
   0.8156105  32.6378555  56.1928520  43.2880249  19.6508865  25.9645691
  42.9193459  19.3741989  25.1256714  42.5308228  19.9334641  26.4774323
  42.5571098  32.2138901  81.3634262  43.2919083  31.6464062  81.1304779
  41.8615723  31.6102085  81.6242523  13.4426908  11.9905949  85.8025513
  13.9143648  11.9290380  84.9719086  12.7561436  12.6376696  85.6407547
  50.8757935  52.8203087  59.4039764  50.5387459  53.6281357  59.7913361
  51.3365517  52.3848648  60.1211395  40.9630089  55.8918571  38.7301979
  40.3493996  56.0527191  38.0133705  41.4964523  55.1566124  38.4283981
  86.9825821  20.7833691  51.9594231  86.0698929  21.0300846  51.8098602
  87.0418930  20.6467419  52.9049606  20.4069996  50.0160179  82.9163971
  20.0881882  49.5775795  83.7052994  21.1705284  50.5128021  83.2104416
  75.1981583  52.4587097  25.4351196  74.8930435  53.2948799  25.0830479
  74.6767273  52.3277092  26.2270660  22.3415775   0.8974431  70.3498535
  22.6386375   1.6461760  69.8327560  21.8841877   1.2872535  71.0948868
  15.3261061  44.4885063  28.5974846  15.7398863  44.1165428  29.3763695
  15.9139185  45.1942101  28.3278809  22.5238037  33.6880493  77.7926254
  23.0043373  33.9832802  78.5660324  22.3959351  34.4815254  77.2727509
  67.8719788  34.8904381  54.6786766  68.1561737  35.4825974  53.9823952
  68.3556595  34.0805016  54.5165405   4.5033565  40.1233711  51.8589630
   5.3410759  39.6827888  52.0015984   4.7028165  41.0544891  51.9562798
  85.8597412  69.1029510  48.7783737  86.2432709  68.2468567  48.5880318
  84.9150162  68.9490738  48.7713928  58.0065041   7.1543946   3.0868480
  58.5623436   6.8208933   3.7911563  57.3220863   7.6502132   3.5362568
  64.1761780  67.2027206  39.3815422  64.3052216  67.5764847  40.2532578
  63.6048126  67.8276520  38.9351807  31.2164803   3.8719094  18.8197460
  32.1386032   3.8329017  19.0735168  31.2315655   4.1520400  17.9045773
  39.9692917  59.3909111   3.6768126  39.1800613  58.9786568   4.0280833
  40.2369232  58.8206062   2.9561479   4.6388669  52.4996567  78.2465744
   3.8420334  52.6881523  78.7423096   5.3479934  52.8292122  78.7986221
  61.0840454  62.1775551  48.3077965  60.8886871  62.5177078  47.4346619
  61.9776115  62.4714737  48.4849434   4.0134025  32.2148666  29.7230053
   3.5672147  32.2548294  30.5689087   3.9469280  33.1040497  29.3749123
  66.9264374  47.8111229  69.7271729  66.4677811  47.5158463  68.9406052
  66.5683517  47.2697449  70.4306793  47.6815376  53.3311729  85.2059174
  46.7892647  53.0506859  85.4094086  48.2220573  52.5630989  85.3906784
  68.6783981  57.8127289  22.8789349  68.1609497  57.5956535  22.1034641
  69.5834198  57.8243828  22.5674229  21.8486099  45.6391907  32.2513771
  22.0495720  44.9764404  31.5906143  21.1822224  45.2315483  32.8045387
   0.7537063  67.2884521  83.0426178  -0.0265159  67.3707275  82.4942398
   1.4601158  67.0944595  82.4265060  75.1796265  41.5613899  86.2420273
  75.8496246  41.4401932  86.9148102  74.3524399  41.5536232  86.7236252
   3.5168374  66.6747665  39.4053764   3.7540598  65.7760239  39.1768608
   2.5735812  66.7206039  39.2491722  52.4471512  39.8291168   0.4316064
  51.9360161  39.9722633   1.2281518  51.7914886  39.7038612  -0.2544325
  44.5390320  36.0717087  77.2061386  44.2978401  36.6166992  77.9551620
  43.8615303  36.2482910  76.5534210  81.4116592  64.5190659  51.4991188
  80.6885147  65.1275787  51.6508179  82.1377640  64.8780518  52.0091476
  60.8790092  66.3307114  55.8402367  60.3156052  67.0611954  55.5848808
  61.5062370  66.7147827  56.4528618  32.4305305  32.7410660  23.1622925
  33.2351112  33.1991196  23.4053421  32.0537415  32.4599609  23.9961033
  49.9902725  48.5065269  80.3617783  50.0084267  47.6313972  80.7491379
  50.6582108  48.4791183  79.6766968  18.8956718  64.3309784  62.8078613
  18.6072559  65.1532440  62.4117165  18.7914448  63.6808739  62.1130714
  69.9571838   0.8772211  71.8935776  70.6271057   0.4837002  72.4526596
  69.3440781   1.2849900  72.5051880  48.8490868  19.7637978  86.4411087
  49.1186485  19.8746204  87.3528595  49.6696358  19.6559868  85.9601669
  33.2604790  51.3997993  14.0905867  33.4031982  50.9306602  14.9126406
  32.3090706  51.4800911  14.0226984  44.5476189   5.9508386  60.1100655
  45.4597015   5.6621299  60.1414261  44.3892441   6.1442318  59.1860809
  77.0032425  35.4904785  31.0279865  77.1678696  35.3866386  31.9651871
  76.0670471  35.6809464  30.9689198  38.9022942  67.3430405  81.6405334
  39.7662926  67.5340805  81.2755127  38.4330750  68.1760406  81.5939484
  17.5944862   5.6828055  49.7096596  18.2907429   5.6918364  49.0528641
  16.7892780   5.5741310  49.2036324  66.5880432  52.8728256  46.1141357
  67.5315552  52.7145576  46.0830917  66.4353333  53.5419006  45.4468651
  76.3612442  67.7098160  12.7848759  76.5915222  67.3323975  11.9358959
  76.1466751  66.9545975  13.3324480  81.2387543  28.9397202  13.4600525
  81.8723145  29.4867458  13.9243727  81.7644577  28.2385807  13.0750008
  55.5757065  37.8717270  73.6875916  54.7511787  38.0829430  74.1255112
  56.0997925  38.6688232  73.7663803   4.3912230  17.8397388   9.5948133
   4.5237904  16.8974667   9.4909859   5.2157693  18.1586132   9.9617958
  74.1972733  55.1701851  66.4025726  74.6622696  54.9968300  67.2210846
  74.7723007  55.7656326  65.9219284  12.6411867  43.5114441  71.5656204
  12.9082012  44.1993752  70.9559631  11.8228273  43.1734772  71.2018890
  50.7155762  24.8255253  83.6760941  51.2269211  25.2463017  84.3672562
  51.1584282  25.0748615  82.8649521  30.7363529  56.8700638  78.1648407
  31.0138454  56.6185989  79.0457458  30.5655441  56.0392418  77.7212219
  61.8846550  53.8034897   8.2897034  61.7712288  54.3834381   7.5366907
  62.3448143  53.0414238   7.9379301  25.8391743  58.3525543  59.6132050
  25.7023296  57.8516502  58.8090858  26.1807728  57.7132759  60.2383995
  73.9734879  59.4145279   2.8227763  73.8047638  58.6444321   3.3656547
  74.8841476  59.6435814   3.0084193  82.5639725  29.1333447  36.6266441
  81.8820572  29.0755844  35.9574051  82.9823761  29.9798527  36.4698219
  47.1997948  68.6530151   7.5188341  47.9377785  68.0499039   7.4301658
  47.4499893  69.4159088   6.9976530  47.0912437  48.1328011  38.8635406
  47.6607742  47.3743629  38.9925232  47.2357178  48.6753998  39.6387444
  44.8264122  65.1223297  62.9544830  45.2655067  64.3619919  63.3356857
  45.3719711  65.3636017  62.2058945  54.8118324   6.3014536  47.9419174
  54.7289009   5.9928699  47.0396271  54.7795029   7.2555971  47.8726578
  46.3998718  24.9914341  15.7591114  47.2816238  25.3042526  15.5569029
  45.9051399  25.7850304  15.9632645   8.2832155  44.4878387  52.9116516
   8.1053028  43.7395363  52.3418999   8.4522352  44.1002083  53.7703705
  73.2684326  39.7335930  18.4978046  74.1764221  39.4812622  18.6654930
  72.8331070  39.6386871  19.3449860  14.4425507  10.6641474  23.7277622
  14.9842615  11.1244993  24.3687439  13.7498846  10.2569113  24.2479591
  70.2357559  11.0001383  86.0235214  71.1016083  11.1416483  85.6407623
  69.7223587  10.6091595  85.3165665  47.3385658  51.6444168  55.1916656
  47.9724312  50.9994583  54.8778534  47.2983742  52.2994347  54.4948349
   1.1616600  43.0224648  33.2346458   0.4815050  43.3621597  33.8162193
   1.0421033  43.5067902  32.4177208  48.5392532  48.1472168  60.9713135
  47.6284485  48.4405060  60.9458466  48.8328056  48.1981697  60.0616646
  45.2952728  56.4169464  23.4423428  46.2150383  56.6169395  23.2683659
  44.8321533  57.2319374  23.2485886  57.2125511   4.2198367  61.0739098
  56.5363731   4.1482968  60.4001923  58.0319557   4.0475149  60.6101074
  47.4861832  11.3784647  21.6543522  46.6242943  10.9815331  21.5285645
  47.8938446  11.3451147  20.7889423  14.6521969  36.4029579   1.6563541
  14.7715235  36.6929474   0.7519768  13.9787693  35.7247696   1.6035385
  14.8865042  64.5138931  62.0688972  14.8724060  63.6487617  62.4782715
  14.9205122  65.1261368  62.8039017  55.0115280  18.3288918  21.3896847
  55.5309753  19.0170040  21.8055058  54.1420288  18.7152557  21.2851601
  84.5299530  37.3211441  75.7530823  85.3083344  37.2535515  75.2000961
  84.5724106  36.5521126  76.3214264  30.4192181  47.3159256  85.7227249
  29.8153248  47.9812202  86.0527649  29.9952888  46.4833183  85.9307556
   8.3451967  31.4824162  85.8713379   8.5130844  32.3844490  86.1440735
   9.1912289  31.0437260  85.9608536  14.0857840  22.4907436  77.3951645
  14.9496689  22.7185516  77.0515976  13.7492523  23.3095589  77.7591934
  48.9290237   9.9265566  70.7458115  48.5235596   9.3566780  70.0923004
  49.7604523   9.4998436  70.9528732  64.9736862  21.3100777  77.7426758
  64.0266647  21.4292755  77.6707916  65.3167572  22.1935024  77.8771896
  54.5134277  42.1431694  46.7761078  54.3064804  41.4626541  47.4166565
  54.2106705  41.7862167  45.9411507  25.4891605  59.2759819  63.4202690
  24.8439484  58.6287498  63.1356201  26.3249931  58.8105049  63.3895111
  65.4754486  46.3868713  20.8031044  65.1323242  46.6656876  21.6520824
  66.0741119  47.0876846  20.5448627  48.8490753  47.0620537  67.8742142
  49.3624725  46.2962914  68.1316376  47.9775467  46.7138557  67.6859741
  13.1125412  60.4336586  68.5220337  12.5381527  59.7140083  68.2604752
  13.0055294  61.0884171  67.8320465  58.1666603  69.9583130  65.6013641
  58.1229668  69.0132980  65.4555435  58.9392052  70.2407303  65.1118240
   5.0066409  12.4865866  56.2206306   4.8320713  11.6045332  56.5488663
   4.3966498  12.5957470  55.4910927  11.6868496  14.2815170  45.7858086
  12.5605116  14.3651495  45.4037743  11.8445902  13.9813271  46.6809273
  32.3909454  14.2429457  12.8532572  33.2937889  14.1378374  12.5531559
  32.1087914  15.0763874  12.4764357  28.9441681  29.4825821  88.1049423
  29.0035992  28.5484867  88.3053589  29.3056698  29.9167976  88.8776016
  40.9198494  63.9735909  64.0035706  40.2947884  64.1615829  64.7037048
  41.4957581  63.3027725  64.3703918  79.9951248  40.8754387  33.4184113
  80.0836487  40.6618156  32.4895630  80.7827148  40.5126190  33.8237419
  58.1105957  67.1953125  65.3314972  58.2130432  67.1306992  64.3819962
  57.4525375  66.5344086  65.5469208  49.7949219  40.4717560  12.4753704
  49.3494301  41.1335220  13.0043659  50.7121468  40.5287628  12.7431049
  11.8933392  45.1838226  28.1168785  11.5576649  44.8182678  27.2983913
  11.3198681  45.9280777  28.2997723  71.3812485  10.8440571  49.9380798
  71.1164246  10.6958361  50.8458977  71.1242065  10.0439034  49.4799156
   0.6626955  48.6115189  16.5214005  -0.0068405  48.0165863  16.1837540
   0.4206304  48.7495804  17.4371376  70.8246384  56.7906113  16.7990150
  70.5858765  55.9986687  17.2807331  71.5859604  57.1347198  17.2661533
  79.1723862  35.6408386  86.6040039  78.7451248  34.8650589  86.2408905
  78.6893768  35.8253326  87.4095459  70.6646118  31.1757240   4.7021585
  70.1209106  31.1730328   5.4899502  70.6843262  32.0925751   4.4278784
  36.7236938  69.2354660  50.2917595  35.9611893  69.2817078  49.7149773
  36.8136024  68.3045883  50.4957542  10.8786802  17.8474846  17.7064571
  11.1837492  18.0776596  16.8288555  10.5156879  18.6616993  18.0550594
  26.6665363   9.9209652  57.5580101  27.3152771  10.0880003  58.2417259
  27.0974236  10.1924276  56.7475319  18.3422146  39.2370720  22.0153370
  18.4346657  39.7174797  22.8380699  18.8223553  38.4215469  22.1589241
   1.8169621  12.9022799  45.2619438   0.9801194  12.5338888  44.9787254
   1.9638028  12.5244083  46.1290550  81.6295547   3.0075829  26.6429214
  82.1177750   3.1735897  25.8365002  82.1048889   2.2937431  27.0680389
  43.0973091  70.9054871  46.6130371  42.6764069  71.3838425  47.3273506
  43.4508858  71.5884094  46.0430908  45.8091545   4.6993713   4.4300480
  44.9931335   5.1672153   4.6074309  45.5381737   3.9216142   3.9423037
  31.5922165   6.4873209  69.3631287  32.4986458   6.5021396  69.6703644
  31.0830727   6.2291627  70.1314697  67.9340057  63.1755829  22.1198959
  67.2047348  63.1920929  22.7396717  68.3556290  64.0286636  22.2233810
  13.4070663  27.5385551  77.4232407  12.7240429  27.7350178  76.7820587
  13.6268568  28.3875542  77.8068085  59.1817474  40.9218178  17.0795994
  58.6703644  41.2788162  17.8057346  58.6537170  40.1949310  16.7493725
  50.6242485  62.6785278  19.1218643  49.8223495  62.4332924  18.6602955
  50.3302345  63.2685509  19.8158817  12.9719534  45.0758820  24.0472813
  13.4448013  44.9642487  23.2225494  12.6078205  44.2104836  24.2336292
  36.3406296  23.7708511  22.0576420  36.1452255  23.1305161  22.7417603
  37.2564888  23.6081848  21.8318691  70.7900772  37.4696846  26.5404205
  70.8286438  36.8115616  27.2344093  71.0532990  38.2845306  26.9681778
  24.6070271  44.8383636   7.5771379  24.8141422  43.9071999   7.4979701
  24.5998726  45.0028114   8.5200787  26.0417957  46.4510193  27.2443638
  26.5001068  46.1528931  26.4586773  26.6191978  46.2039528  27.9667206
  86.4669952  43.8296890   5.9362464  85.5899124  43.9270439   5.5654564
  86.3235245  43.7821884   6.8814411  43.0607185   8.1705017  15.7509890
  43.6343460   7.8513069  15.0543575  42.2510109   8.4134655  15.3020210
  39.7276535   4.0993395  49.9299812  39.3421822   4.8872914  50.3130913
  38.9865265   3.6349199  49.5410423  48.1151428   9.1410236  44.2011337
  49.0052986   9.4842892  44.1235657  47.6999283   9.6985645  44.8591461
   7.5673156  20.2447090  87.0934982   7.2341223  19.5157089  87.6167374
   6.8900371  20.3954792  86.4341125  25.2901096  61.8217773  42.9997520
  25.6526737  61.8181686  43.8856239  24.3435860  61.7596970  43.1280899
  83.2112961  61.5296631   8.5075493  83.3414307  60.8300781   9.1477680
  82.3156586  61.4039154   8.1941004  65.5632706  13.5004444  24.7632217
  64.6232147  13.6806631  24.7697582  65.7155838  12.9938745  25.5609798
  70.4669724  67.9254227  87.8538818  69.6003647  68.2163925  88.1377182
  70.9607620  68.7350464  87.7238312  17.4941177  48.1307793  69.8445740
  18.2273388  48.1156006  70.4597092  17.3213634  47.2085762  69.6550369
   7.9216428  12.2847643  67.5923615   7.8641696  12.4756279  68.5285797
   7.3197436  12.9068241  67.1837158  45.8520508  15.1260643  69.0764771
  46.1723938  15.5894680  69.8503494  45.8070641  14.2092419  69.3478546
  71.8149414  25.0305901  85.4829102  71.5464020  25.2679157  84.5953369
  72.7641907  24.9219570  85.4249573  14.1369791  12.6987505  82.7605362
  14.7391376  12.0230398  82.4490051  14.6703119  13.4922924  82.8061371
  59.1804352  27.0584412   3.1756055  59.9662247  27.6050167   3.1804316
  59.0221443  26.8747368   2.2496314  56.6056862  11.1159296  58.9844551
  57.3476562  11.7103958  59.0954628  56.3425789  11.2292156  58.0711250
  35.1666641  28.8124695  84.0698013  35.2345314  28.8811798  85.0221100
  35.8918915  28.2404556  83.8186493  84.9880371  59.3446083  47.3223953
  85.8451309  59.7701530  47.2993927  84.3610382  60.0656242  47.2654610
  55.1858330  44.8613663  27.3487949  54.7434273  44.2760124  27.9635029
  55.4116478  44.3019409  26.6056385  48.9971962  31.7976646  50.2318344
  48.8223000  32.7226944  50.4049225  48.3291740  31.5425873  49.5955048
  20.3155479  61.1783180  79.8172379  20.7482891  60.3910866  79.4867325
  20.5892429  61.8719597  79.2170792  36.0195160   4.7900119  32.2664604
  36.8507462   4.4561863  32.6038704  35.6114883   5.2202682  33.0178757
  29.7469845  53.5334663  48.0518951  30.1186981  52.7963600  48.5363922
  29.4509506  53.1519737  47.2254219  51.6992302   9.2918777  34.0484543
  51.0311279   9.6218157  34.6492996  51.9582367  10.0569210  33.5347862
   6.9626265  13.4286327  45.5764084   6.9583673  13.9147940  46.4009438
   7.5949893  13.8928547  45.0279121  51.4630737  65.4095459  46.0469398
  50.6658325  65.3556366  45.5199394  51.7000885  64.4978180  46.2166824
  63.6634407  45.7016106  25.3901291  63.2238121  46.4666138  25.7612419
  64.0231247  45.2408981  26.1481552   7.5191379  53.8392868  24.0377636
   7.0660272  53.5363731  23.2508945   7.5305939  53.0766487  24.6161118
  35.0254326  48.0569115   5.5972013  34.8328705  48.7405663   4.9555120
  35.8577919  47.6837349   5.3071117  32.9679871  59.5818672  15.5807419
  32.5332031  59.3563690  16.4031448  33.2236023  60.4980125  15.6883087
  65.3585663  32.4524994  16.2313290  64.4314499  32.2162018  16.2605915
  65.4460068  33.1588936  16.8713226   9.9558210  57.3868637  12.2183704
   9.3549633  57.0624084  11.5476017  10.7320786  57.6631012  11.7311878
  31.9020462  16.0924702   5.2740011  31.9800320  15.2472858   4.8314915
  32.6206818  16.0990047   5.9062591  79.0406189  34.4345779  35.1116676
  79.0645981  34.4544830  36.0683594  79.9361191  34.2155113  34.8541374
  47.5529633  56.4161644  48.5413361  48.4298363  56.2287712  48.8763123
  47.1944351  57.0578804  49.1544380  60.0390701  33.1111946  69.0043945
  60.6211967  32.4413414  69.3630829  60.4842758  33.4172363  68.2142258
  32.4480171   6.1474462  27.1810818  31.7564945   6.7921538  27.0314732
  32.1301537   5.3518429  26.7542210  32.5521736  12.7013531  72.5993500
  33.3337479  13.1366062  72.2588654  32.7888451  11.7744150  72.6310196
  70.6910553  61.9816017  27.1038303  70.1279068  61.5231972  27.7275009
  71.4840469  61.4473381  27.0595798  36.6814880  68.8595123  75.3544312
  37.4182205  69.4454269  75.5280991  36.2734985  68.7275848  76.2102127
  66.1579056  41.5314140  38.3013344  66.9771042  41.8690948  37.9392242
  65.5494690  41.5361290  37.5624046  13.0328302  41.0743256  17.4856415
  12.1303177  40.7569008  17.4549103  12.9792414  41.9788208  17.1770134
  51.5372467   2.4820015  13.5546741  50.7832718   2.3035176  12.9926252
  51.2002373   3.0748155  14.2264099  47.1571693  50.0185966  51.8449669
  47.4515533  50.8350563  51.4412766  47.9133987  49.4349632  51.7839508
  76.1562805   3.1220193  87.9595261  76.4297791   2.6154160  88.7242355
  76.9757385   3.4121053  87.5588150   5.6717510  61.8745689  15.2972717
   6.0789952  61.2618141  14.6849699   6.4064980  62.3518066  15.6827860
  61.2147560  36.7513771  51.3091354  61.0125656  36.3819809  50.4495430
  61.7102928  36.0641785  51.7545967  63.1500931  49.3539658  37.9124794
  63.6002617  49.0906372  38.7151222  62.3866920  48.7783699  37.8661652
  60.6145058   4.5648885  40.9904976  60.6227913   4.4668784  41.9426308
  61.3402748   5.1606922  40.8047256  10.8348112  19.9086933  66.2482224
  11.7699404  19.9471912  66.0475159  10.7590799  20.3089333  67.1144180
  82.0797348  35.3677444  86.7318497  81.1466141  35.5714493  86.6684189
  82.1077194  34.4865952  87.1047058  66.8790817  63.1577377  74.2408371
  67.7445221  62.7641678  74.1297150  66.2686234  62.4284668  74.1325302
  61.0073509  47.2045517  41.1121941  60.6971817  48.1092529  41.1514816
  60.2088776  46.6799431  41.0534096  52.7623138  36.7774162  58.3979568
  53.5954933  37.0640640  58.0239487  52.5686073  35.9546280  57.9488106
  75.8463440  70.5228043  31.5551052  75.2285538  70.0522766  30.9954853
  75.7174225  71.4446716  31.3320045  79.7044601  37.0082664   8.0230598
  80.0305405  37.9078484   8.0487957  80.0306168  36.6120758   8.8310728
  33.6990776  14.0310287  48.0477066  34.5454521  14.4662724  48.1498985
  33.8076363  13.1892672  48.4902954   7.4683723  20.7657528  39.1385536
   8.2508020  20.2187767  39.0688972   6.7484655  20.1425915  39.2367210
  64.8885422  23.2457218  47.8932381  64.8602829  24.1803818  48.0977974
  64.4110794  23.1667404  47.0673904   9.3242102  22.0647335  84.4351730
   9.8798800  22.2816219  85.1837845   8.5840855  22.6678696  84.5035553
  35.6658592   4.0529871   2.4367385  35.8554802   4.5538602   3.2300873
  35.8946991   4.6443648   1.7197047  51.0908890  63.5999718  16.7011204
  51.2507401  63.2285271  17.5687084  50.2329483  64.0181351  16.7739735
  52.0458870  53.0811882  23.8969574  52.8577423  53.4112930  23.5120506
  52.2162628  53.0658035  24.8387470  40.4879761  52.6062202  21.7971382
  41.4201279  52.7406616  21.6261272  40.0489998  53.2733803  21.2694740
  64.7830124  57.1879044  16.0940380  63.9923172  57.6213112  16.4152641
  64.9986420  57.6518974  15.2850590  59.2750587  33.6385612  32.4835739
  59.2308006  33.5712204  33.4373741  59.8187294  32.8975410  32.2161140
  38.0050659   3.8175392  16.5937500  37.3804970   4.1255531  17.2504616
  37.5604477   3.9550211  15.7573023   0.4396373  21.6427078  23.7402000
   0.2402304  22.1569176  24.5225391   1.2900851  21.2444916  23.9256573
  26.6741352  35.0644341  87.0392685  25.8162155  34.6796608  87.2185822
  26.5875740  35.9788399  87.3087158  39.6309090  29.8473473   3.6122553
  40.5450745  30.1015415   3.4861016  39.6760368  29.0263176   4.1022601
  14.7018719  17.2005920  42.4198189  15.2608738  16.6375160  41.8843803
  13.9644146  17.4178791  41.8495789  71.5358505  71.3647537  37.6234322
  71.6894913  70.5997620  37.0689888  72.1971512  71.9985962  37.3456459
  24.8842125  34.0064087   3.3404479  24.6275234  34.9251556   3.4194925
  25.4807758  33.9879303   2.5921149  19.3739414   7.4122639  18.6131840
  19.5129547   7.4711771  17.6679649  19.7091675   6.5478425  18.8511562
   9.9735537   7.5233192  28.3417721  10.2798643   7.0407267  27.5739765
   9.4335785   8.2272825  27.9824734  40.5180740  52.6072655  48.0119324
  40.9610100  52.6194115  48.8603973  40.7885094  51.7805519  47.6123848
  46.7755699  13.4919319  66.1766891  46.3561249  14.2684946  66.5471649
  47.3287010  13.8311796  65.4729919  59.3142242  30.7444725  14.3834839
  59.4386024  29.8316345  14.6432695  58.9886017  31.1760540  15.1733799
  17.9273815  12.2118444  43.5545807  17.5829144  12.3220549  42.6683350
  17.1550999  12.0336037  44.0912743  10.1336651   8.9520912  78.6835327
  10.4084196   8.2792587  79.3064575  10.9311895   9.1732750  78.2026291
  75.4415131  50.8737602  42.7655907  75.7136002  49.9983101  43.0408821
  75.2317200  50.7782974  41.8365555  52.1693268  63.7247467  36.9550171
  51.9435158  62.8410606  36.6646042  52.6106415  63.5955162  37.7945251
  76.7916718  16.6681995   5.9147377  77.3303528  17.3130894   5.4562926
  77.3987350  16.2291317   6.5104971  42.8107414   9.1889229  63.7656898
  43.4547653   9.2316551  63.0588417  42.8360901   8.2778149  64.0580444
  27.4164391  69.0881348  40.9221115  26.9980049  69.0933914  41.7829933
  28.2155724  69.6014175  41.0410843  41.4980927  66.4091034   8.0347528
  40.9995918  66.2933884   8.8436670  41.1544228  65.7391815   7.4437151
  27.7121372  61.8917007   9.0569983  28.4826279  61.5811768   8.5814419
  27.5644855  61.2295265   9.7322426  31.5897274  37.3450699   5.8701730
  31.7580700  36.4200439   6.0496783  32.2945938  37.6061859   5.2775373
  79.7802734  58.4078789   3.9248464  80.3068390  58.7103081   4.6647768
  79.9233932  59.0656242   3.2443178   1.8131135  71.1451797   3.2230504
   2.1041360  71.8831711   2.6874175   0.8600305  71.2297440   3.2497525
  31.6232777   4.3056030  36.2171707  30.8747578   4.8030162  36.5466080
  32.3750191   4.8802900  36.3615837  76.8004990  71.2874374  12.5977592
  76.0048676  71.7275620  12.2986116  77.5138702  71.7816010  12.1938467
  18.1949368  51.1302528  10.6062670  18.6336327  51.2452888   9.7633286
  18.8694382  50.7661285  11.1795864   5.3197927  59.4936867  73.7198563
   4.8902545  58.6405373  73.6576996   4.9412436  60.0050964  73.0047379
  12.7910004  51.5237961  75.4069443  12.5920515  51.9712029  74.5844650
  13.5278378  52.0126877  75.7733994  70.6357651  43.7104950  27.5692673
  71.2552719  44.3945618  27.3153114  69.8203659  43.9503670  27.1290264
  20.0959206  40.0765839  75.3539276  19.9468079  39.1408424  75.2183456
  20.9775066  40.1275864  75.7233047  82.2911148  28.9121418  58.4159851
  82.2843399  27.9725933  58.2331352  81.3720932  29.1737614  58.3595848
  17.9015293  67.2537766  15.1278687  18.1018848  66.9603424  16.0166798
  18.5417309  67.9436493  14.9533730  84.8734589  71.1879425   5.7890420
  83.9816818  71.1227570   6.1306748  85.4195938  70.7916641   6.4679623
  24.7917824  29.6939087  75.5524445  24.0375595  30.1145496  75.1395950
  25.5066872  30.3204136  75.4400482  84.0491409  22.6162453  86.3450623
  84.3286743  21.7701817  85.9953842  84.6679993  22.7995472  87.0519104
  25.2726479  56.2449303  73.1777267  24.6239014  55.5485306  73.0757980
  26.1160965  55.8020287  73.0846329  51.9885330  34.3412857  57.6380348
  51.0798988  34.5320625  57.4051743  51.9246788  33.7657471  58.4002075
  77.1344223  40.7700729  87.9005508  77.5645447  40.6626282  88.7488937
  77.0915527  39.8844643  87.5398788  65.4314804  51.2800064  50.5720100
  65.4292374  51.0859222  49.6346970  64.5490189  51.0535316  50.8656120
  51.6782494  24.7843342  53.9936371  51.1678810  24.7054806  53.1876945
  51.0229111  24.8983326  54.6819420   4.0335445  34.9965286  19.6078739
   3.4261637  35.6457901  19.2532253   4.8974609  35.2981987  19.3270283
  11.0560341   1.1685890  50.0258141  10.9638786   1.7528360  50.7784081
  10.1590700   0.9148239  49.8083534  61.8866425  39.7455254  50.2422523
  61.7284012  38.9647331  50.7728691  62.7937622  39.6566353  49.9499130
  15.1931000  70.3377228  29.6032829  15.4044714  71.2243576  29.8955708
  15.5169458  70.2986069  28.7033806   2.9240396  49.3829803  67.1056290
   2.7993255  48.8202477  67.8698349   2.2151804  49.1391487  66.5104065
  82.7935944  31.7861843  31.7172680  82.5716400  32.6863098  31.4790611
  83.7444382  31.7949944  31.8270435  13.4899969  10.4331036  75.1178665
  14.2949429  10.8710623  75.3944321  13.6280527  10.2416821  74.1902161
  64.2242126  25.4868965  73.0659332  64.1251526  24.6294403  72.6521835
  64.5683365  26.0493374  72.3720474  73.1585083  34.9627838  25.1115551
  73.7212753  34.7874374  24.3573799  73.6264648  34.5800896  25.8537102
  71.6283798  10.4519329  47.0353279  72.1435165  10.4618521  47.8420334
  72.2805557  10.4518013  46.3346825  72.8933563  60.3886375  41.8864212
  72.3497009  59.6028404  41.8298912  73.7180176  60.1398888  41.4689369
  15.3351536  28.2889366  54.8964615  16.1309834  28.5149212  54.4149895
  14.6465569  28.8042336  54.4762993  27.5463181  17.6173649  76.5788040
  27.3867760  17.4133549  77.5002975  28.4513359  17.3453808  76.4264832
  43.6828384  45.0565720  14.1123905  44.6040421  45.2024231  14.3276596
  43.3390694  44.5599480  14.8549662  32.8689842  44.7545128  87.8562088
  32.1359482  44.5372581  87.2802887  33.1189575  43.9192200  88.2512131
   1.3649465  61.3859558  49.9550400   2.1523805  61.0516396  50.3844757
   0.7537455  61.5535545  50.6723824  58.8743706   9.7645483  79.1888123
  59.1320038  10.4694557  79.7829208  58.1903648   9.2906237  79.6618500
  79.6059875  32.3182716  55.8764267  79.7625198  33.1492958  55.4279556
  80.4409485  31.8538265  55.8184433   3.9474192  26.8687096  10.3732996
   4.4985733  27.2992973   9.7198048   3.0692270  27.2128086  10.2101860
   3.2084632  16.2883682   1.7739336   2.4092202  16.2778988   2.3005574
   3.8689773  16.6751060   2.3487267  18.8878803  34.9809647  17.7199345
  18.5858307  35.2270432  16.8456097  18.1882648  35.2707748  18.3054085
  41.1990585  56.6770439  83.0524368  40.3530922  57.1068001  82.9264374
  41.6229362  56.7267685  82.1956482  51.9672737  47.6664658  11.0365953
  52.3464813  48.2395515  10.3702545  52.0369873  46.7873993  10.6642885
  76.5073013  42.4415321  62.9943810  77.1155701  41.8513832  62.5494499
  75.8194733  41.8672523  63.3310242  51.7673645   0.1218602  26.3891468
  52.6366119   0.4720951  26.1942654  51.3450356   0.0396740  25.5340939
  66.4804306   0.8798798  56.9535446  67.2108612   1.4919704  56.8638306
  66.8922577   0.0482690  57.1881828  24.4131966  20.9824715  10.7831602
  24.9850864  20.6523838  11.4761343  23.6374283  20.4233990  10.8262348
  26.1891193  15.3113308  21.7737617  26.4444332  15.6533890  22.6305256
  25.2743244  15.5746851  21.6736355  75.5748291  30.7364807  26.9026489
  76.0369873  30.0323772  26.4478111  75.0648117  31.1695213  26.2181091
   3.5569119  16.6897774  88.3442001   3.7984843  15.8787165  87.8969269
   3.1824431  16.4018040  89.1767120  42.6596069  56.1647491   8.4767399
  42.4808006  55.2244034   8.4793158  43.5705376  56.2361259   8.7619543
  27.1100330  55.0337448  42.4098778  27.9636650  55.0731277  41.9786110
  26.6345329  54.3501244  41.9378624  49.6129494  18.3642960  16.0540886
  49.9742699  17.9557018  16.8406830  48.7880783  18.7539310  16.3439274
  73.7292404  51.5274658  65.7496948  74.0475388  50.6430244  65.5689163
  74.2434540  51.8177528  66.5030518  76.5417328  20.5186024  56.6790428
  75.8898544  19.8210850  56.7479820  76.0267487  21.3243160  56.6359978
  36.0018539  42.8131256  72.2366562  35.1709251  43.1281776  72.5923767
  35.8203087  42.6520615  71.3107376  77.6052246  12.0317163  59.0846367
  78.4668427  12.3556719  58.8221359  77.6738510  11.0800018  59.0087318
  56.1103706  20.2589493  32.6808510  56.5667953  20.6338406  33.4340858
  56.6326981  19.4935474  32.4409218  68.6915512  59.6374130  31.4159431
  69.1890411  58.8197021  31.4250984  69.1981049  60.2321587  31.9690323
  26.9296951  11.8502188  80.7435226  26.6016502  10.9810009  80.9739075
  27.2177200  11.7643967  79.8347244  45.6453819  62.9488335  18.3672237
  44.9670753  62.4014359  18.7628059  46.4272957  62.3967171  18.3644199
  84.4581604   8.5459061  63.7860298  84.3225708   9.4515543  63.5073814
  84.3064957   8.0270081  62.9961090  83.3666534   1.7210386  17.2115688
  82.5879364   1.1761726  17.3253651  83.2220688   2.4693797  17.7906303
  57.1145668  15.0457249  64.0951004  57.5302811  15.8614607  63.8158379
  56.3148689  14.9930382  63.5717087  48.1153870  62.3125916  59.5245323
  48.2467422  62.2261543  58.5803337  47.2014236  62.5820732  59.6155243
  17.4210587  11.0691109  77.2834396  16.7625637  10.5820141  77.7787704
  18.1928635  10.5029774  77.2899094  45.2802925  52.5832367  41.0356674
  45.9168243  53.1016045  40.5433769  44.7551765  52.1479759  40.3640747
  21.9703159  64.8263931  83.6782990  21.7020206  63.9946098  83.2879257
  22.0630112  64.6341934  84.6114120  13.6184721  48.5683823  73.9835815
  13.5055418  47.7311058  73.5336380  13.2255554  49.2120171  73.3940201
  77.6786575  53.3501320   4.9810181  77.9400635  54.2449722   5.1981835
  77.7651367  53.2996941   4.0290675  29.4960194   2.5061100  57.7824097
  29.9723186   2.5249405  58.6124802  29.5876808   3.3927300  57.4335060
  15.4270697   5.8457766  79.8235550  15.1436815   5.4565706  78.9962463
  16.0676117   5.2261138  80.1727753  35.4426117  56.5364113  80.6941528
  35.6479301  55.6454620  80.4108124  36.0276070  57.0922699  80.1793365
  36.1241150  42.4336548  83.3018799  36.5974197  42.1115341  84.0689926
  35.3238487  42.8190651  83.6586227  73.0848694  55.8795204  10.3826361
  72.9449692  55.1255302  10.9554882  72.3111267  56.4273796  10.5145617
  41.4032440   3.7395039  75.9585266  41.0167427   3.3880744  75.1564331
  41.3080254   4.6882472  75.8745499  36.4131432   3.1928415  55.5822754
  36.1957092   4.1249962  55.5888176  37.3673325   3.1689618  55.6542664
   7.6810350  28.2073727  80.0780869   7.5039663  29.1384869  79.9442673
   7.8810205  28.1332874  81.0112228  70.4574585  30.3795261  77.6752243
  70.0815430  29.7444000  77.0656891  69.7280884  30.6265888  78.2437363
  82.4302979  50.6564064  20.1864891  82.6994019  49.9286728  19.6259384
  82.8648529  51.4218559  19.8103523  50.4275703  21.2287178  22.5233612
  50.3223228  20.3073673  22.2861538  50.5371361  21.6804600  21.6866074
  32.3605576  55.3159752  17.2906952  31.7298222  55.1879845  16.5821590
  33.1885948  54.9927979  16.9355335  22.0563450  21.7184544   2.0376713
  22.9456196  21.8824272   1.7237731  21.6391411  22.5799484   2.0361211
  82.8403931  55.8594589  36.1922722  82.4856491  55.0525131  35.8191452
  82.8265076  56.4847298  35.4676514  32.2835770  38.0882530  70.6231384
  32.3628922  37.8645172  71.5504379  32.7480392  37.3865891  70.1668777
  14.6893816  61.3282127  50.8290138  15.0424595  61.0427322  49.9863586
  13.8624086  61.7572174  50.6092339  63.2052956  50.7606583  51.9397278
  62.3172913  51.0602570  51.7449951  63.2627754  50.7866058  52.8948479
  55.5560074  32.5103073  20.6726761  55.5113945  33.4527855  20.8338470
  55.9079971  32.4353943  19.7857018  19.6041622  54.3421097   1.0873892
  20.3887234  53.8275261   1.2768564  19.1900482  53.8864212   0.3545249
  15.1766882  67.6583405   3.3612952  14.6723900  68.0106659   4.0946336
  14.5177851  67.2914810   2.7718136  14.0045862   9.4393568  65.1050339
  14.2420607   9.9822798  64.3533173  13.6814594  10.0611944  65.7570572
  52.0209007  58.8886909  46.1887512  52.2147560  59.1849289  47.0780716
  51.2032967  59.3316116  45.9616394  45.3498039  11.8492517  84.6449203
  44.8983994  12.6469278  84.9209213  45.5946884  12.0153933  83.7346115
  12.7598133  57.2956734  42.0056305  13.5996180  57.1052780  42.4236107
  12.7142830  58.2515450  41.9840279  81.7123871  38.2928505  35.5790291
  80.8648682  38.5103073  35.9671745  82.1523132  39.1367188  35.4761772
  55.8772202  60.1554108  45.6147614  55.7973442  61.0836105  45.3949890
  55.0877609  59.7543983  45.2511978   6.0318861  59.1702843  80.1813278
   5.0903010  59.3407631  80.1571350   6.1008749  58.2211418  80.2843018
  31.1485634  36.9572487  11.6974878  31.1712036  36.0297089  11.4621353
  30.4506512  37.0219765  12.3493776  69.5128326   4.5593500   6.4006319
  70.2226944   5.1267982   6.7011962  69.4822388   3.8522539   7.0450783
  65.3867493  24.8599701  12.2014427  65.9396286  24.1812077  12.5885363
  64.4955444  24.5219898  12.2894335   0.0545192  45.5250969  23.1758747
   0.8839991  45.1310539  22.9058285  -0.0636516  46.2657433  22.5811367
  35.9850616  36.3727722  13.0775700  36.0285339  36.7156487  12.1849451
  35.2152901  36.7948608  13.4590511  38.1861763  49.0239105  77.2291260
  37.7705002  48.8583755  78.0753250  39.1220055  49.0652008  77.4259796
  20.6233082  39.5219154  28.7696686  20.3436203  38.9573860  29.4903030
  19.9005337  40.1387711  28.6542454  17.7681274  20.1805172  73.3169174
  18.5024509  20.7689686  73.1416321  18.1718941  19.3195057  73.4258423
  21.5998573  25.7077637  26.4676456  21.0464630  24.9267693  26.4620171
  21.7391281  25.9092979  25.5423241  78.0832825  25.1157284  49.5518799
  78.0120163  25.9767494  49.1398163  77.2158356  24.7258167  49.4435425
  45.5390282  62.0547371  82.6128464  46.1736450  61.3850136  82.8677216
  44.7374229  61.8142776  83.0774307  62.6904602  25.0185337  32.0618706
  62.3305779  24.6315937  31.2637539  62.0506020  25.6838913  32.3150711
  64.6630630  47.2364502  23.3100948  64.1982498  48.0672188  23.4101028
  64.2459488  46.6510201  23.9421692  15.1975574  60.9814453  83.6815567
  14.8425674  61.8486595  83.4862366  15.7843943  60.7923889  82.9493637
  25.3002338   1.7062749  70.6931534  25.0020313   2.4665537  70.1938705
  26.2199459   1.6045781  70.4481659  70.7139511  21.4753017  22.2682610
  70.7366486  21.7465897  21.3505898  71.2748337  20.7004166  22.3028870
   2.4181988  52.1810493  60.2478104   1.7417476  51.9178505  60.8718071
   1.9542402  52.7143402  59.6023827  46.7957764   6.7224221  14.9056854
  47.7479973   6.7499433  14.9992523  46.6468315   6.1809335  14.1305494
  65.8647919  48.9963913   8.5757475  66.4043274  49.6544724   8.1374893
  65.0984268  48.8998375   8.0104218  63.7137146  41.4214745  55.0580215
  63.8209076  40.9702225  54.2206993  64.6013107  41.4865227  55.4103966
  60.3547096  53.2108994  62.5421257  59.5476875  53.1250687  63.0496445
  60.8831444  52.4566650  62.8031235  70.2660141  58.8379440  74.8081741
  70.6977692  58.9516487  75.6548691  70.8672638  58.2892761  74.3044891
  14.0353918  14.8001060  44.3339386  14.6735477  15.4740534  44.5679970
  14.2442141  14.5772552  43.4267654  79.1103058  18.0566959  29.2340736
  78.3632965  18.6171474  29.0240707  79.1164932  17.3962650  28.5412369
  62.8401871  40.2183609  81.6003799  62.0501137  39.8970413  81.1659012
  62.5572128  41.0108910  82.0565109  76.7760086   6.8811121  54.8526001
  76.9271927   6.6606297  53.9334908  77.5933685   7.2889328  55.1386566
  22.5129604  51.9080048  87.6703568  23.0260296  51.1006546  87.6360245
  22.9915161  52.4701843  88.2796021  51.6535149  56.2531433  64.1222687
  52.1020851  56.4270897  64.9497757  50.9496117  55.6473427  64.3541336
  57.4744987  16.1718369  55.4202423  56.8605957  16.3628979  56.1293602
  57.8872185  17.0136890  55.2274170  18.6150379  52.3052254  50.4214249
  18.2985439  52.8946648  49.7368622  18.9140282  51.5282364  49.9490662
   9.5318012  36.4526100  17.7796116  10.2587004  37.0265045  18.0214748
   9.6227531  35.6945915  18.3569908  45.5061569   2.4719248  47.1211967
  45.3978043   1.9355991  46.3358002  45.8275185   1.8620181  47.7852554
  37.3508301  52.3102608  19.6680489  37.1316338  52.3262444  20.5996761
  37.5739784  53.2172890  19.4589081  44.4569740  36.2173309  13.8351812
  43.7285042  35.9393234  14.3904047  44.2423325  35.8729935  12.9682360
  55.8651199  15.9255161  20.5602207  55.2771454  15.4147692  20.0037556
  55.3205376  16.6390190  20.8927498  36.3871078   9.3518286   1.1932163
  37.3213158   9.1756210   1.3047299  35.9658279   8.5023804   1.3243471
  48.2232170  35.3540001  83.9261322  49.0316086  35.5747833  84.3887177
  47.7956314  36.1970215  83.7753906  18.4741821  66.0945053  48.8151665
  18.2352409  65.2537994  49.2054977  18.3887749  65.9536819  47.8722420
  17.4908180  16.9843254  12.2646456  17.5388126  16.8218956  11.3225498
  17.2450142  17.9066353  12.3364553  62.2857971  67.5422897  72.8537369
  62.0417480  68.4049225  72.5182724  61.5740929  67.3066025  73.4488525
  84.0014038  16.0941143  23.3972855  83.3566208  16.7762985  23.2099018
  84.0340805  15.5692368  22.5974941  39.1721153  66.7013321  18.8026447
  39.2450829  66.3856430  17.9019508  38.2320976  66.8185654  18.9399414
  23.1767998  65.7124634  29.2358971  22.4232903  65.4580307  28.7032452
  23.9314003  65.5800552  28.6620693  52.0175629   8.7448416  21.8376503
  51.4987068   9.2566805  22.4581680  52.8901215   8.7065954  22.2293320
  12.6400213  31.3510838   0.3159364  12.3447552  30.6519871  -0.2674286
  12.4861879  31.0090981   1.1966254  67.6999435  68.4478073  72.2879639
  68.1613846  67.8586655  72.8848038  66.8054581  68.1081696  72.2601547
  73.8610153  67.6295242   5.8341727  73.6629562  67.0614166   5.0896907
  73.9172134  68.5075531   5.4571500  69.8481750  30.2420807  23.4478703
  69.4311905  29.7154655  24.1298065  70.5187225  30.7450218  23.9100857
  50.1077271  53.9227333  51.6570168  49.2772827  54.2793312  51.9723511
  50.2916946  53.1892776  52.2438965  73.1917114  42.5293770  42.7360077
  73.5078583  42.2939873  43.6082916  73.7308350  42.0116425  42.1380692
  83.5947723  55.9935799  20.4915390  83.2517319  56.7491913  20.0144558
  84.0874405  56.3732262  21.2191200  73.4638824  48.8336716  53.6153526
  72.7691727  48.1903267  53.4749184  74.1183929  48.3693581  54.1371422
  55.5718536  56.4643707  62.8533554  56.2241402  56.2465401  63.5191689
  56.0250626  56.3299103  62.0210342  61.9207039  19.0024719  39.2861328
  61.5878258  18.1136551  39.4103508  61.6538658  19.2360954  38.3970604
  36.0494499  64.9008484  11.2294483  36.3962059  65.6872940  11.6507559
  36.3848419  64.9412384  10.3338413  56.7755775  58.9579811  15.1625462
  57.4889374  58.4557076  15.5563402  57.0276337  59.8725243  15.2902327
  79.3638000  41.7482414  64.9863358  79.5992355  42.5571709  65.4406815
  78.6844482  41.3549156  65.5340652  28.2042313  31.2337017  11.7926502
  28.9846516  31.1994228  12.3458242  27.7849388  32.0632858  12.0211496
  66.4681015  11.2241364  30.4397373  66.4273758  10.6001148  31.1644249
  66.8096848  12.0268202  30.8337593   5.8332329   9.0175304  75.9817963
   5.9998245   9.8868971  76.3460541   4.9409070   8.8089428  76.2583466
  85.5610580  49.9621811  40.0124321  86.0791168  50.5728416  39.4880791
  86.2002029  49.5328484  40.5811195  69.2455826  38.3705254  84.0288773
  70.0264511  38.8436775  83.7414703  69.3268509  38.3306961  84.9817886
  50.7486267  60.0849838  87.7611160  51.0624771  59.2090454  87.5364838
  50.7525711  60.5610809  86.9307251  84.9724045  71.2624664  44.4689598
  85.3537445  70.4251938  44.7331238  85.5661087  71.5941849  43.7953835
  66.1403732  52.1296120  54.5613594  66.8187408  52.1421814  55.2365570
  66.6238861  52.0751648  53.7370491  82.0913391  14.2876472  28.8768559
  82.9487152  13.8693752  28.7982235  81.5261841  13.7880840  28.2875595
  70.6140213  52.2721062  45.3323441  70.0859451  52.8409805  44.7722092
  70.2305679  52.3711853  46.2037697  62.0959167  44.1259193   1.6606781
  61.5744896  43.6228714   1.0351468  62.4738235  43.4664536   2.2425084
  24.9775162  50.3050270  14.0782557  24.5583630  49.6411819  14.6258459
  24.2610073  50.6809273  13.5668392  70.0538025   6.9523158  40.6846085
  70.1919556   6.1961846  40.1141624  70.6991730   6.8461623  41.3835106
  28.1301956  13.8220186   6.5597343  27.8324356  12.9472256   6.8093505
  29.0413208  13.8570852   6.8510275  80.5304413  68.9386673  53.7852097
  79.7211838  68.4632645  53.9731712  80.2426071  69.8259048  53.5702820
  81.7976456  10.7747746  33.6192360  81.0244293  11.0561743  33.1301727
  82.3197327  11.5706415  33.7205200  16.1937141  11.7656651  54.7571030
  16.1691608  12.4155102  55.4594765  15.7255106  11.0104675  55.1130447
  62.5251312  34.6732178  83.0372086  63.3479118  34.1876106  82.9784622
  62.7324104  35.5390587  82.6856613  21.6187038   2.4906254  24.4285488
  21.4916611   1.5532620  24.2821178  21.6546745   2.8676560  23.5494671
   9.3219614  68.7603226  31.3585987  10.2755117  68.6904221  31.4042778
   9.1006346  68.4476471  30.4813957  85.4285202  52.0834351   9.5609770
  85.2650146  52.0577431   8.6181965  84.7194138  51.5649872   9.9412613
  58.4096680  69.4721756  82.3926620  57.6225586  69.4214478  81.8503342
  59.0334930  68.8855896  81.9648743  83.4217987  39.2496414   8.6883059
  83.8866119  38.9492874   9.4693127  83.4209518  38.4916534   8.1037655
  31.2334995  38.8223801  81.8121109  32.1670265  38.6494904  81.9340591
  30.8267956  37.9558907  81.8170700  49.5032120   7.4966908  32.4949570
  50.1748161   7.8914714  33.0511322  49.9641914   7.2693543  31.6874638
   9.5180397   3.5685899  33.9405022   8.9699459   3.2203376  34.6437416
   8.9877291   3.4658217  33.1502876   6.8643079  39.2286797  85.4128494
   6.7971950  40.1835213  85.4124680   7.7461576  39.0506897  85.7397995
  10.9778776   6.4574718  32.6434097  11.1350174   7.0071220  31.8756714
  10.7290049   5.6067638  32.2820396   6.8938856   3.5418351  11.2124739
   6.9937558   4.4751477  11.4000521   6.2463913   3.2376609  11.8484468
  63.5177803  11.9528465  18.8016129  63.5077095  11.0464277  18.4941463
  63.9161911  12.4448757  18.0836945  42.0023766  43.8875771  62.8231544
  42.2171974  44.5165710  63.5119591  42.8434410  43.6837578  62.4141312
  20.6186390  54.2815361  37.6597977  19.7964554  54.2729759  38.1498756
  20.6171188  55.1233253  37.2041435  23.5301056  11.6865654  68.8659363
  23.2586060  12.5595026  68.5822144  24.1290131  11.3877888  68.1816330
  35.9625511  48.7087364  66.3579712  35.4360733  49.0186920  65.6211014
  36.8474312  49.0203590  66.1679535  60.0852470  36.7939911  20.8893814
  59.6287422  36.7131310  20.0519447  59.4239426  37.1368065  21.4905338
  41.2493629  66.4478149  52.9197578  42.2044067  66.4561462  52.9834137
  40.9483032  66.6095276  53.8138733  50.4300308  47.6705666  84.2982101
  50.9743309  47.7166328  85.0842438  51.0553474  47.6711807  83.5734940
  55.2564049  36.8997917  31.7979412  55.2447357  37.8326721  31.5838604
  56.1557999  36.6245270  31.6203289  15.7881117   4.7335219  39.1839066
  16.5951729   4.4201889  38.7756119  15.5205936   5.4781375  38.6451912
  19.0039062  61.5281715  50.8385620  19.4826126  61.3937683  51.6564903
  19.5698719  62.1010742  50.3211670   0.1855299  35.7433662  61.6616020
   1.0914574  35.6940804  61.9667206  -0.3114161  36.0221405  62.4307327
  27.5327702  43.3109322  67.5743179  27.7056522  43.3294716  68.5155945
  26.5782795  43.2867889  67.5065384  43.8832512   4.8102236  24.5007973
  43.1260986   5.2747002  24.8574638  43.5506630   4.3789024  23.7136650
  15.0607262  33.9898643   8.7303667  15.5524101  34.3075142   9.4877157
  15.7280245  33.6334839   8.1439056  29.4696388   8.1292095  50.7112350
  29.1267014   8.9033871  50.2648315  28.9827976   8.0921545  51.5345497
  74.5918198  37.2007065  45.4011803  74.4251785  37.1341171  46.3414078
  74.3773727  36.3332939  45.0579033  59.9030418  26.5441170  88.8922882
  59.1498413  26.0271797  88.6064682  60.6576500  26.1051960  88.4996719
  18.6168652  11.3318844  81.7859421  18.9716644  10.5874462  81.2999802
  19.0573292  11.2955160  82.6350021  81.8063736  32.6103020  53.7836914
  82.4579926  31.9095764  53.7590981  82.3215561  33.4141846  53.8514290
  83.5847397  61.3139648  54.6192970  84.2362595  61.4989891  55.2957001
  82.9761276  62.0513573  54.6648750  42.2164574  30.6504631  10.2260351
  42.1604156  29.9276466   9.6010323  42.7654419  30.3130455  10.9338484
  39.4017220  52.2033157  13.8096972  39.1494751  51.8243256  12.9676933
  38.5776176  52.5014191  14.1946850   1.5708133  31.0229378  65.6160660
   0.8399403  30.7035751  66.1452713   1.1774465  31.6690044  65.0294724
   7.5848751  49.3868675  35.8843765   7.3648500  49.3303490  34.9545212
   7.0352869  50.0960693  36.2178688  61.9367294   4.8646507   5.8296127
  62.3252296   4.2939396   6.4926271  61.9643860   5.7383327   6.2196732
  30.3053265  30.8230648  13.3667612  30.5864220  30.8550739  14.2811975
  31.0625572  30.4756565  12.8954401  31.0094891  21.1948833  79.7233963
  30.4431229  20.4415092  79.8903961  31.2984543  21.0812569  78.8179626
  42.0856400   4.6151757  57.3900795  42.0170403   4.3543215  56.4716682
  42.9351768   4.2763925  57.6724739  47.8522339  24.0931549   6.0599861
  47.5294571  24.7641182   5.4584413  48.4004822  23.5276012   5.5161080
  10.5313797  56.6446915  86.9466629  10.2215395  55.7459221  87.0582275
  11.0610409  56.8138924  87.7258072  85.3191147  13.2120438  50.6599693
  85.7741852  14.0491743  50.5685425  84.5125427  13.3216276  50.1563225
  45.6008263   4.5182991  16.4017334  46.0458641   5.0826297  15.7695112
  44.8377991   5.0250678  16.6795921  49.3244820   3.6854939  63.6116142
  49.2692451   2.7587516  63.3785286  50.2270660   3.8047431  63.9071732
   4.4596128  51.6933441  30.1926613   4.4587874  50.7431946  30.0767040
   4.2758646  51.8212128  31.1233158  39.6343040  66.0296402  16.0116482
  40.3099251  65.7863693  15.3787279  39.1929054  66.7802582  15.6141930
  24.0065174  51.8835754  34.2937927  23.7049618  52.1051826  33.4127808
  23.8812237  52.6869011  34.7989693   1.7604859  43.8580170  77.3635635
   1.5534805  43.8182068  78.2972641   1.8082557  42.9421158  77.0895615
  76.2307053  33.3002739  23.7670250  76.7654266  33.3513794  24.5592976
  76.6976776  33.8383560  23.1277771  58.1472435  44.8296051  14.5836067
  58.9984589  44.4389725  14.7812681  58.3268929  45.4509087  13.8779602
  59.4253578  67.8326950  19.1424065  58.5223770  67.6325836  18.8957939
  59.7013931  68.5030441  18.5173759  75.2548294  62.1082764  40.4966202
  75.9534378  61.9932365  39.8524590  74.8823929  61.2331772  40.6048965
  75.7820816  46.6390724  61.5883751  75.7897644  46.2528038  60.7126083
  76.3543549  47.4031448  61.5181732   9.5199261  15.5873623  86.6005859
   9.2664118  15.7950993  85.7012482   8.7449141  15.7960176  87.1221695
  36.5692749  40.4521294   0.5158485  36.4977112  40.8698654  -0.3424087
  37.4512329  40.6715584   0.8162363  43.1890717  47.6243248  29.8474846
  43.6730232  48.4335136  29.6824398  43.7016716  47.1709404  30.5167484
   7.6303782  66.0723114  31.6161613   7.8296299  65.1836548  31.9108105
   7.6288929  66.5956879  32.4175987  32.8138084  61.5124245  12.3619537
  32.0997620  61.6439972  12.9856987  33.0411835  62.3947296  12.0685768
  29.0563736  40.1458130  82.4303589  28.5212250  39.4887352  82.8754425
  29.8662243  39.6857033  82.2097321  63.9164505  55.6718407  57.7250137
  63.7718201  56.3874283  58.3440857  63.4715462  54.9211731  58.1184502
  59.5455856  22.6268082  16.2894669  59.2924042  23.0838394  17.0914974
  59.1184769  21.7727280  16.3554821   0.4718894   0.3455423  43.1463661
   0.6827562  -0.0031495  42.2802353   0.8085255   1.2414836  43.1323242
  16.4302769  42.8352661   1.6439805  16.1430836  43.6489830   2.0582464
  17.3675022  42.7882118   1.8327247  56.1655350  69.0908661  54.0037422
  56.3126869  69.2708817  53.0752106  56.5208244  69.8563995  54.4553680
  13.1748409  12.3183441  57.6276627  12.2302132  12.4564476  57.5581093
  13.3285322  11.4851789  57.1821899  78.5831070  50.4854584  31.8926373
  79.3269424  50.4839287  31.2901974  78.2157593  49.6043892  31.8218689
  52.4245224  63.2900581  32.2230911  52.5374603  64.1232529  32.6805382
  53.3162041  62.9737129  32.0779686  26.2961941  17.8673859   9.1723385
  26.4052505  17.4269333   8.3295221  25.3530788  17.8444328   9.3343172
  86.8660049  69.0016556  33.6315689  86.4881973  69.7362518  34.1151581
  87.1136856  69.3740616  32.7852821  81.6311722  41.1842461   4.7204924
  81.5236969  41.2459183   5.6696382  82.5120392  40.8289986   4.6017737
  42.7212639  36.2754440  72.6989365  42.9256744  36.9339180  72.0349579
  43.3554955  35.5752258  72.5450592   2.3114483  15.9274321  76.3490677
   1.6949658  16.4642086  76.8471146   1.7849227  15.5488768  75.6450119
  64.7587814   8.8096571  14.1396246  64.0786591   8.1391220  14.2032089
  65.3726273   8.5955620  14.8421850  30.4852695   0.5088516  27.8687859
  30.9767628  -0.2145124  28.2579002  30.7841816   0.5400230  26.9599895
  81.4219360  66.3189392   9.7325420  80.9402618  67.0793533   9.4069853
  81.5955811  66.5210419  10.6519060  19.5424080  21.9757957  51.4419518
  19.4859924  21.3650970  52.1768684  18.6327133  22.1252747  51.1843796
  15.1860352  62.0716248  43.7338104  15.5716238  62.8575630  44.1209183
  15.8028975  61.3717575  43.9480591  79.8983765  67.5342102  15.2381496
  80.0720367  66.6962738  14.8092756  79.4487610  68.0551682  14.5728054
  56.1464119   0.8549095   4.0478754  56.6850853   1.5753199   4.3750935
  56.4766731   0.6909453   3.1645436  82.0332794  13.1785955  59.8818550
  82.5999908  12.5463133  59.4399414  82.5555115  13.9796658  59.9242020
  63.1012039  15.9149952  41.6795120  62.3622284  16.4434090  41.9810524
  63.4023819  16.3557224  40.8849792  10.5559702   2.9626243  36.3203087
  10.0813274   3.7562416  36.5675278  10.4725771   2.9206238  35.3676720
   2.5911458  19.1441784  79.9976425   3.4092226  18.9863777  79.5263901
   2.3457973  18.2867661  80.3453217  63.8388100  18.6650181  84.1070786
  64.5469971  19.1759930  83.7151489  63.5061378  18.1266079  83.3889771
  86.1038666  41.1945724  78.5770416  85.6800385  40.6438484  77.9187775
  85.9440308  42.0900536  78.2790375  73.7580795   6.8663230  73.1623993
  74.3028641   6.0920954  73.3038864  74.3830872   7.5855484  73.0711899
  77.8848114  50.4195557  77.9021835  77.3343964  51.0115356  77.3895035
  78.5130920  50.0694504  77.2705765  48.4837837  28.9198666   4.9540143
  47.7484360  29.4576645   5.2477241  48.6259956  29.1843834   4.0451469
  81.2530365  27.0375080  88.6187286  80.4918900  26.7659359  89.1316986
  80.8819199  27.4801350  87.8554611  53.0461197   3.7858055  72.9096909
  53.8427963   4.1528912  73.2928162  52.3388252   4.1215258  73.4603806
  49.2327156  30.0079346  24.9236622  48.6114883  30.4843597  24.3729095
  49.5854874  30.6717415  25.5162373   8.7810431  47.3823891  76.2108536
   9.2775574  48.1792793  76.0246582   8.1959305  47.2837601  75.4597549
  60.3862267  30.2309513   3.5273030  61.2061195  30.4823437   3.1020896
  59.7385864  30.8445454   3.1804619  85.5936050  55.5953789  58.2314720
  85.4560242  55.4392242  57.2971687  86.0388031  56.4418755  58.2698135
  38.5829926  65.3767929   6.2995315  39.0598183  64.8122330   6.9079213
  38.1007271  64.7701416   5.7377262  39.4574013  44.7620583  64.7871780
  39.4788322  44.2877541  63.9560280  39.5646896  44.0830460  65.4532623
  34.4772911   6.9384818  37.1725845  35.1914024   7.5043864  37.4658928
  33.6957092   7.4876127  37.2343674  74.1743164  67.0745087  32.1918907
  75.1204071  67.2086563  32.2480278  73.8506012  67.8443146  31.7240982
  55.4805565  17.1053600  14.0758934  55.5586777  17.6229362  14.8772945
  55.3229637  16.2122231  14.3820028  72.1038208  30.8464375  27.5654678
  71.1676102  30.6635551  27.6447620  72.2148514  31.1395168  26.6610298
  32.3430672  56.7425003  33.6297607  33.1288414  56.2059021  33.5255928
  32.2530861  57.2002411  32.7939301  46.5100098  57.7574234  15.0096655
  46.6929588  58.6153526  15.3927088  45.7374687  57.8992004  14.4625740
  53.3099365  33.9701996  75.3410492  52.4178162  33.6477203  75.4689560
  53.1976738  34.8363304  74.9493256  47.0392342   5.1928210  19.2171097
  47.8995895   5.5197997  18.9542217  46.4640160   5.4171028  18.4856377
   9.7433624  70.1119232  84.9857025  10.3181791  69.3542938  84.8770142
   9.7598524  70.2921906  85.9256287  45.5087280  37.4706078  73.3578491
  44.6079178  37.2336884  73.5783997  45.4251366  38.0538597  72.6034851
  67.8322067  30.0741367  48.2315674  68.6855316  29.9606476  48.6501198
  68.0057144  29.9550381  47.2977867  71.7486496  45.9095039  15.5776129
  72.2750015  46.5026207  15.0415173  71.2138367  45.4274673  14.9468613
  47.8161736  69.4147797  62.4487572  48.5333443  69.7321091  61.8999405
  48.2415848  69.1291962  63.2572746  84.6206741  35.0190773  85.2167053
  84.2896271  35.5049019  84.4613113  83.9361038  35.1110725  85.8793793
  63.0928841   5.2769842  47.9862328  62.7883873   6.1094842  47.6250458
  63.9631920   5.1552882  47.6067772  54.1909256  50.0490112  83.2381592
  54.9817009  49.8688087  83.7465210  53.6435661  49.2738800  83.3638535
  62.3803215  19.0289593  74.4348755  61.7965660  18.2937546  74.2479553
  63.2107124  18.7854805  74.0257263  66.4656372  59.7629623  52.6241837
  66.5718384  58.9515266  52.1276665  65.8381042  59.5422211  53.3124428
  55.5101395  55.3284683  23.1760597  55.0827560  56.1076736  23.5316124
  55.0344772  55.1427879  22.3664303  59.5130081  67.6477356  78.5446396
  59.7387428  67.5660629  79.4712524  58.6653137  67.2103195  78.4651794
  63.1716766  58.5494957  86.8996429  64.0845490  58.4697952  86.6229858
  63.1690674  58.2454796  87.8072815  80.9576035  41.8916016  74.1395950
  81.6982498  41.9634132  73.5374908  80.1856232  41.9933281  73.5828781
   5.4707885   3.4425170  43.3335838   4.8663726   4.1034541  43.6713333
   5.9683118   3.1587143  44.1004982  22.9458714   0.5498340  55.4772224
  22.3478489   1.0164460  54.8933754  23.1351299  -0.2699951  55.0208321
  58.8453903  13.2309799  18.0108910  58.9117432  13.2730103  17.0569191
  59.6485405  13.6460514  18.3253651  21.4010983   1.7311614   9.7541466
  21.6076717   1.6622078  10.6862431  20.8653088   0.9596701   9.5698538
  58.4024048  52.8177261  64.4523773  58.6813240  52.2148285  65.1415482
  57.5842056  52.4445839  64.1244278  83.2663193  68.1581268  49.1416206
  83.1427841  67.2251282  48.9670181  82.6981659  68.3389511  49.8904419
  20.5892944   5.7467504  58.4704247  20.5455608   6.3223686  59.2339554
  21.1625175   6.2060909  57.8567047  40.9761467  32.9183807  10.9070930
  41.3946953  32.1413078  10.5366850  41.3416672  32.9899826  11.7888517
  50.9882164  30.5269127  10.8226557  50.6812248  29.6566772  10.5683289
  51.8428726  30.3713799  11.2246561  53.5246010  41.4749794  71.7592163
  53.0815201  40.7338600  71.3461151  53.7190704  41.1734276  72.6466141
  58.4581413  41.7347221  73.8769989  58.4378624  40.9524689  73.3257217
  58.6470184  41.4040260  74.7551727  42.8816376  45.4509735  24.8701363
  43.4899445  46.1047325  25.2148037  43.4072266  44.9323883  24.2609921
   6.5914011  54.8054161  42.9611549   5.9524264  55.0411682  42.2885742
   6.1322136  54.1765366  43.5178337  64.5050888  41.8378334  28.1408386
  63.9827995  41.9623756  27.3484154  65.3636475  41.5609665  27.8207607
  15.8562679  59.7195854  33.5980453  16.5276623  60.2038231  33.1174469
  16.1066723  58.8010063  33.4993553  49.3951988  17.4733353  59.9950256
  48.8849525  18.0980911  59.4796982  49.9816666  18.0182152  60.5198097
   9.5445061  17.4779797  29.3898792   9.6574659  17.5272694  30.3391113
   9.5972195  18.3870602  29.0948792  48.6595917  11.5742388  61.2677841
  49.5133057  11.8903131  60.9719772  48.8387337  11.1507158  62.1072884
  49.4615097  11.6929998  76.2569275  50.0274467  12.2286835  75.7010651
  48.5976562  11.7546387  75.8492661  14.5871630  70.1088562  67.5076370
  13.8015108  70.4748383  67.9138870  15.0995874  69.7684402  68.2409668
  54.9027901  32.2882538  23.2935219  54.7696648  31.3648129  23.5074596
  55.2932167  32.2777748  22.4196281  83.7362671  27.9715729  52.4139023
  83.7728119  27.0703640  52.0934067  84.3299561  27.9830475  53.1646576
  72.8032532  35.1772118  62.5902824  72.8167343  35.2607727  61.6368294
  71.9200058  34.8677559  62.7911263  14.2837067  50.7074471  80.7727966
  15.0699196  50.7106094  81.3187790  14.5662489  50.3116684  79.9483185
  43.5091209  22.4073391  84.3745346  44.2510948  22.6676884  83.8287125
  42.8106804  22.2093105  83.7506790  45.8394890  11.0231972  78.7302475
  45.7969170  10.3378706  78.0633545  46.2142334  10.5888214  79.4964828
   5.4972973  30.2791996  57.6413383   5.9356856  31.1193352  57.5063667
   5.1608829  30.3256321  58.5362701  66.8940048   4.4626751  86.0659103
  66.2789612   4.5387721  85.3364105  67.7328873   4.7462888  85.7024994
  57.5274277  54.2786407  88.1600037  57.0539246  54.2758751  87.3281326
  58.3809967  54.6566811  87.9484940   1.4851128  25.7015247  81.9949417
   1.9691563  25.6905785  82.8206635   1.8536234  26.4406452  81.5110703
  84.1507492  38.8823242  64.1475677  85.0261536  39.0872536  63.8190689
  84.1991577  39.0619431  65.0865173  17.1143532  19.5305328  79.7426605
  17.0677547  19.1781769  78.8538971  16.8259811  20.4390945  79.6555328
   6.9820833  14.5620604  22.9314423   7.6594219  15.2383833  22.9258347
   6.8070478  14.4060717  23.8594837  11.5363255   1.0710405  39.7432137
  11.1530704   1.8786021  39.4008789  10.7881422   0.5691406  40.0665550
  80.0875244  25.0557899  19.6714325  80.9705658  24.8323174  19.3772831
  80.0751190  26.0127907  19.6865482  58.4249306  26.6610546  32.2326546
  57.7723541  26.9429932  32.8736610  58.0905724  26.9799328  31.3943520
  73.6565018  26.6322727  29.5789051  74.4312210  26.7612152  30.1260986
  74.0056763  26.4900379  28.6990871  43.7685165  45.4474564  37.2632294
  43.3838806  46.2740250  36.9715614  44.3751030  45.2054291  36.5634384
  39.4034615  59.0273247  16.1602783  40.3381615  59.1115761  15.9719391
  38.9722290  59.5023384  15.4499035  79.1204681  69.2675247  60.3064728
  78.6195984  69.4035950  59.5022087  79.3970642  68.3521194  60.2643967
  12.2500477  56.2774429  37.3919144  13.1346178  56.0148468  37.1373329
  11.7907782  55.4522247  37.5478630  71.2883835   5.2395706  36.0071106
  70.7893295   4.7787175  35.3327293  71.1473618   6.1671529  35.8175430
  57.4126358  65.0581131  70.0276566  58.1314697  64.4683151  69.8003998
  56.8582344  65.0717468  69.2474747  53.8765144   8.2011356  81.9493790
  54.7676659   8.5501747  81.9334946  53.9286423   7.4373660  82.5239868
  73.7998505  70.0340500  13.8446598  72.8900986  69.8191452  13.6387329
  73.7852554  70.2750931  14.7708998  24.7103271  52.5459404  88.9091187
  25.3059292  52.0431213  89.4646912  24.9451504  53.4595566  89.0715790
  70.3620453   2.3183689  22.9339333  69.9490967   2.7257407  23.6953468
  71.2893295   2.2636995  23.1649971  37.4672318  48.1653366  70.7096939
  37.4451561  47.4737053  71.3710480  37.2923203  48.9696312  71.1983109
  67.3009338  18.2373199  63.4917831  67.9567032  17.7318211  63.9720612
  66.7387695  18.6079483  64.1720963  73.8015747  28.3208179  26.9920616
  74.3892212  27.6453285  26.6535149  74.3211899  29.1243401  26.9679661
  31.9746246  35.4865837  14.7843580  32.6731873  34.9462204  14.4152412
  31.3525505  34.8572998  15.1494064  65.0919342  37.6207504  89.4789047
  64.8284760  37.0923309  88.7255173  65.3845215  38.4494705  89.0996323
  73.0468979   6.6848636  20.6770134  73.2273636   7.6239805  20.7185135
  72.1675339   6.5935121  21.0438900  78.5950394  65.7203751  64.5495987
  78.1194077  66.0821686  65.2973328  77.9123154  65.4956970  63.9174271
  32.5177917  11.8878202  39.0409584  32.7061310  12.6194372  39.6287460
  32.9323349  12.1324596  38.2135887  85.5826569  31.6588650  15.2969542
  85.6902161  30.9105835  15.8840981  86.0210342  31.3937969  14.4883728
  62.0666733   4.6424041  66.0456238  62.1056366   5.2711310  65.3249207
  61.1514587   4.6555319  66.3257065  75.0756226  58.7527542  65.7963333
  75.1268158  58.0201225  65.1824417  74.1478577  58.9877853  65.8119278
  36.9799919   8.5775232  60.5616837  36.4622192   8.8756447  59.8138390
  37.7839012   9.0952644  60.5180511  50.7626686  56.4502831  27.2937775
  51.6413307  56.8186531  27.2016773  50.3557930  56.5844193  26.4378014
  11.6838455  24.9547939   7.8872638  12.2359219  24.3288269   8.3558874
  11.9300423  25.8071613   8.2465563  37.5699348  53.2392731  75.8192596
  36.6461449  53.2117119  75.5700989  37.8431587  54.1363106  75.6271591
   8.5404129  15.0094795  36.2610703   9.0931711  14.5243006  36.8736801
   7.9505782  15.5155468  36.8198395  19.8456059  68.5780869  64.3647690
  20.3240356  68.9212646  63.6100731  18.9549789  68.4413681  64.0417786
  31.0260887  51.8039589  50.0453873  31.2177906  50.9744530  50.4828796
  30.6042023  52.3378830  50.7185669   3.7631493  46.1848450  16.7545204
   3.5182903  46.5790634  17.5916996   2.9573791  45.7773094  16.4369030
   5.0877533  58.8207932  68.4330444   4.8989925  58.2508278  69.1785278
   4.3511248  58.6869354  67.8366470  81.4736633  29.1224232   6.6043139
  82.3623886  29.3053818   6.2994742  80.9070740  29.5239162   5.9455194
  68.8162766   7.4721022   5.8353591  69.5095444   7.2419262   6.4539313
  68.2358170   8.0502253   6.3304071  23.8245697  71.1492004  42.1314354
  24.2698040  71.9564362  42.3890572  24.3073807  70.8440399  41.3633232
  71.9575577  38.5769653  44.8888016  72.6473160  37.9989738  45.2149734
  72.0498657  38.5463943  43.9365540   5.8637538  21.3868599  61.9648590
   5.1783586  21.6989555  62.5556717   5.9792500  22.0983009  61.3349838
  86.2934341   2.7947209  16.2264996  86.3471756   1.8831800  16.5136185
  87.2031784   3.0535655  16.0795231  20.9107456  46.7403450  77.9580536
  20.8503647  46.0127907  77.3389816  20.4413776  47.4573059  77.5315628
  86.8063278  25.5572052  22.0386925  85.9382095  25.9376163  21.9049091
  87.3865814  26.3124161  22.1345787  37.8923988  62.3973503  82.7686462
  37.8468513  62.1286812  81.8510590  38.4106865  63.2020111  82.7571640
  10.6643591  11.9559937  24.7362518  10.3707590  12.7008085  25.2609253
  10.8515129  12.3288345  23.8747444  62.6408615  55.1953964  16.4220409
  63.2841682  54.8437805  17.0374699  62.6164093  56.1334381  16.6110153
  37.4540024  10.6524649  29.7437420  37.1592789  10.7675476  30.6471386
  38.0157013  11.4093361  29.5767956  69.1219559  53.8672981   0.9909607
  68.4864578  53.2458725   0.6356968  69.1708527  54.5617714   0.3340417
  73.1673660  33.9661217  84.3049469  73.8019257  33.3971176  83.8692856
  72.8322525  34.5294266  83.6073608  36.5018387  58.1032333   9.3651333
  37.0669632  57.9453239   8.6088724  36.9530525  58.7848778   9.8631268
  60.2367630  49.3004990  80.6990662  59.7546844  50.1274147  80.7057648
  59.5597420  48.6292496  80.6136475  68.0805130  47.7183762  81.3850861
  67.7007370  47.8579521  82.2525711  67.7657623  46.8534813  81.1221771
  80.6034927  31.7481709  33.3376465  80.1612396  32.4388084  32.8440208
  81.3549881  31.5095387  32.7949333  31.5840778  51.6854095  18.9465618
  30.8568687  52.1659622  18.5510025  31.8582954  52.2304153  19.6841297
  86.2699661  31.4106464  77.5326996  86.6319885  30.9834366  76.7563858
  85.5950470  31.9969215  77.1906433  23.1260281  62.0866127  57.2241631
  23.3405037  62.8911133  56.7519188  23.4418583  62.2401466  58.1146202
   0.1147637  23.9051552  34.7449913   0.1202102  24.0662289  33.8014565
   0.5911340  24.6471901  35.1173973   5.1766696  39.0253181  67.0838013
   4.5696073  38.3798332  66.7217789   6.0251503  38.5822487  67.0842819
  18.4606285  36.5230598  28.8991356  17.6638317  36.8011513  29.3508110
  19.1654358  36.7117882  29.5187016  18.1816826  43.1431580  70.3524475
  17.9727402  42.3507614  70.8471069  19.0676022  43.3735542  70.6322632
  17.0660400  63.7908058  65.7025604  17.4060516  63.1141129  65.1171494
  17.2095909  64.6106720  65.2298584  33.2891083  11.4185419  62.8631134
  33.4552536  11.7531958  61.9818459  33.4225616  10.4735479  62.7895699
  35.8270874  51.6196823  72.4577484  36.2561951  51.3163452  71.6576920
  36.5282440  52.0280609  72.9655304  43.2853928  37.7011261  24.5883884
  44.1059570  38.1786652  24.7103043  42.6216965  38.2573509  24.9962578
  17.2166042  43.6845436  20.5723114  17.3253345  42.8130112  20.1917343
  18.1004543  44.0517578  20.5862942   8.6870508  15.2424974  67.6932449
   8.9454670  16.0881310  67.3266983   8.4589911  15.4352770  68.6026764
  15.8594408   5.5452709  72.9916382  15.0986109   6.1177521  72.8934784
  16.1006298   5.3116508  72.0952682  54.2524567  16.3711243  53.3815498
  54.3705750  16.9432297  54.1398201  53.6505928  16.8499374  52.8116989
  37.1897049   1.7232627  76.2666092  37.1103134   1.8155657  75.3171844
  37.8426323   1.0336536  76.3864441  59.5748405  51.9411163  80.3766479
  58.6640854  51.6791229  80.2420273  59.5176201  52.7810097  80.8322144
   6.8285723  16.7577763  75.7164993   7.5374160  16.2108135  76.0550308
   7.2500100  17.5897789  75.5011063  74.2538910  22.9293861  44.8812943
  73.3856583  22.9270649  45.2842712  74.8607483  22.8755379  45.6195755
  50.7377014  68.0522232  30.8617592  50.6463737  68.8117828  31.4370575
  50.3066864  67.3403473  31.3347130   9.9428730  69.5377960  70.1984100
   9.2849455  69.5439911  70.8936234   9.9286337  68.6413422  69.8631516
  19.5917511  28.5197067  12.5084267  19.6203632  29.3038673  11.9602432
  20.3472443  28.6061878  13.0897894  10.9399843  26.3544197   5.6211896
  11.7256718  26.8627548   5.4198856  11.1557636  25.8901997   6.4299979
  27.1655369  71.2513809  47.3063583  27.7533913  70.7197342  46.7696877
  26.5251808  71.6003799  46.6863823  57.1120071  65.7777405   8.6891451
  57.3029747  66.3005447   9.4678860  57.7187576  66.1060028   8.0255728
   3.5792360  22.7058525  75.7910995   3.7668657  23.4756527  75.2540359
   4.4335423  22.4335365  76.1261139  64.1289139  18.4683304   4.4972935
  64.6353455  19.2802391   4.4735980  63.4240227  18.6438332   5.1206388
   2.7881553  25.2135868  57.0558052   1.8507322  25.4004784  57.1062126
   2.9066706  24.8137360  56.1942329   5.6721821  27.3461304  52.5481491
   5.4542217  26.7688656  53.2799187   5.3541894  26.8818169  51.7738609
  55.2440414  64.5833664  40.9283409  55.2983818  63.9617653  40.2024689
  55.3467636  65.4415359  40.5169716  70.9526291  17.5196457  34.5023079
  71.8260117  17.4254131  34.1220970  71.0411758  18.2358093  35.1311951
   3.4423504  46.2091560  50.9480247   2.8603432  46.5160828  51.6432190
   4.3235312  46.3801003  51.2804871  50.6960487  45.6011200  60.1576691
  50.1500511  46.3863182  60.1179352  50.8799629  45.3907013  59.2421722
  25.1400127  53.1126137  86.0839539  25.9293976  53.4000587  86.5427322
  24.5624828  52.7939453  86.7775955  15.4109144  26.9742374  67.9804764
  14.6748238  27.4517365  67.5978546  16.1804104  27.4937458  67.7476273
  51.8955956  51.6867180  37.8704300  51.3513756  52.4712219  37.8025131
  52.0868301  51.6080551  38.8050270  38.5461884  64.0235519  73.2366180
  38.9985809  64.8455276  73.4261703  38.0952225  63.8047867  74.0521011
  76.6319962  23.4915276   4.8952050  76.5863571  23.9496517   5.7344136
  77.3009796  23.9644775   4.4002171  50.9116898  61.9983482  29.2830429
  51.8098717  61.9212151  28.9612465  50.4021606  61.4245949  28.7108364
  59.1598816   9.3142624  59.0869942  60.0709877   9.5919752  58.9921532
  58.6480713  10.0922070  58.8654480  14.2951107   0.9043024  46.8284721
  14.6713114   0.0607386  46.5772667  14.7348928   1.1279421  47.6487236
  21.2377129   4.8299503  40.6535454  21.1376457   4.0246863  40.1458397
  20.3466072   5.0588603  40.9176712  21.9437141  36.2452774  23.8524399
  22.5131168  36.9140053  24.2329865  22.5165691  35.7458076  23.2705460
  32.6405449  63.8308334  84.6492157  33.2170067  63.3009033  85.1997604
  32.0086441  64.2104340  85.2598190  51.8307686  70.6548462  66.8029099
  51.9412460  70.5391159  67.7466431  52.3389587  69.9434204  66.4132462
  58.0730896  50.4272346  62.9230919  57.1485214  50.5486984  62.7071075
  58.0645447  49.9692001  63.7635460  55.5128860   0.8994666  17.0419903
  55.1074715   1.2507081  16.2492104  55.0721970   1.3558562  17.7587414
   5.2708621  69.7071533  14.6935568   5.3931813  70.5343246  15.1594543
   4.3657374  69.7383575  14.3837051  76.2146378   9.8299160  44.8045883
  75.7516708  10.5664597  44.4053459  76.9291763   9.6385078  44.1971130
  21.4149837  12.9552603  75.9601822  21.7515545  12.4291563  75.2348099
  21.1190929  12.3126917  76.6049957   1.1371289  52.3145790  15.8931904
   0.5982727  52.4835625  15.1203318   1.9084355  51.8612137  15.5529289
  19.7334538  40.6143608  68.1118546  20.6661606  40.8113441  68.0253372
  19.6093483  40.4485741  69.0463791   1.0004845  58.5294838  58.6148262
   1.7216793  59.1559944  58.5548744   0.2404756  59.0610733  58.8515396
  66.8758087  56.8929901  20.8138008  66.8279266  56.0443153  21.2539101
  66.6213913  56.7085991  19.9096413  62.2646141  61.2703476  52.3806877
  61.8962288  62.1036949  52.0873260  62.9699745  61.0884438  51.7597122
  34.8685913  52.3259239  80.6241531  34.9495888  51.9167480  81.4856949
  34.2922325  51.7397308  80.1338348  57.1423111  27.8412971  19.1260223
  58.0440598  27.8299980  19.4468861  57.2166252  28.1168766  18.2123661
  66.5246658  60.1757774  22.0972347  65.9345245  59.4795609  21.8087044
  66.0209427  60.6613121  22.7504978  11.8740053  32.6886826  17.6000881
  11.4522476  32.9629517  16.7857609  11.8743515  31.7323494  17.5593452
  64.5464554  53.5643196  22.2919331  64.5048294  52.7365570  22.7707958
  63.9006996  53.4687653  21.5918617  56.2049026  53.7206001  78.7143631
  56.0509720  54.0846062  79.5861664  56.9288750  54.2388000  78.3628540
  15.7556686  17.9721642  57.1585808  16.1898193  17.2965298  57.6794090
  16.4431095  18.6128712  56.9765053  17.4675388  59.3747864  51.7874336
  18.2214489  58.8120842  51.9641190  17.8151112  60.0740852  51.2338905
  62.6366920  16.7331409  47.9198723  62.4546623  16.1481285  47.1844444
  62.2678566  17.5751743  47.6530914  49.4465752  46.0169601  18.2957344
  49.9708252  45.2716293  18.0026989  48.9681625  46.2951164  17.5147190
  53.8987312  21.6395340  14.8115263  53.1526833  21.3341770  14.2953854
  54.6501007  21.1726665  14.4458599  71.0638504  20.8950367   7.5926175
  70.8695374  20.2225914   8.2455282  71.0156784  20.4357929   6.7541623
   2.3217444  15.2513962  59.5147133   3.1106660  15.0365505  59.0170441
   1.6591483  14.6429043  59.1877022  71.1368332  27.1417274  34.6523705
  71.0950775  26.3165627  35.1356812  70.9875565  26.8928585  33.7402229
  64.5677872  32.5708618  30.4346867  63.9803810  32.6353683  29.6816769
  65.2829285  32.0105362  30.1332798  86.0767593  69.8846588  57.8513947
  86.0556412  70.1764755  56.9400063  85.2355804  69.4470291  57.9823112
  67.6240463  34.2037697  28.3619328  66.8784790  34.7846336  28.5134506
  67.4717331  33.8412132  27.4892445  56.3549461  22.3407097  70.0678406
  55.6306152  21.7933884  70.3711853  55.9777985  22.8686790  69.3641129
  41.2287560  56.7391968  44.6421585  41.6131706  55.8627701  44.6239357
  40.3367996  56.6029091  44.9616470   8.7450600  59.2662621   6.7690711
   9.5137281  59.7801437   7.0166759   8.0485449  59.5855446   7.3427939
  11.0511932   7.3121686  16.2997475  10.7667475   7.4821663  15.4017363
  10.2412863   7.3029723  16.8098431  28.5424747   8.9483461  37.5951767
  28.7769623   9.0951147  36.6788216  29.3332214   9.1760111  38.0841751
  68.3482819  14.3171101  28.1291733  68.7001801  13.7302227  27.4598713
  68.9051895  15.0942602  28.0830555  60.3971100  42.5805626   0.1848809
  59.9556465  41.7320557   0.2219886  59.7897682  43.1853790   0.6109862
  18.9323940  51.0844879  71.3072128  18.2966366  50.4743958  70.9332733
  19.4477730  51.3825951  70.5577087  62.1113510  31.8025551   9.0488005
  62.9879570  31.6508884   8.6955404  61.5211906  31.4332943   8.3918467
  16.0827084   7.6601796  45.7775459  15.4047775   6.9885092  45.7033768
  15.7568970   8.2558489  46.4522743  86.4110413  57.3585892   7.3863544
  87.3356934  57.5577888   7.2394767  86.3896408  56.9424362   8.2480907
  66.0777054  60.0764313  32.2943382  66.7976074  60.0854759  31.6635551
  65.8836975  61.0008087  32.4496384  16.2018051  53.9784927   7.0315838
  16.7590504  54.6723022   7.3841982  16.8054066  53.4003830   6.5650158
   9.2994328  60.7609177   1.6909008   8.8827295  60.6787796   2.5487144
  10.1600237  60.3571320   1.8030297  87.0008011  43.9610023  64.0764313
  86.3365936  44.3195038  63.4877548  86.5555191  43.2478294  64.5339661
  28.1906471   8.0517654  74.7820587  29.0995617   8.3079147  74.9385681
  28.0952015   8.0771418  73.8299713  18.6378021   4.9893556  33.1254921
  18.2581177   4.4038572  32.4703102  19.2127781   4.4271164  33.6446457
   5.6164460  27.4988098  83.3599243   5.5798035  26.5429821  83.3241577
   5.7133555  27.7691193  82.4468155  66.4184494  23.6647091  76.0374298
  67.0632706  23.6316452  75.3307877  65.6540604  23.2083874  75.6856995
  45.5955963   9.2368345  12.2854338  46.2293091   9.1202793  11.5775824
  44.7976341   9.5313854  11.8464279  26.1714191  59.3976364  42.4406395
  26.0088348  60.3403778  42.4728432  26.1929054  59.1900635  41.5064659
   3.4691324  30.5321255  78.5805664   2.7338469  30.8921528  79.0765228
   3.0678880  30.1532688  77.7984543  68.9159851  23.1049194  42.0064774
  68.1977921  22.5770454  41.6575012  68.6350403  24.0100880  41.8724136
  11.1789932  10.9965105  39.3232269  10.6961565  10.2480621  39.6738319
  11.9828291  11.0272770  39.8420067  26.6825142  44.7006760  13.6575975
  26.3323784  44.8862648  12.7862806  26.2124653  45.3000603  14.2372742
  46.5380478  61.7159996  50.7532768  46.9444847  62.5600357  50.9498520
  45.8339195  61.9262886  50.1399155  33.4297371  69.4593048   3.4980540
  33.0563087  69.8815536   2.7244356  33.8911552  68.6944046   3.1541786
  69.8743668  19.1643867   5.5628490  69.4244385  19.8379116   5.0527945
  69.2386780  18.4521618   5.6326013  62.1546593  23.0834351  69.1682968
  62.0722771  23.8909340  68.6609650  61.2970772  22.6649151  69.0933151
  70.8424988  67.7363663  83.9326019  71.6339874  68.1210785  84.3091278
  70.4662857  67.2181473  84.6440506  42.7450638   3.3844583  34.1866760
  43.6497192   3.6564956  34.0323029  42.7560387   2.4352868  34.0634499
  31.3077431  12.9165325  10.7661028  31.6638870  13.2864847  11.5738945
  31.7276402  12.0597620  10.6895466  24.5594940  59.1340141  65.8060379
  25.1106777  59.6661949  66.3798065  24.9780331  59.1954803  64.9473877
  77.2226562  57.2520485  35.9567375  77.0284882  56.9905243  36.8568115
  76.4077911  57.0935478  35.4801865  42.5665627   4.1528759  49.0753212
  41.6451149   3.9837348  49.2716827  42.5794106   4.3513355  48.1390114
  68.0820694  43.9847298  55.3996353  68.6255035  44.1686516  54.6334190
  68.7055130  43.9026566  56.1213112  25.3411007  58.2278824  57.0611610
  25.9873409  58.3884125  56.3735313  24.6186123  58.8205910  56.8539352
  51.9399376  10.1617823  84.2268524  51.4918060   9.3367262  84.0405960
  52.4760475  10.3237104  83.4505844  34.4823799  16.1378040  42.4075813
  33.7781029  16.2316704  43.0489960  34.7908363  17.0315208  42.2580490
   7.7008343  20.2241688   2.8409019   8.4722490  20.1421986   3.4016440
   7.3950300  21.1198978   2.9836836   2.6112061   0.3581918  32.4064560
   3.1271989   1.0060391  31.9265842   2.1688886   0.8624295  33.0893402
  38.1134987  64.0795441  88.9383392  38.6162529  64.8720322  88.7500839
  38.7310181  63.5064201  89.3926773  56.0678978  62.7221527   7.1144156
  55.7457466  63.4574280   6.5930529  56.0533524  61.9775772   6.5130625
  55.2434006  24.1193199  59.2026596  55.1779518  23.1656914  59.2530746
  56.0599785  24.3276806  59.6565514  74.9547806  50.0011101  47.2082558
  74.9811096  50.4061127  48.0751534  74.9838486  50.7383690  46.5984726
  80.2086792  12.1955795  57.9176483  80.4868927  11.3018484  57.7174606
  80.7503281  12.4536581  58.6634636  55.0129814  51.4669685  52.8908195
  54.3036842  50.8270302  52.9508858  54.9368019  51.8267097  52.0070724
   3.4467688  11.1863832  77.1066055   2.5884831  11.3994389  77.4729156
   3.8135893  12.0319653  76.8484116  44.2430038  39.5460472  16.5409431
  43.7807198  40.3722305  16.6821747  45.1698952  39.7844734  16.5568104
  11.9196520  52.3387985  59.2781067  12.4617195  52.9173851  58.7417984
  12.5477524  51.7996902  59.7588196  71.3357315  18.0601521  67.6346207
  71.6466370  18.5801315  66.8935471  71.1214447  17.2075863  67.2558746
  63.7644844  45.3458061  31.8200874  63.2692108  45.9743080  31.2948074
  63.7536812  45.7117004  32.7045288  76.3011627  51.6015129  79.8563385
  75.9630814  52.3480148  79.3617020  77.0269928  51.2719917  79.3264236
  31.5049133  22.7177639  19.8103695  31.8524990  23.3163223  19.1492023
  32.2188530  22.6152821  20.4396706  76.1650085  12.9884672  67.3270950
  75.5766220  13.4068785  67.9555664  76.4092560  12.1610737  67.7418213
  75.5860138  60.0850677  45.4185753  74.6913071  60.3485069  45.2033272
  76.1230850  60.4754829  44.7291031  81.8855515   7.2004542  87.0435638
  81.2130890   7.6250243  86.5108643  81.7325363   6.2636213  86.9204254
  78.1582413  49.2150917  27.9415951  78.0405426  48.8722725  27.0556774
  77.2767944  49.4609947  28.2223301   8.8965969  17.7445545  78.1716766
   8.5226994  17.6460190  79.0473022   9.2840948  16.8907146  77.9792252
  56.3161049  22.2859573   7.0892038  55.9298401  22.7559757   7.8281999
  57.0823631  21.8470840   7.4586196   7.5402522  21.0835361  29.5333462
   7.5790229  20.1292076  29.5965042   6.6109591  21.2779503  29.4114895
   9.6425114  33.4129066  24.8233452   9.4068089  33.4013939  25.7509995
  10.4124241  33.9799042  24.7788658  83.9907761  24.2055550   1.3470943
  84.9178009  24.1650524   1.1120929  83.9830780  24.5808582   2.2276170
  71.8263931  48.9580650  75.3786926  71.6652451  49.1001511  76.3114700
  72.7420502  49.2071381  75.2531586   2.6371579   2.4106381  22.3172684
   2.9413123   2.6981199  23.1781254   2.2458217   1.5516458  22.4760761
  68.0912399  22.4053326  47.2395172  67.9167023  23.2380028  47.6781807
  67.7757797  22.5350456  46.3451500  74.8993378  10.7186670  10.2335949
  74.1174240  11.2359877  10.4265156  74.7325821   9.8702898  10.6443014
   7.5408306  25.9415474  50.8492775   7.3253164  25.6397381  49.9668388
   7.1011915  25.3196888  51.4291382  49.8320122  42.1187096  77.1955719
  49.4650574  42.3415375  76.3400497  49.5888252  41.2026215  77.3292542
   3.9073298  17.0078239  70.3869019   3.6643710  16.7762928  69.4904633
   3.5465605  16.3015366  70.9228439  32.2749557   7.8193474   2.6982496
  31.3605156   8.0388145   2.8767662  32.7763519   8.5052938   3.1390584
  33.5650330  24.5895119  14.2511263  34.2177734  23.9094830  14.4176254
  32.7985153  24.1128826  13.9325209  60.1469841  46.6016235  24.9216213
  59.5054550  47.2154808  25.2791862  60.3918076  46.9767456  24.0757046
  35.3438072  65.8028793  84.6954803  34.7099648  65.0863495  84.6630096
  35.1063766  66.2973175  85.4799500  28.8910217  30.7258453  77.3535080
  28.7514229  30.3631992  78.2282791  29.7673969  30.4291019  77.1082611
  38.8329010   8.1920719  86.8575058  39.5778465   8.1774321  87.4583969
  38.9636726   8.9820871  86.3330917  80.3340988  18.6256618  79.9744644
  80.3999786  17.6788311  79.8503494  81.0128250  18.8307304  80.6175079
  27.0784874  34.4142189   1.2855480  27.9195423  34.8075333   1.5182767
  26.6963310  35.0227165   0.6531547  64.0305862  36.1866531  78.7575760
  63.2923393  36.0122299  78.1737976  64.7795258  35.7754135  78.3260651
  64.9507065  10.7996778   1.2669036  64.3058548  10.1044636   1.1362135
  65.6575165  10.5885086   0.6569362   8.1555452  58.7626228  64.3513031
   7.6662092  58.2329636  63.7218246   7.5814910  59.5058937  64.5363541
   2.8757761  22.3175449  80.8320084   3.5306742  22.9135990  80.4686127
   3.1628382  21.4478436  80.5537109  32.2245255  48.9235268  10.0839176
  32.3417435  48.9147415  11.0338726  32.6785583  49.7147026   9.7938700
  48.6002197  42.6979179  13.7594347  48.7285423  43.0056915  14.6566753
  48.6657410  43.4882660  13.2234392  83.7501602  15.9677839  59.0599098
  84.5787125  16.3318119  59.3717194  83.8612671  15.8972263  58.1118011
  47.1910591   8.2741146  87.9095230  46.4573898   8.5023060  88.4803925
  47.5784264   9.1158237  87.6693039  58.3036232  38.4957123  21.9810390
  58.7160683  39.3540268  22.0780506  57.7310257  38.4175110  22.7440891
  59.2841682   2.4362419  57.3913383  59.7723618   1.6514720  57.6404037
  59.1668892   2.9157062  58.2114563   9.2063379  64.5134583   1.5394032
   8.2882738  64.2731628   1.4143059   9.5297594  63.8922157   2.1918516
  79.0040817  23.6947422  42.7436371  78.2928925  23.6112251  43.3788300
  79.5802460  24.3625069  43.1156006  77.5643311  30.5346508  55.8941193
  77.8450089  29.9414310  55.1973114  78.0936508  31.3218479  55.7661781
  77.8818207  -0.0789280  47.7917442  77.5252609  -0.1053114  46.9038239
  77.2980576   0.5124869  48.2667961   0.6209019  24.2322083  53.2435608
  -0.0005355  24.2280674  52.5155296   0.1549501  23.7989044  53.9586601
  45.4110489   1.9299541   3.4161928  45.8912048   1.2014953   3.0224547
  44.4996452   1.7795389   3.1653018  52.7470665  55.8932762  22.5803661
  53.0682831  56.7906418  22.4921207  51.8806725  55.9868660  22.9763908
  76.1459656  50.8900909  86.5840378  75.9209900  49.9791412  86.7732239
  75.4937210  51.4021454  87.0621719  79.7343750  48.2946167  65.9004288
  80.4006577  48.1841202  66.5787201  80.2028427  48.6936493  65.1672592
  74.1807327  57.9493408   9.1610155  73.6806641  58.7068100   9.4650011
  73.9951706  57.2657814   9.8048697  40.5451813  70.2222824  13.6078968
  40.3068390  70.2415237  12.6810436  40.2235260  71.0542297  13.9552326
  79.6996613   8.9836216  27.9695683  80.2469788   8.2331524  27.7383347
  78.8699951   8.5975294  28.2503300  83.8608932  30.5994167  80.1632843
  83.2233429  29.8984947  80.2991867  83.5292130  31.3295288  80.6859283
  24.0093002  49.1688995  24.4809589  23.7298698  48.2559814  24.5497437
  23.3330746  49.5868378  23.9477806  37.0582008  10.1311321  33.5504150
  37.2171822   9.2724400  33.1584892  36.1802139  10.0642452  33.9257774
  15.0676537  23.7065392   4.0268960  15.6357946  24.4245338   3.7477331
  14.4145336  24.1227531   4.5894184   0.6923169   4.9677954   9.0101500
   1.0947578   4.1321950   8.7734108   1.1689706   5.6179419   8.4940662
  69.2456589  61.6921120  36.7613869  69.0997162  61.3502235  35.8793182
  70.1371841  61.4201279  36.9792099  45.0631294  36.8064079  29.2704048
  44.3929100  36.2257919  29.6308556  45.8772888  36.3088722  29.3467655
  21.6755276  51.9330368  24.2850800  22.4359341  51.6606407  23.7714500
  21.5916882  51.2624435  24.9629498   4.7819324  22.8806324   8.8154964
   5.3263316  22.5996208   8.0800409   5.3425145  23.4739151   9.3154898
  16.6360283  47.9292336  32.2980843  17.5756302  47.9762306  32.4746361
  16.5759201  47.8165169  31.3494453  41.8808365  14.9581022  36.2306061
  40.9352951  14.8516531  36.3347702  42.2489700  14.1223068  36.5172348
  67.0204697   8.0843334   3.6022232  67.4737701   8.9252653   3.5423379
  67.4661942   7.6219888   4.3120122   1.2462757  51.0269432  55.1065788
   1.4276992  50.7613068  56.0081062   0.9541522  50.2242889  54.6745605
  43.5641098   5.8383331  81.6219711  43.2858086   6.0277648  82.5180206
  43.0811310   6.4652944  81.0835648  85.5031662  53.0659752  41.4487038
  86.3423767  52.8697090  41.8651695  84.8522491  52.8953438  42.1294556
  17.7529259  66.5308685  65.1194229  18.4622135  67.0857239  65.4439011
  17.3801117  67.0223007  64.3874817  85.6267166  45.4552422  12.3322744
  85.3633423  45.8574333  11.5045633  85.9230347  44.5782280  12.0888176
  36.9930229   9.3925972   4.7575722  36.7555389   8.5458088   4.3797069
  36.1583748   9.7793283   5.0222096   8.9457731  54.1625633  11.3423538
   8.4910250  53.4067764  10.9705706   9.6804657  54.3160706  10.7483053
  71.3247299  59.7825012  86.0203781  71.8769760  59.9133415  86.7911758
  71.3097992  60.6366768  85.5886459  81.4986801  16.0289116  45.5799217
  80.7818069  16.0761127  44.9473877  82.2604752  16.3591690  45.1036491
  28.0119457  36.3244476  71.0572357  27.7091465  36.4892502  71.9502029
  28.0049973  35.3708878  70.9741287  49.6806602  13.2723265  57.9495773
  50.3590965  12.7593594  57.5104599  48.8607063  12.9673052  57.5611610
  83.8543472  45.6719780   0.5383982  83.2840576  45.8934975   1.2745591
  83.3941422  46.0080833  -0.2306771  27.7271748  29.2414379  15.6197119
  28.2165051  28.6207390  15.0797834  27.3457546  29.8557129  14.9924822
   6.5714493  68.6003952  37.9873695   7.2091999  69.2467117  38.2903328
   5.9319954  69.1099472  37.4896889  79.5705795   9.6352043  47.0202827
  80.3871765   9.2454910  47.3325768  79.0339737   8.8877306  46.7565231
   5.9380708  13.6853495  82.7231750   5.8048439  14.3332729  83.4150391
   6.1091914  14.2052355  81.9378891  55.1091042  43.7915306  33.9606400
  54.6016617  44.1318169  34.6974831  54.9418564  44.4094200  33.2489700
   8.9765911  16.4447727  22.8492756   9.8322258  16.4493847  23.2783451
   8.9984512  17.2012806  22.2632294  81.4103165  35.7328110  69.3507614
  81.8155060  36.0407066  68.5400467  82.0783157  35.1812553  69.7579346
  57.4103165   8.1491776  16.1749153  57.0082932   8.9283800  15.7909174
  57.9246216   7.7692704  15.4626007  65.5408554  51.7226715  25.0122185
  65.6366272  52.6726189  24.9439754  64.8403244  51.5979538  25.6524868
  81.1617432  62.6237106  12.4234781  80.8928757  61.7446823  12.1565437
  80.8099060  63.1985474  11.7437677  55.2658997  33.4544487  77.2878571
  54.7740250  33.9479523  76.6315460  55.5969505  32.6909142  76.8149338
  17.5562820  52.2655792  27.2106571  16.9876175  53.0315590  27.1323986
  18.3506966  52.5074081  26.7345734  27.2963619  46.1663704   6.9374986
  26.5749168  46.0037727   7.5452075  26.9934902  45.8056908   6.1041856
  82.5316620  64.2260361  86.7421646  82.6592560  63.7676315  87.5727158
  83.0058899  63.6965752  86.1010590  49.7883530   8.4708948  23.9875984
  48.9089928   8.5972233  23.6312275  49.8798676   7.5215259  24.0685692
  16.7970924  28.8352509  74.1667557  16.6023159  27.9254131  73.9420547
  16.3389835  28.9808750  74.9944992  78.4603043   9.8606195  39.1621895
  79.2592926  10.3834162  39.2295227  78.3034744   9.7829733  38.2211227
  22.0385914  63.3943253  50.9802933  22.0205498  63.9155273  50.1776390
  22.9213257  63.0250893  51.0063171  19.6141891  22.9165783  88.6726227
  19.2182713  23.5654335  88.0908432  19.9154968  23.4232731  89.4267502
   4.4260645  45.6289139  80.8982849   4.0961623  44.7894287  81.2186966
   5.3563848  45.4740028  80.7347717  43.8261108  42.5459023  75.4580841
  44.6352005  42.0365639  75.4113693  43.8942299  43.1704559  74.7359161
  69.4816666  37.7727051  65.4589539  69.8251038  38.6456070  65.6495361
  68.7502899  37.6650581  66.0670166  11.3779726   8.3224287  30.5368862
  11.1780910   9.2155104  30.8173923  10.7920876   8.1672964  29.7960052
  10.4920168  18.7898273  55.4003868  10.4403191  18.5245533  56.3186378
   9.8078423  18.2811241  54.9652328   4.7505231  11.9629402   4.0870767
   5.4634047  11.4375067   3.7238259   5.1861081  12.7214241   4.4759216
  18.8867950  63.5854378  45.9203835  19.1205273  62.6707268  45.7625618
  19.6161461  64.0856247  45.5541954  57.4057693  16.3888206  11.5685911
  56.4515610  16.4215717  11.6367760  57.6156311  16.9903622  10.8542128
  84.1967468  22.9155502  74.9088516  85.0961990  22.7566967  75.1951675
  83.6549530  22.5678272  75.6172180  48.2150688  50.3811646  23.6377735
  48.2498779  50.6174698  24.5646935  48.4091187  49.4439735  23.6220703
  74.6851120  22.2107048  50.3743019  75.1271210  21.3758297  50.2198906
  75.1720505  22.6097546  51.0953293  28.7072392  51.5478096  73.6785812
  28.6639881  51.2245445  74.5785065  29.5949192  51.3354530  73.3902054
  37.7690048  50.3683662   6.9214087  36.8180046  50.2600708   6.9114709
  37.9022903  51.3161430   6.9078031  19.6779976  13.6630096  64.4327469
  19.2890873  13.9564772  63.6088219  20.0178032  14.4622221  64.8352737
  68.4211273  29.0008984  32.8878555  68.6095963  29.4249363  33.7250557
  68.1258240  28.1219883  33.1256561  37.0910225  40.9469566  25.0186481
  37.4849892  41.4501228  25.7312813  37.5784569  40.1232147  25.0090828
  54.9152031  10.9370813  52.6745453  55.5759926  11.6227140  52.5770950
  54.1669769  11.2517080  52.1671944  71.7567291   5.1617799   9.6737633
  72.3286362   5.6836057  10.2366629  72.3418884   4.5269403   9.2604790
  41.7452812  67.7795486  64.8069839  41.5399017  68.3289185  64.0505142
  42.6545525  67.5136337  64.6700668  78.0919418  28.5652447   7.1598921
  78.4921341  28.1704674   7.9346371  77.4629822  27.9110336   6.8554988
  46.6043434  33.8713341  25.0953541  45.9491539  34.4068756  25.5427380
  46.9084702  33.2571182  25.7635441  17.4107475   0.4301626  68.1088486
  17.8809547   0.1977328  68.9095383  17.0868244  -0.4045718  67.7704315
  84.7596207  21.1964512  61.5598907  85.6780319  21.3819847  61.3640976
  84.7906113  20.5746918  62.2869987  23.8407993   6.4343662  25.0536613
  23.8163223   5.6044798  25.5300236  24.1645699   6.2015805  24.1834793
   5.4572916  63.1693115  41.1513214   5.2237730  63.9253883  41.6898804
   5.5316486  63.5209732  40.2641716  52.9685555   2.9179287  76.3236389
  53.6830139   3.5117030  76.0929489  52.2840309   3.1060236  75.6815491
  67.7582169  66.1155930  13.7621069  67.3097763  66.7845154  13.2447348
  67.0653915  65.5071793  14.0191145   5.5858932  19.2225170  34.3795509
   5.7955852  19.8321323  33.6719971   5.4321651  19.7824993  35.1404839
  67.6126480   9.1926641  32.3088455  67.3698425   8.4988499  31.6957359
  67.1582413   8.9652767  33.1200447  74.4001694   0.1568734  11.1726627
  73.5681763   0.6268077  11.2290354  74.8553314   0.5633234  10.4351959
  54.1319046  64.5718307   0.6245451  53.8990364  63.6658669   0.8276075
  53.3150978  65.0590591   0.7325805  19.3630981  53.3777618  25.3411045
  18.9379635  53.4310532  24.4851513  20.1960659  52.9391251  25.1679211
  84.1317902  62.5825729  85.2612000  83.6150360  61.7850189  85.1467361
  84.8390274  62.3268089  85.8533478  21.6783733  23.1882248  81.0507126
  22.2024193  23.9529629  80.8124237  22.0162621  22.9234886  81.9062729
  55.7430229   3.4778898  63.9089127  56.6992645   3.4374204  63.8949394
  55.5239677   4.1788435  63.2949829  45.9792633  15.8148441  86.8644409
  45.7495804  15.1331081  86.2330017  46.4896545  16.4474239  86.3589020
  17.8151665  61.0123901  38.1748276  18.1850891  61.1756096  37.3072205
  17.3689766  60.1697731  38.0903091  10.8985519   3.0244043   2.5016177
  10.7537222   3.9250207   2.2115386  10.0353661   2.7219381   2.7838511
  59.3423958  16.0538406  59.7354965  59.4453278  16.0553951  58.7838478
  58.7103500  16.7513962  59.9091835   6.1440291   9.0018787   0.5857470
   5.3127494   9.1987448   0.1539492   6.8108511   9.3306570  -0.0171508
  68.0656662  34.0240326  25.3401279  68.6492691  33.6843987  26.0185757
  68.6415024  34.5110817  24.7506981  39.5049477  20.0159855  81.2408981
  39.1286049  19.5591717  80.4886169  39.6748161  20.9024963  80.9223404
  45.4838982  70.8822556  82.8207703  45.7088852  71.0263138  83.7399368
  45.9099121  71.6014252  82.3543625  21.7594929  50.9186974  31.2110004
  21.5097675  50.8095818  30.2934132  22.0078087  50.0398750  31.4977760
  36.6839561  48.4162178  79.3352737  36.2170639  47.8810539  78.6935196
  36.2122612  48.2723503  80.1556549  69.1337128   4.1577349  16.6403522
  68.3376465   4.3891435  17.1188545  69.7822495   4.7994823  16.9298172
  46.9440918  64.7170258  85.7168045  46.2467422  64.1111755  85.4660492
  46.5234375  65.3301163  86.3196335  68.6104584   3.6743493   3.7352147
  68.7675400   3.9774818   4.6294560  68.3727036   2.7523317   3.8331511
  57.6910934  70.0237122  48.5842323  57.6964951  69.7885361  49.5120735
  58.6163635  70.0697861  48.3434334   7.5223913  52.5757599  34.1669540
   6.8299131  53.2086639  34.3570518   7.9549580  52.9213333  33.3861237
  15.4156246  68.2668839  40.2129097  14.8170500  68.4940109  40.9244919
  14.8603506  68.2347641  39.4338875  60.1627464  65.6200790  31.2385921
  59.2249451  65.4926834  31.0953121  60.5103416  64.7352524  31.3503475
  74.1215057  48.4065514  71.5326004  74.8187943  48.8074989  72.0514984
  73.6186295  49.1473503  71.1941299   2.6887894  61.6847343  16.8698845
   3.0480988  61.6616364  15.9829826   3.1758642  62.3829193  17.3075256
  53.5854950  12.0705261  85.2313690  53.0260620  11.3943844  84.8491440
  54.4755783  11.7370577  85.1183243  44.5000496   2.7015421  83.5294724
  44.4885445   2.2101414  84.3508301  45.4286957   2.8541825  83.3546753
  50.8185692  15.2558231  70.7021103  50.5020218  15.4146290  69.8128357
  51.4278412  14.5230665  70.6121826  28.2187405  69.3815613  45.7549095
  29.1232452  69.6477509  45.5898476  28.2760105  68.4459686  45.9488754
  64.5189056   8.3875637   4.8238473  65.0974121   8.2943811   4.0669575
  64.1106491   7.5272212   4.9206228  50.9019737  16.5924625   1.5459633
  50.2803841  16.2858410   2.2061443  51.2712708  15.7913733   1.1743363
  73.5671387   1.0036132  69.0219193  74.1394958   0.3132105  69.3565521
  73.6200256   1.6978861  69.6787415  61.1808624  38.4755516  34.5113831
  60.4676399  37.9570732  34.1389275  61.4701118  39.0366974  33.7918816
  52.1590538  19.4044056  26.4842548  53.1067772  19.2763767  26.4434891
  52.0315781  20.0222607  27.2041416  79.2679825  45.0223465  78.4542694
  79.4453278  45.5384407  77.6678696  78.7706375  44.2679062  78.1385269
  85.5853424   7.5526037  43.0855179  85.1761093   7.9378109  42.3106804
  86.0670853   6.7961698  42.7509041  53.8565636  42.6838150  28.4135036
  53.8256111  41.8849411  27.8871250  53.1732674  42.5628395  29.0728245
  81.3909760  39.5317345  57.0260735  80.4622803  39.6322479  57.2349930
  81.8460083  39.7872314  57.8285103  20.2673779  46.0157356  82.4833984
  20.6379280  46.2569199  83.3323746  19.3415604  45.8527451  82.6637497
  55.3966408  24.5490513   4.2477446  55.3353691  24.8971252   3.3581820
  56.3243332  24.3419189   4.3605199  62.5182037  59.0197983  82.8036880
  62.5345421  59.7588806  82.1956406  63.3124313  58.5254173  82.6011505
  23.4708252   4.1996279  82.3101273  23.9472370   3.5191700  81.8344803
  22.6590004   3.7746940  82.5869064  77.4808273  47.8437920  71.4849243
  78.2079544  47.6610603  70.8898315  76.8636093  47.1274948  71.3359680
  53.3878937  64.8953171  10.5269709  53.5408783  64.8129044  11.4682665
  54.1075020  64.4095612  10.1239319  12.9040680  37.1672134  68.9146500
  13.5932207  37.8040314  68.7255325  13.3709049  36.3431320  69.0531540
  52.5659332  47.5984154  82.7004700  52.9603424  46.7312508  82.7937469
  52.3579254  47.6679726  81.7687378  82.3312683  17.1565228  67.5373993
  82.6347122  16.2771626  67.7629547  82.5134201  17.6802254  68.3176498
  79.5889359  34.4966316  61.5130081  78.7356644  34.7246437  61.8820114
  79.7352676  33.5918808  61.7891312  60.3165703  35.0249557  64.4197998
  60.4887619  34.1441498  64.7526169  60.6201859  35.0017052  63.5123253
  43.6566582  70.9924774  12.3966923  44.1175880  70.8460007  11.5706635
  42.7414055  71.1106491  12.1425686  66.9728699  15.0284824  33.4878426
  67.8385925  14.8804522  33.1072617  67.1298218  15.6353931  34.2112083
  82.6496811  29.0016270  63.4349937  82.6837921  29.3274803  62.5356140
  82.4257889  28.0752659  63.3457832  29.8794880  38.9945755   7.5500379
  30.4613972  38.4299393   7.0413141  30.3960400  39.2419662   8.3169832
  61.8474426  16.3513603  82.9756012  62.7237549  15.9663086  82.9822540
  61.9101486  17.0787811  82.3566055  78.8878098   8.5533342  77.7033691
  78.5570221   8.9899950  78.4883118  79.0308762   7.6469440  77.9758072
   0.5562338  11.8864450  21.0986938   0.8694474  12.0583487  21.9867134
   1.0928164  11.1551752  20.7928257  56.1131439  41.7060356  42.1121063
  56.0804749  40.7801399  41.8715172  57.0373573  41.8729820  42.2970161
  10.8200636  31.3562794  78.4438782  10.0622120  31.5376740  77.8880081
  10.7774878  30.4140224  78.6068802  68.6803818  70.2211151  51.1697769
  68.8809204  70.6810074  50.3545990  68.1399918  69.4787903  50.8992882
  71.1259155  18.6124439  63.0836945  71.5007477  17.8934822  62.5749435
  70.6693954  19.1508064  62.4371758  49.1253510   6.0281816  23.5985603
  49.8535461   5.4082499  23.5579414  48.4038239   5.5793343  23.1579208
  76.6438522  65.5547104  16.7467651  76.5755539  66.0800018  15.9494982
  77.4325027  65.0274277  16.6193504  43.8682938  24.5414734  81.5432129
  44.8142281  24.5414524  81.3968048  43.6777306  25.4178295  81.8777618
  40.1690331  10.2423496  85.5693130  41.0055809  10.3962288  85.1302948
  40.1647072  10.8606634  86.3000031  33.2574883  71.3105392  80.7638702
  33.5328445  70.5203323  80.2991333  33.7923279  72.0089569  80.3865204
  57.1357689  57.9703560  59.7583351  58.0516472  57.7056503  59.8439217
  56.6378822  57.2144279  60.0696487  10.4251108  58.9004898  73.1290512
   9.6422443  59.0366631  72.5953751  10.3835583  57.9789276  73.3844452
  28.0230942  49.9568138  76.2033157  27.1058979  49.7515221  76.3845215
  28.2993298  50.4945145  76.9454803  49.0323448  18.9307632   2.6426597
  49.0716934  19.2839336   3.5314534  49.8448563  18.4340324   2.5461252
  86.2238541  39.0082245  70.2622604  85.5104904  38.3733673  70.1966782
  86.8642960  38.7167473  69.6133423  77.1578522   8.6770315   7.8019433
  77.2162247   9.5782232   8.1192398  76.2182388   8.5068226   7.7356935
  19.9526634  65.3111191  80.2777710  19.9285030  64.6214294  79.6144562
  20.2915592  66.0771561  79.8145599  25.9349384   1.3762716  52.2980843
  26.3954659   1.1756876  51.4832764  25.6360321   0.5257806  52.6198807
  13.2224264  30.2254200  79.0065231  13.1153765  29.7947235  79.8546219
  12.4920931  30.8421974  78.9572372  47.4929047  52.6664009  65.9446869
  48.0592422  52.1387711  65.3815689  47.0784035  52.0319519  66.5294037
  52.1589203  40.8445320  16.9993286  52.1677628  40.2333031  16.2627468
  52.9302483  41.3947754  16.8632374  71.6745148  24.9900169  64.3762894
  71.5640793  25.4313316  63.5341072  71.5735855  24.0598278  64.1743164
  78.4396439  21.1110611  71.0053711  77.8863525  21.8921356  71.0009155
  77.8231583  20.3811760  71.0641022  81.4202728  70.0525284  84.3194504
  81.7598572  70.3402786  83.4720383  81.6236038  69.1178207  84.3540802
  49.3015213  63.4330788  30.9712963  49.1277161  62.6573143  31.5044098
  50.1459808  63.2549171  30.5573139  86.6822281  23.8257084  31.9196167
  87.0902328  24.1495781  31.1165771  85.9938812  23.2336121  31.6165829
   8.0312414  41.8793373  62.8350372   8.3108683  42.7947464  62.8271866
   8.1033373  41.5990410  61.9226379  78.7859726  36.0843773  18.5539093
  78.0751343  35.6135712  18.9889736  79.0691681  36.7362556  19.1950741
  60.5140533  12.4755516  86.5131683  60.1439285  13.0494108  85.8424072
  61.3739777  12.8512516  86.7018814   0.7893314  49.5612907  65.3493881
  -0.0747382  49.8750648  65.6161499   0.6085133  48.7925148  64.8085327
  29.1654549  56.7414017  29.0350418  28.2816582  56.3848495  28.9455566
  29.3501530  57.1400146  28.1846142  58.8880997  13.5760727  26.8632698
  58.5509911  13.9917822  26.0696869  58.1057053  13.2894363  27.3343678
  85.1313782  32.8644905  48.7769318  84.9056320  33.7663155  48.5489426
  85.7661667  32.6007690  48.1108017  31.7718353  24.8546410  80.3141556
  32.3098907  24.6462154  81.0778809  32.2103577  24.4157505  79.5852432
  26.8153458  12.7439165  46.4762383  26.8330002  13.1117630  47.3597565
  27.7354374  12.7026548  46.2155457  59.5881653  44.0009499  25.2775192
  59.9217072  43.8228760  26.1568775  59.6333847  44.9532928  25.1925068
  40.5277557  65.2125931  34.1421585  39.6478043  64.8880768  33.9508171
  40.9799347  64.4637833  34.5308113  63.6501999  14.5086851  44.7708969
  63.7164726  14.7320013  43.8424721  64.1957245  15.1590672  45.2132111
  22.4603767  37.7538643   6.5826378  22.5782814  37.0567627   5.9373608
  23.1577148  37.6087685   7.2220902  62.8883896  29.0059547  71.2188263
  62.7002716  28.1321793  70.8762512  63.1376686  28.8570633  72.1309280
  62.1152420  10.5517597  16.2586536  61.8874779  10.6974087  15.3404264
  63.0019417  10.9020748  16.3439541  16.1019573  71.0395050  13.1757441
  16.1591282  70.1437683  12.8431396  16.7517300  71.5254745  12.6679497
  53.4506226  67.2985916  22.0235863  53.6301727  66.6151199  22.6692333
  53.7797699  68.1017303  22.4271545  48.2607574  64.4559326   0.8874861
  48.2841721  63.8414650   0.1539244  48.9475479  64.1487503   1.4792515
  23.4504051  14.1541424  72.1746445  23.1803474  14.7242165  71.4547043
  23.5839405  14.7480927  72.9133072   4.0449829   7.6150260  24.1626053
   4.8735328   7.1381321  24.2106533   3.6735444   7.3651843  23.3165283
  57.4134102  33.1178474   9.5244865  57.3644028  32.2493935   9.9240055
  57.7044411  32.9528389   8.6276560  40.3640289  52.9068832  33.1235466
  39.7695618  53.4955177  32.6584091  39.7886505  52.2643166  33.5386162
  51.4448013  44.8418770  26.2628632  51.9423523  45.6134720  25.9920998
  51.7779503  44.6364555  27.1363869  59.9147186  62.3218575  50.6310768
  60.4076347  62.1976395  49.8200035  59.2853355  61.6007500  50.6416817
  53.9657822  50.9571457  48.3338013  53.4414902  51.7458000  48.1945953
  54.7145958  51.2553864  48.8500977  82.4848709  63.4404907  71.7563248
  82.4724960  62.7149696  72.3805847  82.2459259  64.2078705  72.2761993
  79.8671265  45.5958710  45.7695656  79.5157623  45.0595284  45.0588570
  79.3386688  45.3594322  46.5318413  75.6133347  18.7522793  29.0298252
  75.8217545  19.4666252  28.4277439  74.8589249  19.0697556  29.5261211
   3.2753062  63.8162537  14.8533888   3.6750126  64.6846619  14.9017496
   4.0141435  63.2095413  14.9008265  40.2698402  58.8593140  47.6263084
  39.6703453  58.5958023  46.9281654  39.7852287  59.5196915  48.1215744
  53.0597916  30.8600292  28.3459797  53.2082253  30.0010033  28.7412930
  53.0653877  31.4680729  29.0852261  51.0739098  17.2158470  54.1668739
  50.1848183  17.5086746  53.9668694  51.6015205  18.0139179  54.1361961
  48.0748634   2.5362461  71.1117401  47.6127739   2.0838840  70.4059982
  48.7140961   1.8975397  71.4274368  84.9035645  31.6789589  59.2951622
  85.1307831  30.7505569  59.2434540  84.8027573  31.9520149  58.3832893
  48.1760902  38.0312424  80.8859329  47.6214218  38.6813660  80.4547577
  47.7806816  37.9141464  81.7497406  76.6735153   7.8564768  87.2202835
  76.1902695   8.4950466  87.7446289  76.0877609   7.6529198  86.4911118
  56.8559532  55.2816658  28.5790787  56.1885910  54.9018250  28.0076046
  57.1897049  54.5398293  29.0835781  44.2625885  63.6913452  46.3134460
  44.1429787  62.9086761  46.8513680  43.3857918  64.0684509  46.2409744
  61.0947571   3.4431183  72.5262833  60.1530266   3.3145771  72.6396637
  61.3625031   2.7415278  71.9327240   4.8640809   9.0929356  33.7991867
   4.8948431   8.2779436  34.3002586   4.5709829   8.8272772  32.9275475
   4.0003958  69.0525818  18.6955414   3.4366903  68.6388550  18.0418606
   4.5142446  69.6900253  18.1996956  36.0358658  59.3216248  28.0233078
  36.2284241  59.7752037  27.2026863  36.2527924  58.4060516  27.8475208
  80.7502823  55.1694832   0.3008905  81.6772308  55.2804184   0.5122693
  80.7110138  54.3408394  -0.1766431  85.4039993   2.3542068  64.2645721
  84.5597763   1.9581250  64.0486145  86.0074005   1.6136559  64.3255615
  39.4455261  57.2020340  87.4584579  40.1143303  56.5403099  87.2822342
  38.7171860  56.9652824  86.8842621  61.5787926   4.4268637  19.3059406
  60.9587708   4.7891726  19.9388237  61.0629997   3.8022907  18.7959385
  73.3183594   8.0059032  59.2541046  72.6299896   7.9316239  59.9150620
  73.4611969   7.1078968  58.9550858  65.5615082  55.7307816   0.6119091
  65.6741180  54.9542961   1.1601977  66.2677917  55.6740341  -0.0316533
  79.0187073  41.9004822  51.1561661  79.3179016  41.9877853  52.0612030
  78.2046585  42.4029617  51.1234932   9.0010462   7.9427357  73.0513535
   9.2691374   8.1740551  73.9406509   8.0464458   7.8878531  73.0956116
  56.6988945   0.8010851  87.7859955  55.7889786   0.5042003  87.7739944
  56.6467819   1.7228030  88.0388794  46.4706802  57.1741791  85.4270554
  46.7032509  56.5758324  84.7170410  46.0143890  56.6242485  86.0639267
   0.7191969  45.6390724  20.2700214   1.2645466  46.2472038  20.7690220
   1.0425023  45.7091789  19.3718071  44.5992851  21.9373016  12.1332397
  44.6093941  22.8125420  12.5206470  45.2166176  21.4334736  12.6636076
  63.0864105  56.9350090  71.5030670  63.6049538  57.5065765  72.0693359
  63.7086487  56.2774849  71.1920853  59.9894867  14.4296484  52.9834633
  60.6459160  15.0637674  52.6949806  59.1523132  14.8219261  52.7354927
   6.0964475  34.8294754  74.7197647   5.8300848  34.6237030  75.6158371
   5.7447853  35.7053757  74.5605164  59.2074089  63.8672409  12.0643349
  59.5181885  64.5674667  12.6382132  59.8498878  63.8356171  11.3554983
  79.9835205  33.4424706  68.9277878  80.6563721  33.2076912  68.2887421
  80.1681595  34.3561707  69.1452637  35.2447777   9.6449451  51.0238914
  35.9257851   9.8931189  51.6490898  35.0462685   8.7327805  51.2355080
  63.4950562  55.8785820  36.2890930  63.4859009  55.8758354  35.3319397
  62.6361389  55.5370636  36.5378075  50.0943832   0.7025817   7.4038696
  50.9525757   1.0706793   7.1935372  49.5754509   1.4538186   7.6912427
  21.5805130   8.4330063  78.6234970  21.0126877   8.7571859  77.9244156
  22.4357166   8.3258429  78.2071075  72.4847488  70.1162033  67.8671875
  72.6630249  71.0525360  67.9551315  72.5164261  69.9538727  66.9243851
  31.8379745  46.2780914  29.3958778  32.7180214  46.5458298  29.6605797
  31.3389149  46.2549744  30.2123566  74.1803436  38.0208282  67.9926529
  73.8740387  38.2020760  68.8812256  74.4623337  37.1064682  68.0183640
   1.3501977  52.7046852  31.5624218   1.3006730  52.8395233  30.6160622
   1.2591105  53.5819206  31.9344349  59.4556236  37.7974510  27.0724525
  59.3815498  38.7227325  26.8387890  59.8680801  37.3903122  26.3106441
   3.4870639  29.0998859  34.7318077   2.8743932  28.3749065  34.6082268
   2.9284425  29.8631210  34.8789291  36.3520393  53.4952469   4.3661065
  37.2174873  53.9030533   4.3357759  36.1391411  53.3167496   3.4501119
  41.4130859  68.4957504  22.7041225  40.9584656  68.8196793  21.9265480
  42.0412865  69.1852798  22.9189281  26.8747330  19.5072079   4.9630890
  27.1387329  18.8934269   4.2776623  26.5449295  20.2697506   4.4877048
  73.4418640  63.3467522  82.4259491  72.5835876  63.4532661  82.8361206
  73.5120926  64.0860291  81.8219910  31.5826740  61.0332947  20.8613663
  31.5756931  61.1935654  21.8050270  31.4162159  60.0944939  20.7766323
  61.7205200  42.0856972  56.6146812  62.4190712  41.9072151  55.9850769
  61.0872879  41.3814354  56.4758873  66.1536560  11.4628077  87.0529251
  67.0479431  11.3884830  87.3860245  66.0718765  12.3791723  86.7886887
  30.0191021   1.5876397  17.9845066  30.4002647   1.0261135  18.6595135
  30.4085903   2.4479649  18.1406155  69.9823456  70.3186417  25.5269871
  69.8101807  69.7461319  26.2745361  69.4052124  69.9915848  24.8369198
  17.1872005   3.5968871  45.0009460  17.9985523   4.0510826  45.2282028
  17.0615387   3.7822509  44.0703125  68.5665665  28.9226265  76.2495880
  68.6081848  28.0893745  75.7803421  68.3499298  29.5666294  75.5753784
  40.0249100   3.6984911  42.0487823  40.6170273   4.1572404  41.4528160
  39.7918892   2.8950822  41.5835228  58.2712135  33.5368958  42.5326805
  58.5971184  34.3947411  42.8049393  57.7261200  33.7196236  41.7673645
  65.2532196  31.1766872  33.5560913  65.9187698  31.1843891  34.2439995
  65.7508621  31.2374382  32.7406769  71.0796967  52.5299911  55.6975899
  71.1963196  52.5912552  54.7494965  71.5915756  53.2582855  56.0494308
  43.0556793  11.1083832  71.6826553  42.8947716  10.2113380  71.9753189
  43.5450020  11.5103636  72.4004364  73.0134201  43.2842979  10.1590986
  72.2427979  43.1673965   9.6034813  73.7273712  42.8792419   9.6667194
  56.9343529  67.0871201  18.4116440  56.4433708  66.4358673  17.9106026
  56.3418236  67.3416595  19.1189995  46.1666794  57.7372284   8.9317560
  46.1896324  57.9775238   9.8580198  46.6633377  58.4277878   8.4927902
  12.2184315  50.1710396  53.0983925  12.6817408  50.8132629  52.5606880
  11.6877384  50.6974831  53.6962700  25.8415565  19.3916798  12.4562492
  26.7766418  19.1872158  12.4627171  25.4355736  18.6715202  12.9387207
   6.0603676  43.3524208  38.9448051   6.5166426  43.6800423  38.1697502
   5.9617200  44.1206322  39.5072594  55.1287956  58.0548935   2.1617322
  55.8266373  57.4417343   1.9309106  54.5616188  58.0734634   1.3908908
  81.4576721  14.3314114  55.9981766  81.6939850  13.9141550  55.1697540
  81.4035645  13.6087160  56.6234894  64.5728836  70.1870270  61.9841728
  64.9600143  69.3153076  61.9037094  64.8642502  70.5003891  62.8404083
  43.9890022  15.5691919  63.4483337  43.2996941  16.2145844  63.2916336
  44.4335213  15.4839468  62.6049080  83.3799210  27.7300301  16.3887444
  82.4729538  27.7636700  16.6929016  83.4102097  26.9685650  15.8095331
  76.1900635   9.4354839  75.9326401  75.7102051   9.0740185  76.6778336
  75.9506073  10.3621664  75.9202881  55.7536964  17.0380688  48.6690674
  55.3683052  16.2687855  48.2496529  55.0048294  17.5943470  48.8834953
  28.3059082   1.4770278  30.5254459  28.3843441   1.9484770  29.6961002
  29.2020378   1.4268471  30.8581085  38.6581039   5.4236226  53.5567703
  38.6292763   4.5176401  53.8643341  37.7482910   5.7185998  53.5949936
  21.5545311  51.5285301  51.1062737  21.1322250  51.0171432  50.4160805
  20.8916321  52.1659660  51.3717499  82.7036743  38.1897469  18.6782532
  83.6190338  38.3438835  18.9119072  82.2959290  39.0545540  18.7239380
  51.2291069  20.8474979   7.2749786  50.8071022  20.2555294   7.8976498
  51.6223145  21.5285187   7.8207183  63.9361839   5.3901081  73.2896652
  64.1897049   5.3666511  72.3669510  63.2169762   6.0207925  73.3244934
  77.2790680  37.3109169  84.6371002  77.0668640  37.3914642  83.7071991
  77.5747147  36.4061050  84.7378006  35.6465187  33.1684380   9.7142296
  35.9659195  32.8685341   8.8631868  36.4397850  33.3182106  10.2285538
  80.4486237  49.2339058  50.8146095  80.5192108  50.0895271  51.2378845
  81.3248978  49.0649033  50.4684715   6.5910378  57.9206467  30.3135300
   6.2571473  58.2506409  29.4793530   7.1430287  57.1765289  30.0730553
   0.6729789   6.3498650  73.6411514  -0.1648524   6.5452328  73.2215042
   1.2850642   6.2386951  72.9136658  83.9218979   3.6756668  73.0266953
  84.7040939   3.1342642  72.9204865  83.3187256   3.1289158  73.5301590
  35.6209717  44.1690636   4.3164029  35.2533569  44.7975998   4.9377198
  34.8958817  43.9635773   3.7262735  27.5577469  54.2483292  86.8023911
  27.4652901  55.1123581  86.4009781  28.4644470  54.2220192  87.1080627
  44.4846878  42.6320305  87.0140991  45.0468178  42.2937012  87.7110748
  44.8249245  42.2292137  86.2152176  47.2392921  34.5433044  29.4904060
  48.1140404  34.6491051  29.1164379  46.9258041  33.7116928  29.1349049
  75.0442276  45.4875031  73.3335342  75.4964447  45.4879570  74.1771774
  74.5730515  46.3204727  73.3139038  37.0253906  67.2280197  78.6860962
  36.4149017  66.7451248  78.1289978  37.3520432  66.5753479  79.3054047
  53.8966637  10.2014503  74.6706619  54.0665779  10.1882544  75.6125641
  54.4658623   9.5189819  74.3150177  56.6683693  65.5177002  51.7330322
  56.4003563  64.6236343  51.5208206  56.8344727  65.9260101  50.8833694
  55.5025444  57.5534515  33.1981850  54.5952644  57.3786621  32.9481430
  55.8015251  56.7378960  33.6003304  48.7865982  26.5867805   2.1613095
  49.0735512  27.3301830   1.6309863  49.5591431  26.3443928   2.6718540
  41.9294434  62.4489288  47.7763329  41.5195236  63.2985649  47.9385490
  42.4701233  62.2921486  48.5504913  75.4846191  26.9723873  13.8184299
  75.8568497  26.1934643  13.4049635  74.5500870  26.9274311  13.6162767
  57.3148804  62.6130524  45.0669060  57.8257370  61.8377991  45.2997932
  57.6215096  62.8477173  44.1910400  60.7781868  42.2127953   5.2383113
  60.0651970  41.8324165   5.7513309  60.4196472  42.2958145   4.3546886
  54.3673744  71.5447540  30.5320435  54.3524895  70.9222870  31.2590504
  53.5443573  71.3909302  30.0681324   8.0360069  37.5950661  31.0621567
   8.9616241  37.3512344  31.0654850   7.8380151  37.7961884  31.9768028
  35.4540329  52.6310692  26.3273735  35.9214897  52.1144524  25.6710052
  34.5356064  52.3855400  26.2158203  63.1826019  56.9009285  89.0785751
  62.6781006  56.0893517  89.0233231  64.0221405  56.6359482  89.4543381
  44.4023170  63.8619003   6.2827964  44.2592125  64.0656204   5.3585396
  44.6492844  64.6984711   6.6769981  65.2619934  24.6439800  20.9479847
  66.1772766  24.7961311  20.7127609  65.3031006  24.1965523  21.7931786
  47.0068665  15.7590637  64.4560928  46.1163902  15.9555511  64.1651001
  47.1246490  16.2912998  65.2429047   4.1926341   8.0496206  72.2565613
   3.4917071   8.4521646  72.7692871   4.9517326   8.0592661  72.8395767
  28.4840279  42.5567131   0.5521200  28.9393559  41.8596153   0.0799327
  28.0898972  42.1176186   1.3058364  59.9086304   4.4192529  11.0106163
  59.4046669   5.2152219  10.8412380  59.2518654   3.7241137  11.0515518
   4.5286288  66.2328186  14.9376822   4.0777216  66.5271378  14.1462975
   5.4576907  66.3590927  14.7449884  53.0811386  19.6569901  33.2161217
  54.0253296  19.6084461  33.0665359  52.7835693  20.3623791  32.6415672
  14.1125546  63.7799339  26.0325356  13.9974480  63.2913437  26.8475609
  15.0602598  63.8057098  25.9005413  62.7074013  15.1641064  76.9413757
  63.0341835  15.9881907  77.3023834  62.8949471  14.5146551  77.6190720
  49.0963097  70.4010849  53.4511795  49.4897690  69.5462875  53.6265335
  49.6940918  71.0279922  53.8584518  69.2814255  68.4002075  65.3894196
  69.6179886  68.9705429  66.0805511  69.3486176  68.9251175  64.5918045
  61.7104874  13.4595919  66.4150925  62.3069382  12.7114162  66.3883972
  62.2813072  14.2163239  66.5483322  60.3062859  61.9354362   5.5703349
  61.1392365  62.2801285   5.2484546  59.8123817  61.7240562   4.7781167
  74.9986877  52.0057297  45.3570251  75.2173386  52.9191055  45.5418701
  75.3967590  51.8320580  44.5040245  62.7609711  27.1568165  39.1034050
  63.3765068  27.8209171  38.7930603  62.5079041  26.6774731  38.3144722
  44.8334541  55.8517036  81.3731308  44.5884552  55.8375931  80.4479218
  44.7390594  56.7684059  81.6319427  54.5148468  12.3206186  56.4650383
  54.3147202  11.4645290  56.0865021  55.0045052  12.7766171  55.7805443
  80.6665573  18.8477135   7.3993306  80.9135513  19.4239254   6.6760011
  80.9294968  19.3250008   8.1862803  36.8186378  13.4550695  44.9348183
  36.6496429  13.9708071  45.7232895  37.6617050  13.7760782  44.6147804
  70.4422379  16.7826328  65.1560669  70.4472198  17.1935272  64.2915649
  70.1873322  15.8753309  64.9885559  51.0073853  47.6909180  29.9880714
  50.3999557  47.0755348  29.5775070  51.2446404  48.2973404  29.2865067
  64.1133118  44.0933838  77.3914719  65.0703125  44.1013870  77.4096375
  63.8575630  43.9584274  78.3039474  82.8740616  55.8841667  83.5733185
  83.7895813  55.6094933  83.5222015  82.3747025  55.0890427  83.3871841
  78.9746094  37.3835869  34.1533127  78.8098450  36.4951859  34.4692726
  79.7442780  37.2987709  33.5906029  48.1419334  58.4711990  34.9199829
  47.2834702  58.2491188  34.5595016  48.0484581  59.3746986  35.2219505
  53.3339005  70.1036072  76.6868973  52.9658661  70.6718521  76.0102310
  53.1121788  69.2171326  76.4018631   2.4895363  25.0547771  67.2302094
   1.7310812  25.5189457  66.8759079   2.3084388  24.9801044  68.1671448
  79.6134262  11.7649021  21.3977337  79.9036255  12.4810581  21.9626579
  78.7025757  11.6144171  21.6505795   1.9994556   8.5847435   0.6690339
   2.1786573   8.5270500   1.6075381   2.7111452   9.1225548   0.3219189
  81.3284531  44.9947815  87.2940979  81.6285782  44.1712570  87.6787491
  80.3742371  44.9201164  87.2827530  63.5054092  30.9830704  85.5835800
  62.8355789  30.5030994  85.0965576  64.2675858  30.4040394  85.5767059
  38.5466843  12.1275063  66.4107742  38.6459618  12.6732388  67.1908722
  39.0711670  11.3483238  66.5952377  22.1637402  22.0666103   7.5488625
  22.3105068  22.5179062   8.3801413  21.2318764  21.8479691   7.5562935
  52.5133057  15.9614143  79.5801544  51.7091446  16.0500240  79.0685806
  52.2513580  16.1716423  80.4764862  76.8996353  38.3795280  10.9241066
  76.4566956  38.0294189  10.1511526  76.2575684  38.9671288  11.3224936
  33.6366272  34.2291298   1.2015442  33.7423553  33.9152222   2.0996056
  33.0754013  33.5757675   0.7839574  19.3215923  59.6800194  76.0560074
  19.2605705  60.6000595  76.3129730  18.8385925  59.6291771  75.2311707
  17.7035809  41.4004097  85.5685501  18.1502037  40.7660065  85.0079346
  16.9663105  41.7084770  85.0415268  11.3608494  48.2627640  36.4860687
  10.9495001  49.0962143  36.2571907  12.1736794  48.5099564  36.9270172
  14.4235315  14.4582081  27.0206738  13.7190342  14.9032869  27.4916515
  15.0184240  14.1577101  27.7077198   0.3894396  62.8500137  27.1978340
   0.3819097  63.4230042  27.9645519   1.2968549  62.8687477  26.8937321
  39.9046288  68.6173935  48.5159721  40.0016289  68.0165024  49.2547226
  39.7597466  69.4727707  48.9204102   5.6131721  22.2525482  85.2710495
   5.2121239  22.7922592  85.9523010   6.1444774  22.8649063  84.7621689
  45.5444412   3.1727238  86.2543182  46.2856712   3.2331069  85.6516876
  45.4351578   4.0626340  86.5895004  74.6468582   8.3820200  56.1871071
  75.3689423   7.8340101  55.8796921  74.6727219   8.2996788  57.1404114
  86.3553619  55.3891182   0.3053125  86.3541870  54.4325714   0.2698990
  87.2615585  55.6345863   0.1188396  30.2861366  65.6033630  30.1154022
  30.1771145  65.9237823  31.0107651  31.2273369  65.6643372  29.9521332
  10.8157606  44.5017204  84.6222229  10.3356314  44.3455124  85.4354324
  10.9355240  45.4509621  84.5933456  68.9219666  46.0177422  44.7298851
  68.1647263  45.4354477  44.6685829  68.6498260  46.7008476  45.3426971
  11.3006487  60.1348610  52.5185127  11.7928925  59.7116280  51.8150902
  11.6392765  61.0298309  52.5429192   8.7705412  11.7634516   2.1515300
   9.1880388  12.6226864   2.0911741   9.4990788  11.1487827   2.2389822
  86.4022141  37.9647141  60.2117615  86.7353668  37.1179543  60.5088081
  85.6257477  37.7488022  59.6953163  12.6106710  34.8334045   7.9796476
  12.7287931  35.2217140   7.1127596  13.4664831  34.4624062   8.1945419
  21.8956470  14.4762621  13.4822245  22.7879505  14.7394571  13.2569351
  21.4307156  15.3011866  13.6221132  12.3599768  16.0653706  10.1635056
  11.5329781  16.2969303   9.7407951  12.6096601  15.2333012   9.7615719
  43.4990463  32.5886040  15.4322290  44.3716850  32.2273178  15.5878153
  43.5725975  33.5091972  15.6838808  15.4621487  68.8300400  60.4743462
  15.0696611  69.3726501  59.7904167  15.3407955  69.3340073  61.2790337
  67.5209503   7.4978828   8.5257940  67.7601242   6.9745078   9.2907171
  67.1564331   8.3038616   8.8915186   8.8131819  17.8437405   1.1556393
   9.4071274  18.5883598   1.2505310   8.0121059  18.1179333   1.6021001
  19.7538300  32.7039223  84.8635941  18.8408623  32.8540115  85.1089401
  19.7056465  32.2987976  83.9976959  76.7562408  14.1591930  15.6723967
  75.8064499  14.2327785  15.5790205  77.1061783  14.5357695  14.8649530
  86.0846100  34.2857208  68.5639038  86.9817047  34.2629662  68.8969650
  86.1065292  33.7381439  67.7790985  77.0363846   4.2888789  76.6379471
  76.9528122   5.1919498  76.3318253  76.3828506   3.8037634  76.1341705
  18.4095497  28.2766495  78.2997665  18.4555664  29.0846443  77.7886276
  18.2599831  27.5901814  77.6496658  52.7999382  37.7895279  11.6680918
  53.7039108  37.9146347  11.9569035  52.3464127  37.4514465  12.4402628
  78.5983887  54.2560463  45.9419708  79.4794998  54.4516640  46.2607346
  78.0158691  54.6671524  46.5806351  63.7850990  21.3997383   0.8822636
  63.6053391  20.6088734   0.3738849  63.3435249  21.2523594   1.7186383
  79.1987762  38.1819191  20.3021355  78.8890762  38.8040886  19.6439362
  80.1121826  38.4260864  20.4514694  10.5033464  52.0591431  54.1098633
   9.6724081  51.7987022  54.5072823  10.3098021  52.8876419  53.6712685
   3.7776062  11.3006687  69.6238403   3.6000283  10.4139309  69.3101578
   4.4463367  11.1864214  70.2991028   4.4537911  32.6821709  32.9320717
   4.7034101  32.3687935  33.8013916   5.2387342  33.1178741  32.6000214
  48.3388100  36.9441338   0.6730042  48.2209740  36.0058365   0.5248691
  48.2224579  37.0540924   1.6167219   2.6521666  42.5355911  28.4004154
   2.2285881  43.1778641  28.9698887   2.9193335  43.0375557  27.6304226
  41.0472412  41.0277824   3.4300525  40.9038162  41.1976395   4.3610787
  41.8724060  41.4698486   3.2302713   0.6623621  46.6246605  80.8593445
   1.1839703  47.4218941  80.9519501   0.5367686  46.3150673  81.7563400
  13.1196585   0.6027048  63.9717407  12.2349405   0.2379082  63.9924545
  12.9873619   1.5477859  63.8972321  57.1104240   0.9876235  62.3548584
  56.8194351   1.7542698  61.8610878  57.9745140   0.7854773  61.9960823
   1.2786237  62.4861679  71.0147400   0.9272932  61.8750801  71.6623230
   0.7189959  63.2593842  71.0867462  33.9294548  44.7443466  10.4716415
  34.3187065  44.9183693   9.6146517  33.7566490  43.8028793  10.4694920
  39.9226799  33.9552650  77.6756287  40.4121170  33.1919060  77.3690796
  39.1028023  33.9279938  77.1823883   2.1429069  12.1896467  36.3976059
   2.2345130  12.2714520  35.4483185   2.7214260  11.4641037  36.6324158
  37.6575012  13.3243837  48.5252113  37.3113022  12.4362154  48.6120224
  38.3844910  13.3598995  49.1468697  54.8445587  69.5184708  32.5051079
  54.5545845  69.5959320  33.4140358  54.2623024  68.8617554  32.1230888
  63.9124336  18.8435440  79.3397141  64.3654861  18.0311584  79.1138687
  64.1526337  19.4535904  78.6423035   3.4857583  70.0469742  69.6906281
   3.1960163  69.8069305  70.5707779   4.3892293  70.3406906  69.8076782
  65.9370270  49.6624641  63.8484497  66.5201569  50.0451012  64.5040207
  66.4617920  48.9797211  63.4304581  10.8512135  57.8787498  23.2804604
  10.5728664  57.0241203  22.9512691  10.9502850  58.4171829  22.4952812
  25.6259861  48.8446770  77.4735489  26.2200832  48.9624519  78.2147675
  24.7603397  48.7555618  77.8722305  27.4992142  50.3295937  54.9710579
  26.7915916  50.0755234  54.3786430  27.0825024  50.9123154  55.6058922
  71.6871719  36.3207474  15.1754284  71.5491638  36.8126831  14.3659935
  71.8945999  36.9884987  15.8291216  76.1518631  67.0998917  21.4783802
  76.6996689  66.7451782  20.7781544  75.5691833  66.3784180  21.7154255
  64.6694870  24.2820435  81.7856903  63.8764992  24.1420727  81.2681885
  65.2446976  23.5562649  81.5435944  25.0274696  64.6921692   3.5034950
  25.8010731  65.0383530   3.9483798  24.2896099  65.0102463   4.0237074
   2.6892164  70.0581055   9.2389297   3.2829797  70.7262115   9.5814333
   2.0253010  70.5517731   8.7575397  83.0129623  18.7471676  41.6125374
  82.6222610  17.8751392  41.5564156  83.9507523  18.5834751  41.7124939
  72.2503967  55.8072052  77.5349121  72.3590546  56.7497444  77.4082565
  71.3388214  55.6371574  77.2975235  55.7332611  38.0238495  63.6244125
  55.5300560  37.4239502  62.9067383  55.3389282  37.6167717  64.3957901
  85.0219650  47.9394226  25.7014294  84.3039017  48.5443306  25.5151367
  84.5925140  47.1574554  26.0483055  33.8450890  59.7125893  67.0704422
  34.7328110  59.4216652  67.2791138  33.2995834  58.9393196  67.2143631
  77.9225616  17.2350769  55.1678505  78.2441940  16.7949963  55.9546890
  77.0745544  17.5967178  55.4253769  66.5100021  70.7077103  53.3112831
  66.5645752  71.6130066  53.0051842  67.4120636  70.3891754  53.2790031
  86.5198441  37.3750725  48.1541519  86.1899414  36.5366211  48.4772491
  86.7760391  37.8519173  48.9435959   2.8894114  64.5027542  19.7377014
   2.6892130  64.3742065  20.6648617   3.7709465  64.1452866  19.6312122
  61.7829742  63.7032585  38.1232834  62.4870033  63.0645027  38.0111923
  62.1809349  64.4121246  38.6286201  77.4649734  62.0208282  26.1756535
  77.7731705  62.8332787  25.7741909  78.2458344  61.4700470  26.2315445
  85.2501450  46.0371284  79.3488541  84.6666107  45.4871750  79.8716125
  86.0547028  46.0906219  79.8646698  20.0199242  55.4623146  62.4755516
  20.7374172  55.4939423  61.8427544  20.0639038  56.3037300  62.9297714
  54.2954865  70.5427856  88.0527573  54.7657280  70.2727585  88.8415451
  53.7589340  69.7843323  87.8223343  26.8176174   1.0545857  49.5752220
  27.5458946   0.5981505  49.9965439  26.8307552   0.7426074  48.6703835
  56.6828957  67.1572571  78.3885422  56.2964668  66.3688965  78.7698517
  56.4419250  67.8587952  78.9935303  65.3992386  48.1173820  57.7031860
  64.9349365  47.7951813  56.9306297  66.3061981  48.2163391  57.4135933
  22.1694965  55.4783669  76.9889221  22.1087971  54.8410759  77.7005463
  22.1854687  54.9474258  76.1926346  78.1939163  36.3382454  58.0801430
  77.5016251  36.8586502  58.4877396  78.8386383  36.9831963  57.7892723
  74.9276962  40.7641106  47.1052170  75.7217484  40.5484123  47.5942802
  74.2222519  40.6863136  47.7475052  45.3477249  45.8836098  84.7761459
  45.4609222  46.7941742  84.5035782  45.9490967  45.3901215  84.2184296
   6.8437662  41.7784119  51.3671455   7.7206674  41.8233490  50.9860191
   6.3157949  41.3369598  50.7018661   3.6771657  47.3763161  68.7649689
   3.8683105  47.7768364  69.6130753   4.5056710  46.9801750  68.4950027
  15.1295471  29.1414375  86.6974945  15.1994858  29.6092415  87.5296631
  14.3753204  29.5386639  86.2620850  61.1561203  60.3191071  16.5780048
  61.0210762  60.3406830  17.5253849  61.4908142  59.4394226  16.4037514
  61.4759293  67.0088501   1.0236222  61.8519783  66.4350586   0.3561029
  62.0790176  67.7507782   1.0690731  25.0199547  70.3681259  67.6103287
  24.9960041  71.3173752  67.4895706  25.8778782  70.1057968  67.2765961
  55.8346024  28.3857632  60.2141342  56.2070732  27.9647980  59.4393501
  55.5782814  27.6588879  60.7817459  14.6844110  37.8414459  88.3998337
  15.6242142  38.0230789  88.4032364  14.2754545  38.6922798  88.5581589
  46.1071777  55.0878830  32.0107231  46.5446205  54.9846458  32.8558350
  45.4101295  54.4319382  32.0201187  48.9536171  57.0549583  62.7966461
  48.8473053  56.3635559  63.4500122  49.6267014  57.6288147  63.1625404
  30.6751633  67.2482681  87.7097702  30.6409721  67.0394135  86.7762604
  31.6096897  67.3114853  87.9069901  54.4378204   3.5333645  69.6420746
  53.6358185   4.0539846  69.5975800  54.5461578   3.1842854  68.7574081
  54.8464470  36.0346184  27.3862400  54.9603004  35.2067146  26.9194965
  55.7305336  36.2786407  27.6602383  80.4003067  60.9226341  58.8406067
  81.0751190  60.2769394  59.0502396  79.6561813  60.4018936  58.5383797
  63.7555275   6.6033845  32.8811913  63.1301117   7.1249366  33.3842506
  64.3438492   6.2340736  33.5397606  63.5477829  70.9745789  88.7012482
  62.7479744  70.6536484  88.2846603  63.6843529  71.8422928  88.3209076
  66.0913849  67.7767487  21.5716267  66.7099152  68.4677353  21.3346062
  66.2646408  67.0747299  20.9444218  10.0735111   4.4535017  43.9525566
  10.7721252   4.0615206  43.4286079   9.2976379   3.9326553  43.7452583
  24.3020039  51.8940659  80.9562225  24.4809208  51.2121239  81.6036606
  25.1452351  52.0465012  80.5296555  16.9665565   2.3711038  74.3715210
  16.9501953   1.8180990  73.5904007  16.5008736   3.1660872  74.1119537
  23.0837479  53.0744095  54.7341537  22.3621197  53.3507195  55.2990723
  23.3178005  53.8615227  54.2423172  24.2504387   2.0065014  79.9595490
  23.5240650   1.5069702  79.5866165  25.0241375   1.6870266  79.4952698
  69.6672821  27.1745358  85.6875763  69.5130005  27.5585976  84.8244858
  70.6133728  27.0330296  85.7211227  85.9285889  60.9229317  35.0171738
  86.7243500  61.2495728  35.4370689  85.3313217  60.7428627  35.7431717
  31.5733643  55.0421333  75.4229279  32.3010178  55.4489174  75.8933258
  31.9921932  54.4360962  74.8117523  69.7324142  44.3635750  48.3502083
  68.8783569  43.9990997  48.5825577  69.7613068  44.3157196  47.3946419
  65.7798004  55.0161247  28.9704151  66.4840775  55.2216225  28.3555965
  65.7714844  54.0599632  29.0141869   8.1910152  12.3678045  49.9638138
   8.2167740  13.3224287  49.8985367   8.7942820  12.1601639  50.6773872
  41.8811035   4.5484567  54.6278725  42.4842377   4.3515172  53.9111633
  41.0299149   4.6530681  54.2027054   5.8580103  41.8376694  41.7512054
   6.3726382  41.8924103  40.9459763   5.6604948  42.7479744  41.9715691
  17.6792717  69.7267990  39.1869011  17.1857204  69.1030426  39.7194099
  17.9999180  69.2097626  38.4479218  21.5169373   2.5055399  74.4726257
  22.1841164   3.1622665  74.6721649  22.0144558   1.7192060  74.2481613
  67.1798019  26.9887676  72.0741043  66.3981934  26.9873695  71.5215454
  67.8162384  26.4625511  71.5900803  75.1099167  20.7300987  69.3840332
  75.8825760  21.2656174  69.5641556  74.4118576  21.3642406  69.2202759
  20.6147366   1.8664144  72.1145554  21.1314087   2.0205901  72.9054413
  19.9574852   2.5622871  72.1183929  67.9784317  37.0793571  89.3356400
  68.1344299  36.8666039  88.4155197  67.0368423  37.2436333  89.3871841
  82.3647690  55.7196045  55.5540237  82.2296524  55.8713379  54.6186333
  81.4858246  55.5681190  55.9015083  43.1691856  69.8125229  51.3528366
  42.4766312  69.8404694  52.0130043  43.1924019  70.6989594  50.9923935
  59.8653145   5.3935657  30.3939953  59.0483971   5.1372700  30.8219967
  60.5350227   5.2795577  31.0683289  49.2685356  19.3435822  53.8780251
  49.3875237  19.4102612  52.9305916  49.7562599  20.0865250  54.2335472
   0.8727821  34.0218124   9.8955364   1.0097088  33.8049011  10.8177261
   1.2264749  34.9063873   9.8024778  18.7627239  55.8528137   5.2371416
  18.5323677  56.2192993   6.0908718  19.0690823  56.6038361   4.7288685
  19.1623745   3.8368511  64.0602646  19.1846046   2.9129267  64.3094635
  19.6798611   4.2789702  64.7332916  58.1884537  40.1750221  61.2220993
  58.2702942  39.3573914  61.7130280  58.0438652  40.8432083  61.8920631
  80.8096924  58.0418816  16.2077827  80.7239304  58.2659607  17.1344242
  81.5146408  58.6056557  15.8892889  44.7793655   0.5530928  26.0421753
  44.9674339  -0.2888391  26.4569206  43.9922180   0.8683459  26.4863014
  59.9768066  36.8277817  79.2520599  59.0371437  36.9697914  79.3665009
  60.3883820  37.5227280  79.7657547   6.0776858  39.4511261  59.2850761
   5.3913736  40.0940399  59.4635963   5.6724668  38.6068993  59.4833527
  20.9663486   0.1025251  20.5551014  20.2754402  -0.0769986  21.1927910
  21.7283611   0.3336799  21.0862675  19.9483395  70.7693634  56.7228470
  19.1825962  71.0301208  57.2345848  20.6693954  71.2770233  57.0951309
  80.0044785   5.1470733  88.9138870  79.3259354   4.4749274  88.8503876
  80.8277512   4.6593928  88.8890915  71.6414032  20.0771809  75.1548843
  72.1582336  20.8337803  74.8779831  71.8758545  19.9504890  76.0742416
  72.9700241  58.0076408  46.6091576  72.9594879  58.9236870  46.3317108
  72.6461487  58.0263939  47.5097084  79.8654404  52.9499664  28.5275917
  79.1416016  53.1048317  27.9207134  80.4398956  53.7070656  28.4133968
  29.0403309  24.7002048  17.4942265  28.4277382  25.0003109  16.8227367
  29.6952610  25.3961067  17.5491791  83.7778702  20.2051907   6.7696829
  83.5267639  21.1130714   6.5995989  84.0882645  20.2081509   7.6751566
  68.3722763  21.7986679   7.6102743  69.3071060  21.5943718   7.5861077
  68.1326065  21.9326477   6.6933007  19.0722485  38.9616089  18.2731571
  19.7098064  38.9032555  17.5615768  19.4306507  38.4023018  18.9623280
  45.6347656   2.0190775  28.4490833  46.0132637   1.3185990  27.9177628
  44.6888390   1.9022505  28.3607483  56.6443100  52.2953606  12.5098696
  56.7173882  51.4072113  12.1604738  56.5137062  52.8463478  11.7381258
  46.7146950  38.8912964  57.1383400  46.6802254  39.7186508  56.6582069
  46.7862663  39.1503220  58.0570450  35.8893585  47.9406052  18.5658607
  35.1567650  48.4356117  18.9326096  36.2931633  47.5147972  19.3220749
  82.4453506  38.1309853  86.7109299  81.6508255  38.3187637  86.2112350
  82.3249512  37.2345924  87.0243225  20.7361851   2.2169640  77.5380478
  19.8961926   2.4155543  77.1242752  20.7887878   1.2612783  77.5266495
  79.0265274  21.2863903  41.1271477  79.2017136  22.1971149  41.3640480
  78.0752792  21.2010555  41.1908951  55.2044182  52.3923378  41.7539368
  55.0035553  53.3272514  41.7112846  55.3489265  52.2206154  42.6844521
  16.3611870   1.1753398  57.9096451  15.8224564   1.8818754  58.2657471
  16.8480053   0.8421281  58.6634407  73.6944046  36.0009384  80.4841385
  73.7731552  36.8396530  80.9386597  73.0233765  35.5252724  80.9737244
  43.5518951  31.4459896   7.9661489  43.0236168  31.4333782   8.7642679
  42.9210052  31.6038399   7.2638016  16.6834183  69.3873444  85.5748672
  16.3244362  70.1466370  85.1156921  17.3173485  69.7568436  86.1895447
  49.1339531  25.2440166  70.0195084  49.6121216  24.5272560  70.4364548
  49.3855591  26.0215893  70.5178070  33.7315865  42.0726357  10.9177074
  33.6045876  41.7338257  10.0315294  34.3562546  41.4678993  11.3181000
  16.1118984   3.1436505  82.5298157  16.8079739   3.5215285  81.9923019
  16.4118462   2.2547486  82.7198563  29.9336491   0.2542780  53.6091309
  30.1338749   0.7203417  54.4208755  29.8797245  -0.6656265  53.8681679
  50.4655190  24.5045013  51.5227051  49.6705589  24.9437485  51.8249092
  50.2880325  24.2916965  50.6064949  78.3454895  64.8327026  31.8967972
  78.0577240  65.6979446  32.1879692  78.2794647  64.2830048  32.6776352
  60.6653633  27.4461651  81.7148590  60.0913582  26.8016624  81.3008881
  60.4380302  28.2750092  81.2934647   0.5005346  35.1629524   2.3179975
   0.8807923  35.7386932   2.9814427   0.1693248  35.7583046   1.6456228
   2.2102275   6.7051640  61.1703682   2.4793630   7.0607095  62.0173531
   1.2865677   6.4825335  61.2866440  53.6982803  47.7853661  68.9394150
  54.0166359  46.8847809  68.8775558  53.0536385  47.8603821  68.2358170
  81.5172653  24.8398266  71.3343811  82.2770386  24.6383171  71.8806076
  80.8230209  24.2735462  71.6714096  79.4509048   6.3528032  33.1899109
  79.3728867   7.3012533  33.0870132  79.8926163   6.0609021  32.3924675
   5.8337202  14.3956861   4.0912161   5.8417439  14.1579361   3.1640472
   5.6560612  15.3362446   4.0957637  66.4630432  20.4282990   9.0604954
  67.2539368  20.4222603   8.5213451  66.7313614  20.8543758   9.8745556
  26.3964481  11.3392448  89.0839386  26.7240658  11.6224842  88.2303162
  26.3476620  10.3856106  89.0173645  26.4406376  58.5485039  15.4174843
  25.7866459  58.0619812  14.9156637  26.5246048  59.3828812  14.9559689
  83.6220474  69.8933792  64.7540817  83.0851746  69.3644333  65.3441772
  83.7373581  70.7242126  65.2152176  34.5711136  40.4516068  81.8037415
  35.2922821  41.0172424  82.0797882  34.1109505  40.2369804  82.6151733
   3.8859622  47.8995552   8.3584967   3.5648515  48.7481422   8.6634951
   3.5501173  47.2721977   8.9987030  41.8130074  40.3302765  19.5682449
  41.5046806  39.4764099  19.8716869  41.2044525  40.9573669  19.9589481
   7.4702139  71.0181885  53.0434494   7.4954481  71.7335968  52.4080124
   8.2892075  70.5433121  52.9021225  15.0892134  22.6827202  62.7405930
  15.8176527  22.2165527  63.1508331  14.3250751  22.1328735  62.9137764
  16.4273529  27.0783195  65.0853806  17.2723961  26.6413422  65.1911392
  16.6493607  27.9995174  64.9499588  85.8257904  66.1305237  56.9531250
  85.4467773  65.4610291  56.3836021  86.6686172  66.3387604  56.5499954
  28.7827263  25.5270500  88.4174576  28.3444042  24.6783886  88.3551636
  28.5146313  25.8731804  89.2686615  27.0483341  62.6335640   1.8512642
  27.5285530  62.1870766   2.5485961  26.5358601  63.3032379   2.3041887
   7.7339025  13.1452961  14.4006844   7.9348540  12.8977108  15.3032093
   7.8383789  14.0966377  14.3843784  74.5388107  49.0301666  19.5640602
  74.8855438  48.1418228  19.6468506  74.9158707  49.3593750  18.7481689
  55.5328445  30.5124569  15.4816952  56.1673203  31.2263203  15.5455465
  55.1245193  30.6309242  14.6241016  47.1187706  65.8595276  65.1805344
  47.2030144  65.0245895  65.6409912  46.8700294  65.6171112  64.2885742
  70.8897324  51.8487244  83.3130264  71.1392059  51.3236961  84.0735168
  71.2990570  51.4044189  82.5705490   0.6591052  36.1768303  29.0042305
   0.5247175  36.1511383  29.9516010   0.3380255  35.3302345  28.6937275
  53.2931137  59.3775978  59.4416847  53.2936401  58.4618301  59.1631165
  53.3169899  59.8763733  58.6250534  47.3046303  49.7951736  79.5752945
  47.5566406  48.8852234  79.7324905  48.1286392  50.2417336  79.3808060
  23.4520512  61.6942558  76.9775238  24.3962669  61.7968750  76.8585434
  23.2079601  60.9984398  76.3672104  23.6068745  64.5366287  76.9133911
  24.1607685  65.0438232  76.3199310  24.0040741  63.6658249  76.9262009
  26.6462135  70.1546631  80.9700928  26.6448994  70.3258057  81.9118652
  27.5017891  69.7608414  80.7994156  83.3860931   7.3021922  61.6077652
  82.5741425   7.8057752  61.6658707  83.0991592   6.4020271  61.4541283
  19.2194633  25.2249165  79.5116730  19.5824223  24.4433651  79.0949326
  19.9796581  25.6745129  79.8807220  71.8009262  70.6051331  53.2083359
  71.7735825  71.5554581  53.0971260  70.8880997  70.3541794  53.3497543
  66.5509415  31.6773071  10.4032469  66.0598679  32.4067841  10.0251675
  67.4649429  31.9592152  10.3663769   9.2386808  55.1883278  57.7481804
   9.3066578  55.2885628  58.6976852   9.1953897  56.0846977  57.4151993
  55.8294258  32.4466743   1.2045524  56.7510147  32.6843452   1.1024805
  55.3871002  32.8850288   0.4776273  83.4758530   6.7235422  26.1575642
  84.2311020   6.1424084  26.0674858  83.4105759   7.1645107  25.3104992
  42.5052795  44.5497284  84.3547974  42.4726562  44.8874588  83.4597549
  43.3195496  44.0479088  84.3919144  73.7650757  62.7919388  58.5117760
  73.5447845  62.3808937  57.6758690  73.1473694  62.4112129  59.1360474
  84.8785706   1.1866630  46.9969215  84.3317108   0.4834234  46.6467361
  85.7757263   0.8773935  46.8716469  17.2039261  46.3200607  77.2489090
  17.7939816  46.6487389  76.5706482  16.3276463  46.4410019  76.8832092
  82.0416260  29.8545742  65.9543686  81.1653061  29.5471115  66.1862183
  82.0905533  29.7447033  65.0047531  11.1052742  49.1605835  63.6384506
  10.1695242  48.9832497  63.7341423  11.3129864  49.7490311  64.3642731
  25.5658493  50.5320969  67.9992523  26.4600105  50.6152649  67.6679077
  25.2838326  51.4332275  68.1562958  70.0789413  53.4692039  66.7459717
  70.8862076  53.8845978  66.4426651  70.3347321  52.5698891  66.9509964
  68.3894653   3.8878186  78.9921494  68.0958328   4.4644761  79.6974716
  67.6027527   3.7268875  78.4711685  30.1422272  61.9360924  69.3670959
  29.7041988  61.1150703  69.1428452  30.3305817  61.8593636  70.3024368
  67.3709106  53.2760086  31.4155331  66.8911133  52.4647789  31.2483807
  67.0432663  53.5778313  32.2627563   0.6339986  22.3959522  61.5670357
   1.2220446  22.7079678  60.8792267   0.9372773  21.5081425  61.7569046
  31.3976078  56.0213051  30.5515499  30.5441933  56.1329002  30.1326694
  31.7416229  56.9106522  30.6349106  49.8934021  11.4177046  28.8192120
  49.6754723  10.9097261  29.6006813  50.0924034  10.7594070  28.1534233
  17.4154892   1.2425201  55.4284477  17.2645760   0.3693718  55.0664139
  17.0852356   1.1902841  56.3253517  49.9888306  53.0960770  82.4515228
  49.0681305  53.3164787  82.5928345  49.9968452  52.1425056  82.3686447
  62.0914154  50.0250282  19.5101891  61.4581490  49.3654861  19.7934055
  61.5553169  50.7654610  19.2262993  77.7091827  43.1907272  76.5314407
  78.3349533  43.5499649  75.9024811  76.9008942  43.6772728  76.3696442
  46.7075386  33.6307220  10.9794130  46.6028404  34.4545326  10.5033770
  47.4273758  33.1855583  10.5323191  55.7447166  60.8257256  79.5077591
  54.9001923  61.0517273  79.1179733  56.3715897  60.9159355  78.7900391
  41.5565834  35.1468620  20.4185028  42.1494675  34.6459808  20.9787159
  40.6907806  34.7800598  20.5976009  59.8176575  13.3167858  44.3981285
  60.2646942  12.7948866  45.0644722  59.9907570  12.8561125  43.5771255
  67.5717087  27.7341862  13.6550446  66.7304993  27.4210796  13.9875460
  67.4845886  28.6873322  13.6426659  70.1069565  51.0549736  70.6954498
  69.8612442  51.8595467  70.2388077  69.4442978  50.9556122  71.3790054
  33.4607010  30.0542488  24.5434780  34.0877533  29.3486214  24.7019997
  33.6742210  30.7165508  25.2007446   2.6275325  11.9461842  86.7186356
   2.9747918  12.2764845  85.8900528   1.7082908  12.2130575  86.7164536
  82.5279312  48.1092148  41.3826561  82.7514114  48.5491447  40.5624428
  82.9770737  47.2654495  41.3319817  66.6883621  63.0780830  36.5343437
  66.7261963  63.8562622  35.9782524  67.5977554  62.9207001  36.7882500
  62.4613762  12.8608189  82.7471771  61.6566811  12.5908833  83.1897049
  63.0242157  12.0873098  82.7807465  35.6863937  13.4719791  33.5737495
  35.9335289  13.7941046  34.4405785  35.0278893  14.0946093  33.2656326
  25.9853058  50.3069496   1.2789170  26.6293259  50.8601875   1.7209551
  25.6789303  49.7063332   1.9583489  18.4348660  58.1808586  54.9182777
  17.6315460  58.5617752  54.5635796  19.0832882  58.3003082  54.2243652
  48.4176445  63.0014000  87.8271866  48.0472069  63.6428032  87.2208786
  49.0347786  62.4982262  87.2959671  26.7463112   7.5354915   3.6649821
  27.5092945   7.7849054   3.1435590  27.1130695   7.2250657   4.4928441
  10.2768965  65.9533615  18.5922527   9.3995171  66.0048218  18.9714470
  10.4825821  66.8539047  18.3413486  55.7039528  64.8226624  61.7308159
  55.7708015  63.9804039  62.1806641  55.9417686  64.6294022  60.8239937
  31.7855701  69.4328537  21.4148750  32.2195930  70.1166458  21.9250546
  32.1642647  68.6155777  21.7387314  68.7019730  58.3973274  78.2555389
  68.8901367  58.6010056  79.1716995  68.7715454  59.2384644  77.8040085
  60.8710289  55.7081337  72.8430786  61.4827271  56.2912636  72.3936234
  60.2880249  55.3938904  72.1520004  15.6513042   0.9279688  43.4344864
  14.7232943   1.1068851  43.2827682  15.9749269   0.6103349  42.5915070
   8.4048691  49.7245140  70.6676865   7.4675689  49.6338120  70.4960098
   8.4663849  49.8168678  71.6184387   8.5806322  46.9071274  54.3313675
   8.1670818  47.5821571  53.7932739   8.4986162  46.1054688  53.8147926
  38.0529404  14.9033432  34.1365471  38.2259750  15.3743372  33.3214073
  37.5442429  15.5182314  34.6651039  49.3913422  32.0976334  12.4269676
  50.2089310  31.6065559  12.3455801  48.7559700  31.5903969  11.9217463
  36.1659088  49.8159218   9.3712664  37.0181770  49.5185585   9.0527525
  36.1487312  49.5522232  10.2912655   2.5657125   3.7075057  30.1218452
   2.6401610   4.4548798  30.7152443   3.1266661   3.0362983  30.5104885
  34.6600914  54.8998413  21.3247185  35.4347649  54.6807709  20.8069153
  33.9562073  54.3826103  20.9332371   1.4161507  23.9819145  47.2709503
   1.9073213  24.0622234  46.4533081   1.2452639  24.8852558  47.5374146
  58.9537392  10.6547480  19.7962437  58.7255936  10.1606112  19.0088348
  59.2414818  11.5070686  19.4691582  67.6307983  23.1308174  84.2867584
  68.5182800  23.1218605  84.6452560  67.7550964  23.2186604  83.3417358
   4.8146825  61.0813484  83.9092941   5.4653358  60.4332123  84.1791077
   4.2475343  60.6112671  83.2980652  51.8375969  12.6592913  70.4323578
  51.2742996  12.1416817  69.8570251  52.2764816  12.0116129  70.9838333
  75.5719528  16.1383648  69.9836578  75.4153290  15.2049551  69.8406754
  74.7581100  16.5622711  69.7112885  22.3633480  46.7856750  39.2050896
  21.8940411  47.4952888  38.7664185  23.1997032  47.1742439  39.4615173
  49.2296600   3.2089424  58.0053864  50.0873642   3.5689340  58.2311821
  49.1860390   3.2743609  57.0514221  55.9585495   8.5482407  73.5646286
  55.5709190   8.9651356  72.7951050  56.0699997   7.6322393  73.3101654
  10.8275404  46.3907509   3.3111234  11.6229382  45.9521484   3.0091310
  10.3689461  45.7270660   3.8263371  49.6904335  15.0533562  87.2872543
  49.1705704  14.5340691  86.6738052  49.4484406  14.7175426  88.1503296
  15.1846733  58.5313644  60.4411011  15.3914747  57.6577911  60.7732582
  15.3150911  58.4650040  59.4951515  59.7803993  18.2167397   2.9321220
  59.9025002  17.3317242   3.2757344  58.9924126  18.5374107   3.3708496
   7.0110164   6.4866185  76.9481201   6.1006861   6.2424808  76.7810059
   7.3392754   5.8023744  77.5314636  78.3971405  61.5994225   4.1054134
  78.2309570  62.4086075   4.5889754  79.3423080  61.4667358   4.1781616
  19.3622112  48.1167946  84.9014053  18.5796680  47.5991440  84.7119446
  20.0330486  47.4678497  85.1137238  67.9287109   5.3728142  40.6838913
  68.6936493   5.9482193  40.6806564  67.5588303   5.4611640  39.8054771
  67.0223236  28.7621937  28.1231384  66.5871658  29.5627537  27.8299274
  66.3488770  28.2885818  28.6113930  83.3713837  37.4869003  82.4833908
  83.1574402  38.1584320  81.8357010  82.7442703  36.7835541  82.3152695
  69.9802704  35.1410904  23.9802971  70.4872208  35.9367943  24.1418190
  70.2961197  34.8234482  23.1343822  12.1134863  18.8225517  50.0678635
  12.5075922  18.0359459  49.6908188  12.3968811  18.8177528  50.9821358
  77.2498016  13.1265697  49.5121193  77.5737076  12.3323994  49.9370995
  76.5587463  12.8193913  48.9253311  76.2068558   0.0657659  66.4621735
  76.9464111   0.6019203  66.7482300  75.9798050  -0.4584347  67.2302170
  23.4626980  40.8327293  82.2823257  22.8215561  41.5434647  82.2869797
  22.9861832  40.0780411  82.6281738  73.4788055   4.5151033  39.2554588
  72.6511612   4.9464607  39.0429306  73.8735809   5.0717673  39.9266586
  36.6288185  30.4510498  19.3216076  36.9578247  29.6794090  19.7826443
  36.4340248  31.0801392  20.0162544  43.4917412   6.5087647  84.2296143
  43.9127884   6.8248949  85.0289993  42.5630798   6.7041602  84.3546906
  63.4946175  46.9725990  80.2884903  63.3178635  47.6667480  80.9234314
  62.7570457  46.3696060  80.3813095  34.4342384  12.5806351  18.3917999
  34.8915405  11.7424631  18.4594326  33.8455772  12.4727087  17.6447659
  16.6126595  17.3054695   2.5690818  15.9958820  17.6905556   3.1915967
  17.4756641  17.5153522   2.9260173  68.8616791  30.5342693  44.6710281
  68.1517868  29.9202385  44.4832573  69.3816299  30.0997715  45.3471184
  36.7759628  18.9908199  19.6377583  36.0195961  18.4047298  19.6124916
  37.1390839  18.9515095  18.7529831  31.0455551  44.7870102  74.0884323
  30.7567825  45.4742966  74.6888275  30.9445400  43.9758759  74.5865097
  41.9188080  14.1693459  87.8742752  41.1789207  13.5626488  87.9010773
  42.6919098  13.6053753  87.8962021  69.7254028  46.6508064  28.5160618
  70.0380249  46.8670731  29.3945427  68.8960800  46.1957397  28.6622410
  10.0496988  23.6906776  27.7418404  10.7287922  24.1556435  27.2530975
   9.7897873  24.3018112  28.4311848  64.2544937   9.7767420  55.1048622
  65.0003967   9.3630295  54.6704597  64.6216736  10.5573406  55.5196838
  35.7523842  52.4852638  64.7568741  35.2864151  53.2877007  64.9918365
  36.1789169  52.6908302  63.9249840  27.7342777  11.1629524  35.1303520
  26.9706669  11.3346443  35.6813965  27.5302753  11.5902557  34.2984695
  32.8073845  67.3031464  57.1828232  32.7577400  68.1475525  56.7347794
  33.6033669  67.3589706  57.7115288  21.5775700  39.2880936  84.5148697
  21.1235008  38.9171219  85.2714615  21.5403404  38.5989456  83.8516083
   2.1398735  39.6475906  25.5713425   1.7123073  39.0519562  26.1866779
   1.7181944  40.4931831  25.7242794  43.4582825  16.4630489  13.9802141
  43.7768288  15.5625238  14.0419798  42.5126801  16.3749409  13.8606024
  21.0802383  62.7247467  82.2298508  20.7955036  62.1447296  82.9360657
  20.7986679  62.2828789  81.4287872  59.5182991   7.5995302  18.9186821
  58.5914421   7.4511285  18.7312183  59.8832245   7.9113498  18.0905342
  23.2649727  40.6852646  14.0517769  22.7900162  40.6807022  14.8828182
  24.0442142  40.1549149  14.2183456  22.0058613  16.1457558  61.9057922
  22.5756321  16.1414738  61.1366539  21.4633293  16.9269009  61.7976151
   2.1237683  59.9442482  32.5213356   2.6947703  59.8188438  33.2792664
   2.6941285  60.3215637  31.8515930  12.4115973  50.1786423  68.7428284
  12.0850992  49.2854271  68.6341858  11.6603966  50.6693535  69.0761871
  52.3096313  53.8432465  66.3115082  51.4957275  54.0254211  66.7811890
  52.6577911  53.0568390  66.7317200  22.8049870   9.1459904  80.9621201
  22.8512402   8.2013550  81.1096191  22.3927574   9.2343235  80.1027603
   5.6042452   3.9156010  69.8063126   4.9191914   3.2528105  69.8937302
   5.7262392   4.0108218  68.8617020   3.3268847  55.7897911  79.7826767
   3.2290556  56.7413292  79.8178940   2.5573595  55.4527588  80.2414474
  62.1924858   6.1615448  22.7518883  62.9234276   6.7261248  23.0032959
  61.8399239   6.5651078  21.9587498  12.2482700   9.0834923  69.7963562
  12.7191238   9.3705254  70.5787506  11.5759850   8.4874878  70.1265717
  58.6739349  16.7400875  29.0363560  58.7024918  16.6202698  28.0871143
  57.7502174  16.8998089  29.2299271   7.8453536  59.8856087  21.1382275
   6.9394217  59.6098404  20.9986839   8.1217842  59.4118919  21.9227085
  77.8346786  28.8501472  17.7251072  77.9152069  28.2985210  16.9469967
  77.2939911  28.3382759  18.3266697  75.4509888  49.7139359  81.9213181
  75.5309906  50.3532143  81.2134018  74.7134705  50.0273476  82.4448471
  64.9209747  52.0803986  77.0849533  64.2895813  52.5935249  77.5892105
  65.1834335  51.3751717  77.6765594  44.1207352  51.0765038  39.0858345
  44.1021576  50.1212044  39.0285110  43.6128578  51.3717155  38.3300972
   7.2367659  52.1066818  63.1369400   8.0112906  51.5600853  63.0043678
   7.4961691  52.7288628  63.8165207  13.4773645  47.2206688   2.9682329
  12.5899372  47.3664322   2.6404243  13.3833380  47.2176323   3.9207985
  33.2236366  51.4481812   9.9409924  32.9152641  51.8846512  10.7351151
  33.3301620  52.1554871   9.3049078  61.9261932  23.9063816   7.6133909
  61.2031174  24.5120525   7.4504271  62.5996017  24.4439621   8.0302362
  68.0322723  71.0204697  12.0000620  67.2227478  71.2304840  11.5344496
  68.0513840  70.0638580  12.0277405  35.3067055  39.9602509  11.9643478
  34.6673470  39.5766296  11.3641100  35.9584084  39.2710075  12.0926275
  79.6997986   4.9340029  26.8298988  79.5764847   4.9565463  25.8809433
  80.4866867   4.4039311  26.9566441  48.3034744  23.2139740   8.5664454
  48.9256401  23.8511868   8.2155838  47.5742569  23.2248230   7.9464817
  86.1312103  60.0005798  84.6876602  85.1754303  59.9734688  84.6431046
  86.4071579  60.1992760  83.7928925  78.9173965  63.1517639  55.0992775
  78.4041519  63.2509956  55.9011269  78.4468079  63.6717110  54.4477959
  66.3485870  56.4375153  18.1299114  66.6249084  55.5210648  18.1306973
  66.1663513  56.6319389  17.2105522  55.4867172  10.6835899  10.0301743
  56.3228989  11.1468306  10.0795746  55.5677261  10.1248913   9.2571764
  59.4846687   5.3817239  20.7226982  59.2512627   6.1769109  20.2437077
  59.0000343   5.4468303  21.5455723  54.0291290  20.9444809   5.7878361
  54.9340363  21.0376072   6.0856605  53.8809586  21.7077789   5.2295771
  29.8306465  54.2685280  88.0850220  29.3603306  53.8906136  88.8281326
  30.3903217  54.9412727  88.4728546  34.3900223  67.4435196  76.5320358
  33.8917465  68.0529175  75.9874344  34.2862320  66.5959320  76.0995331
  20.8007698  65.5107880   2.8614321  20.2554970  65.5787430   3.6451988
  21.2153301  66.3699646   2.7828345  86.2675095  67.0376892  73.9700241
  86.8473892  67.1922989  73.2243271  86.3567886  67.8231583  74.5097504
  60.9594574  61.4180679  33.4649544  61.8692169  61.7016144  33.5553703
  60.4526939  62.0901337  33.9207458   5.7571406   9.2464752  11.4892387
   6.2459750   9.7020016  12.1746349   6.4314194   8.8874788  10.9124355
  58.4934235  63.6769905  76.8869705  58.0936928  62.8250465  76.7119217
  57.7611084  64.2365875  77.1454163  31.6377068  62.9313850  24.8742085
  32.4836273  63.3499985  24.7147923  31.7814884  62.0103645  24.6567726
  61.4451981  64.4601974  59.8120804  61.7064972  63.8500977  59.1223526
  62.2300568  64.9815521  59.9806480   8.9054556  26.1572075  63.9046059
   8.7620535  27.0293617  63.5371590   8.0874939  25.6891899  63.7368889
  73.9693985  22.5847015  37.7633667  74.2217789  23.5077991  37.7426109
  73.3277359  22.5276909  38.4713554  33.2836380  44.3205490   2.5425901
  32.6007385  43.9481354   3.1004350  33.3105125  43.7435532   1.7793164
  40.1068230  52.1727219   7.4382658  39.9445992  51.6434593   8.2191591
  40.4705276  51.5564423   6.8025384  13.5096121   6.0463328  17.4729443
  12.8395510   6.6429324  17.1392994  13.2421427   5.8655992  18.3740692
   7.5297790  46.2227554  80.7245560   7.5362711  46.2681160  79.7684555
   8.4380808  46.3865891  80.9782867  27.0145168   9.0357847  52.0239182
  26.0831928   9.0761032  51.8065681  27.2463360   9.9359512  52.2523804
  62.6487617  68.2165833  68.9016495  62.8510895  68.3454895  67.9749985
  62.0973320  68.9641113  69.1326447  27.0967560  56.4386330  22.3317051
  26.1554127  56.2850533  22.4124489  27.4734020  55.5654411  22.2225857
  18.2521973  15.0264549  14.3708897  18.6019974  14.2838383  13.8785563
  18.6096783  15.7965803  13.9289103  27.5886288  11.6454878   8.1885948
  27.6498795  12.0472927   9.0552168  27.2224236  10.7764931   8.3528376
  38.1495209  42.1353035  18.5687332  38.7959328  42.8409271  18.5466728
  37.9753304  41.9411774  17.6477528  19.8439960  52.2043571  69.0698471
  19.2791805  52.8598061  68.6604538  20.6795349  52.2875519  68.6102982
  68.0544052  71.2800217  28.4006863  68.1809464  72.2174377  28.5472393
  67.7670746  71.2166443  27.4898338  60.7378807  66.2062912  13.5823174
  60.0982666  66.9104004  13.4757566  60.4128189  65.6978455  14.3253183
   5.6965084  58.4372711   1.2538251   5.5150270  57.6775360   0.7005623
   6.0088258  59.1072731   0.6457214  52.9555626  47.8183899  34.7513542
  53.8367767  47.7751312  35.1226006  52.4617767  48.3580170  35.3687744
  22.2274113  19.5836315  82.7460938  22.3154507  18.9047184  82.0770950
  21.7862530  19.1464233  83.4744186  31.5126247  25.4826374   2.4263337
  31.5692787  24.5994701   2.0615885  31.2316036  25.3502750   3.3317280
  84.4068756  21.7602196   3.9930923  83.8017273  21.0593872   3.7504680
  83.8706741  22.5530968   3.9851248  66.3029251  52.0853615  40.5166016
  66.9917297  52.7285843  40.3491287  66.4368362  51.8226395  41.4272499
  85.1698532  54.7518997  80.3836365  85.4025803  53.8255424  80.3209229
  84.7891922  54.9614983  79.5307617  73.3975296  11.1492033  27.7003078
  73.5915222  10.7170153  26.8685551  73.4586563  10.4514809  28.3527470
  83.0756989  10.3414650  80.0962906  82.3045197   9.9734421  79.6649246
  83.8131714   9.8630619  79.7174911  77.1758881  59.6527748   8.2742128
  77.9335632  60.1004944   8.6506519  77.5190811  59.2147789   7.4953609
   7.8320665  35.1167450  44.5472298   7.7665815  35.4495468  45.4423218
   8.0855150  35.8787460  44.0263214  75.5495605  27.2103252  36.9544411
  75.1218567  27.9553719  37.3765907  76.2412491  27.6018887  36.4210777
  33.8630333  11.7915497  60.3790321  33.8377609  10.9851694  59.8639145
  33.8570175  12.4924564  59.7271690  81.6969910  21.6205750  20.5583878
  80.9483185  21.9155579  21.0767612  81.3545837  20.8972816  20.0331860
  55.0583649   1.9394289  78.0873718  54.4938965   1.8903130  77.3158798
  55.0706978   2.8687556  78.3163528  13.2793694  67.9849243  69.8392715
  13.4324102  68.4016724  70.6872864  13.2049837  67.0521317  70.0407639
  39.7525864  65.3983994  25.8985977  39.6431618  65.8849335  25.0815639
  39.6894798  64.4789200  25.6401138  81.6160583  51.1591148  40.5541229
  82.3041992  50.7690926  41.0931778  81.6881332  50.7100258  39.7118874
  80.7191696  19.5546455  71.0058899  80.6081848  19.0852413  71.8326797
  80.0697861  20.2570362  71.0402069   1.9155979  26.2645035  72.4643936
   2.5724483  26.5651646  71.8363953   1.9240673  26.9268169  73.1554108
  80.2521667  55.1779251  50.2661057  80.9477539  55.8030548  50.4700737
  79.5477753  55.7138786  49.9016724  80.0984039  47.1784821  12.3712740
  79.7755814  47.3261108  13.2602186  80.8043518  46.5405426  12.4756823
  74.0384293  32.2055435  35.8818359  73.3467331  32.4534836  35.2683945
  74.5479584  31.5441284  35.4137077  71.6907730  52.0814476  37.5756950
  71.8953323  52.3910332  38.4580460  71.1892319  52.7952080  37.1817055
  14.9816628  55.4686737  23.9478607  15.8730879  55.3988800  23.6062145
  14.7902451  56.4063263  23.9279137  23.8362083  48.1303024  72.9711227
  24.1667099  47.7460175  73.7831116  23.6188068  47.3776894  72.4210815
  10.5484571  20.6414890  68.5461426   9.6130438  20.8340797  68.6105042
  10.9622021  21.2591457  69.1490936  49.0540619  62.4275360   3.6151340
  49.7352676  62.7486649   4.2059493  49.5034904  62.2962456   2.7802637
   6.7618995  36.5355797  70.7733841   7.2332172  37.3308029  70.5249786
   6.9067612  35.9334412  70.0435410   2.5037858  27.7888832  80.5576096
   2.3073301  27.6607914  79.6295853   2.9920833  28.6116161  80.5877304
  74.5692291   3.8547785   0.7530721  74.9995422   3.5776296  -0.0557873
  75.2893829   4.0594206   1.3495079  78.8805161  51.3853493  42.4512062
  79.3206482  51.8054695  41.7122803  78.4388199  52.1024437  42.9060822
  59.8403549  14.2383451  69.4626694  60.5438766  13.6020575  69.3345184
  59.1681747  13.9826717  68.8309708   1.2028645  55.1924171  81.1693573
   0.3146529  54.8566208  81.0487213   1.3441174  55.1616020  82.1155701
  27.1356201   6.0329375  21.8177643  27.8295784   5.5906525  21.3288479
  26.5234985   6.3334270  21.1460171  58.2233582  14.2287931  78.4544220
  58.8793831  14.6624184  79.0001678  58.7078743  13.9406948  77.6808167
  39.8658791  45.7323151  86.4687653  40.7054253  45.7820854  86.9258347
  39.2117691  45.8726616  87.1533661  79.0064697   2.8235869  87.0295029
  79.4825439   2.6968155  86.2088242  79.0612564   1.9763235  87.4715195
  56.1846008  13.5766697  54.3421860  57.0288696  13.2040424  54.5963326
  56.2823334  14.5167284  54.4937439  61.0111084   6.0888000  72.4796600
  61.2403030   6.1252127  73.4083023  61.0994873   5.1644683  72.2472153
  36.7184296  21.0329170  72.3906250  36.9282074  21.9656601  72.3435440
  37.5327492  20.5917740  72.1487427  43.4193726   9.2193899  81.3745880
  44.1202736   8.6081505  81.6012039  42.8576508   8.7281008  80.7751465
  11.2088861  17.2076664   7.0015893  10.6808071  16.5898380   7.5072098
  11.6993151  16.6587772   6.3896799   6.7460914  23.2778721  38.1188469
   6.8839440  22.5420895  38.7153816   5.8057675  23.2684059  37.9401474
  61.8037376  50.1606102  65.6143951  61.3683815  49.3601723  65.3211517
  61.9510117  50.6609688  64.8117828  15.2266035  44.1316185  65.1918640
  14.6029119  43.5324821  65.6020737  15.8804426  44.2984543  65.8707504
   4.2080369  48.7737312  29.6165447   3.9072676  47.8806381  29.7843418
   5.0495520  48.6638527  29.1738129  24.9223442   8.4651127  86.8474121
  24.3560143   9.0680714  86.3658142  25.6580372   8.3040037  86.2566223
   6.9602733  71.1329498  78.6121292   6.2233496  71.6378174  78.2682037
   6.9254594  71.2726669  79.5584335  22.0702038  58.9920921  50.7250404
  21.5005569  59.2275085  49.9927063  22.5282803  58.2055092  50.4289246
   7.3420057  12.2082195  27.4366779   6.4295840  11.9812384  27.6161156
   7.7693095  12.1772633  28.2926483  38.3791466  64.9664307  79.6203690
  38.1250496  64.0979691  79.9325409  39.3161201  65.0235672  79.8075943
   3.6105666   1.2932094  84.9859543   3.4032116   0.4213195  84.6497345
   3.0968173   1.8887242  84.4403763  64.9209671  71.5750809  27.3675690
  65.0914383  70.9080124  28.0325413  63.9818993  71.7473068  27.4363060
  78.5055161  44.4584236  87.1539230  78.0040359  44.0649834  87.8680344
  78.1026611  44.1105919  86.3583374  58.6701851  47.3037453   2.0720038
  58.8895035  47.9276123   1.3799633  59.2801247  47.5081253   2.7808304
  61.1778870  63.0882950  30.9843082  60.9746361  62.4406815  31.6592274
  61.7412796  62.6219368  30.3667927   7.2080326  50.0613403  78.4692917
   8.0483189  49.8466110  78.0642776   6.6573439  50.3481369  77.7407913
  45.7697449  60.0680428  40.2936821  45.0067749  59.5571938  40.5641327
  46.5149078  59.6092796  40.6816254  80.7760315  37.0899200  16.9750309
  81.3882065  37.5280952  17.5661983  80.2115326  36.5761337  17.5526028
  41.3994331  12.3890085  28.8674507  40.4570656  12.4501715  29.0237579
  41.4961166  11.6430044  28.2755375  49.3790703  11.2599630  80.9911652
  50.1088219  10.6441908  80.9239426  48.5971222  10.7156858  80.8986969
  40.0503044  55.6155243  32.7008972  39.5392914  55.3059082  33.4487152
  39.9314613  56.5653038  32.7063446  14.7347822  66.6796036  21.3953476
  14.9871950  67.5784378  21.1841221  13.9436054  66.5254059  20.8791161
  85.4727859  36.5876770  18.6163235  86.3095016  36.9915047  18.8466625
  85.7080002  35.8633766  18.0364151  32.1316071  44.6552353   6.6794238
  31.4049053  44.5763245   7.2974138  31.7616940  44.3850212   5.8389592
  37.0657158  60.3746872  17.7130814  36.7241287  61.0206947  18.3313255
  38.0167770  60.4403267  17.7991390  37.2736969  12.9818325  36.8825874
  36.9774399  12.2212763  36.3825684  36.7389984  13.7057991  36.5566978
   5.7363262   3.1308572  62.6908684   5.1576281   2.7720041  63.3635979
   6.5996833   2.7765701  62.9037704  29.1977081  44.7019043   8.4783201
  28.7176952  45.3682861   7.9866338  29.6944218  45.1965714   9.1300964
  48.4417076   4.6044922   5.3191347  47.4869843   4.6697278   5.3410034
  48.7470207   5.4845176   5.5395255  36.7713776  18.4680290   8.5824957
  37.3028374  19.2147026   8.8586521  35.9864006  18.8608875   8.2007780
  19.1112270  62.6063309   4.7506127  18.7855663  63.5036697   4.8210344
  19.7082901  62.6262207   4.0027142  69.1137543   5.3570943  45.7255249
  68.5313873   5.5059962  44.9806061  69.9089432   4.9909444  45.3384247
   8.2804146   8.3724222  31.7229309   9.0147781   8.9482946  31.5100632
   7.5117083   8.8274641  31.3790417  76.9045563  43.8649483  58.7037201
  76.5935593  44.7598610  58.8402748  77.8496780  43.9153976  58.8466682
   6.4203215  21.8476582  46.0225067   6.0340834  21.8508987  46.8983154
   6.5684161  20.9218960  45.8294716  46.9118156  53.9825325  20.7167873
  46.7162514  53.1512489  21.1491699  47.0447426  53.7491760  19.7980366
  64.6475143  32.7166862  82.6822662  65.5715714  32.6700897  82.9275818
  64.4920044  31.9159565  82.1813889  59.0652885  41.5843658  53.7137566
  59.6672821  41.0240479  54.2035294  59.5310287  41.7840958  52.9017067
  73.4934616  34.4210014  53.5382233  72.7409668  33.8327484  53.4754410
  73.9831009  34.1034203  54.2969284  22.2053032  51.9232597  83.8354187
  21.8476601  52.8102951  83.7967834  22.9495964  51.9386826  83.2337418
  16.7263260  32.7027664  16.7070618  16.6306705  32.3261147  15.8322964
  15.9011993  33.1627769  16.8613033  58.2147293  23.8318291  18.4206276
  58.1224518  23.0750446  18.9994144  58.9996376  24.2800274  18.7357006
  14.6045904  44.3256226  67.9516830  15.2104568  45.0394669  67.7527237
  15.1683464  43.5645027  68.0899124  25.8067703  62.4950638  40.4153290
  25.7671623  62.3270035  41.3568268  25.9501534  63.4389458  40.3463402
  55.2560539   4.4083314  85.8180084  54.6522217   4.0101242  86.4449387
  54.7291107   5.0640535  85.3612900  39.3829041  64.3887100  69.1697922
  39.5831337  65.0188217  69.8619614  39.1350899  64.9283218  68.4190292
   9.0647001   6.9071798  64.5432281   9.7624655   7.5106230  64.7985916
   8.6242762   7.3448181  63.8147125  72.6369553  21.0975685  85.7410583
  72.3074493  20.5827446  86.4776840  73.4223557  21.5264168  86.0808716
  11.9462671   9.5264244  24.7190800  11.8593197   9.3017616  25.6454716
  11.2975292  10.2159519  24.5779343  57.9897385  27.4316788  74.6815414
  57.1404190  27.2483692  75.0831375  58.4960670  26.6305313  74.8157883
  10.9996548   3.7331610  28.2728977  11.9411173   3.6223698  28.4055882
  10.7281961   2.9407871  27.8095570   2.8025780  23.7231293  54.6736794
   3.4883041  23.1627941  54.3103142   2.1095099  23.7122002  54.0135536
  57.3142548  36.8873405  53.6520042  56.5438576  36.5250702  53.2144165
  58.0003395  36.2356987  53.5075073  69.0012970  65.8995972  21.2841282
  69.1655121  66.3633881  22.1052017  69.8650436  65.8137283  20.8806515
  35.2238503  59.5378647  72.9957657  35.6493492  59.3607368  72.1568298
  35.2382584  60.4916763  73.0749664  76.0304413  67.5146408   7.7276292
  75.1382904  67.6139450   7.3953080  76.5491486  67.2854919   6.9564881
   5.4379101  11.8749866  10.1374912   4.9157166  11.5627861   9.3985214
   5.6793556  11.0800800  10.6129494  75.1431961  32.7474976  15.5146780
  74.5895309  33.3822556  15.9694023  75.2960052  32.0572853  16.1600380
   6.1392450  35.8893623  82.5861664   6.5583014  35.2880936  83.2018814
   5.7568898  36.5705948  83.1392975  58.9560432  31.6521416  87.9622192
  58.7374992  30.7273579  88.0773087  59.6117630  31.6583080  87.2649155
  56.5373039  61.8714218  30.6595955  57.4338608  61.5773964  30.8207397
  56.0310631  61.5048141  31.3845444  26.1838493   9.3140173   8.4691315
  25.5776443   8.5838928   8.3439627  26.1467495   9.4979067   9.4077682
  42.0981293  65.0266876  59.7150879  42.9524765  65.2371521  59.3382225
  42.0727997  65.5143585  60.5383530  51.2463264  55.5311813  43.5094681
  50.4375229  55.6864395  43.0216522  51.9397392  55.8477440  42.9305077
  63.3882980  40.5814552  87.1857529  63.7464104  40.9898987  86.3976135
  64.1537781  40.4033546  87.7321548  86.6940002  58.6715851  52.1755714
  86.8758011  59.6097565  52.2304993  85.7391129  58.6106834  52.2024727
  79.6377792  65.5106659  80.3983612  80.2024612  64.9772491  79.8390503
  79.9677505  65.3608322  81.2843094   4.8913045  14.8954191  42.0573502
   5.4422622  14.1404953  42.2641487   4.1263351  14.7960653  42.6240807
  49.2363625  58.0017891  76.7430954  48.9403648  57.2688255  77.2828979
  48.5130119  58.1599350  76.1364746  69.3756027  27.9423084  64.9604111
  70.3108292  27.7922039  65.0984344  69.0858307  28.3934135  65.7533569
  14.9862814  12.3595476  52.2329521  15.6974335  12.4324007  52.8694954
  15.2345209  11.6185045  51.6802635  23.7382889  11.0258017  13.2157269
  24.0554867  11.4012070  12.3943329  22.7869282  10.9968357  13.1142130
  51.4179153  69.1263657  11.3716669  52.3482285  69.1047516  11.1474285
  50.9854393  69.4236679  10.5711613  49.3031883   0.7060549  35.1191330
  48.5696030   1.2945045  35.2974854  49.2446785   0.5280176  34.1804581
  38.6074104  57.4636536  82.7615051  38.3825455  56.6672211  83.2425156
  37.7698059  57.9072380  82.6277847  43.4897461  35.8630104   1.9407471
  43.1333084  36.7009354   1.6456838  42.8520508  35.2136993   1.6441519
  25.9101372  18.1337242   0.8019251  25.5171356  18.1299381   1.6747174
  26.7577972  18.5616207   0.9227923   7.6586971  29.1299591  67.6299133
   6.8242965  29.3290615  67.2052155   8.1131840  29.9713650  67.6712646
  25.3618851   5.9712119   1.9186834  25.5477028   6.8196898   2.3209131
  26.2153111   5.6543198   1.6229178  72.7908325  39.1983566   0.3750243
  73.0858383  39.9464684   0.8941879  71.8450089  39.1653404   0.5184479
  12.8052769  68.5522003  39.2612076  12.6926537  68.0179749  38.4749832
  12.3945742  68.0413437  39.9587593   5.5257440   4.4581275   3.4923000
   5.7935324   5.0121613   2.7591097   6.3359714   4.2889428   3.9730704
  35.1612854  70.4418716  73.5213852  35.8026085  69.8083191  73.8431702
  34.3844528  70.2908630  74.0598602  82.7426834  56.3482704  50.9435005
  83.2126389  57.1376228  50.6746140  83.3035812  55.6268387  50.6586075
  59.7689323  27.6972828  20.1571007  60.0433426  27.2030506  19.3846607
  60.5874023  27.9326267  20.5940838  44.0094032  50.3299484  87.5978622
  44.5672836  50.1489449  86.8413925  43.8205338  49.4676399  87.9679718
  73.4578934   8.0649395  64.9531174  74.2055969   7.5020857  64.7521973
  73.4469452   8.1165495  65.9088593  80.1329422  44.4293137  66.2331848
  80.6396332  44.8203125  65.5214157  80.6805878  44.5464058  67.0094604
  65.9529190   0.3432790  15.3964834  65.8539886   1.0433954  14.7512846
  66.6926422   0.6191334  15.9377260  36.5716743  37.5761986  81.9532013
  36.4407082  36.6927605  81.6087875  36.8675346  38.0858955  81.1989441
  -0.1137062  17.1797123  63.4573860   0.2003033  16.8628445  64.3042755
   0.4527158  16.7505836  62.8161011  39.7232285  11.4487276  19.9840717
  39.8200340  11.8376017  20.8533459  39.8295326  12.1834421  19.3798161
  63.2830429  44.3538589  54.8981781  63.1143646  44.0211334  55.7796936
  63.0674515  43.6217079  54.3205032  43.9087791  16.5009117  17.4382572
  43.5557709  17.2047501  17.9825230  44.2765427  16.9487572  16.6764069
  68.1891861  69.0825653  88.7673187  68.1994247  69.8667679  88.2185440
  67.2748413  68.9892654  89.0347061  44.1001511  38.8666916  84.2876358
  43.5424004  38.7552910  85.0575256  44.4862976  39.7358971  84.3953705
  76.0285797   1.9807143  31.1307583  75.2599640   2.3751011  30.7185459
  76.1043549   2.4280291  31.9736099  67.1378403  11.2240715  13.6633120
  66.2051544  11.1846409  13.4517202  67.5579300  10.6811361  12.9962454
  41.9630852  15.4672012  85.4286957  42.2965965  16.3643436  85.4170685
  41.9583511  15.2254171  86.3548431  75.5484772  27.8145409  22.8257427
  75.1099548  27.0462608  23.1913548  75.9772263  28.2254696  23.5764389
  65.0433426  53.5963135   2.3727825  65.4961548  52.9347076   1.8498381
  65.3660431  53.4596367   3.2635226  77.1685410  20.7755127  85.7498627
  78.0140152  21.1987572  85.6006241  77.3906937  19.8803120  86.0057831
  77.2068176  36.1141281  43.8158646  76.3119965  35.7747002  43.7981453
  77.4142075  36.1942368  44.7468872  82.1350479  71.5668869  45.0025520
  82.0578003  70.6592560  45.2966118  83.0766220  71.7067413  44.9019356
   8.1274862  43.7069969  65.8024368   8.4640713  43.3935852  66.6419067
   8.5979280  44.5258865  65.6464386  18.5571213  64.0827255  57.2360344
  17.9076443  63.9036407  57.9159927  18.0515079  64.1127472  56.4238243
   5.4530754   9.8422346  84.2704315   5.8079681   9.1375732  84.8124008
   6.0284133   9.8693361  83.5059128  33.3458710  17.0360813   9.9490471
  33.6613770  17.8229485   9.5046062  34.0294838  16.3839035   9.7955294
   9.7792149  65.3860321  29.9325562  10.1772604  64.8149338  30.5895443
   8.8852758  65.5244446  30.2455215  17.1241207  54.7605324  20.6553631
  17.2566471  54.7513046  19.7074261  16.9960213  53.8409767  20.8882561
  60.6307983  21.7481880  49.9989700  60.1264153  21.5219269  49.2175407
  60.3766327  22.6498966  50.1953239   2.3831310  36.8123779  18.3443661
   1.8130072  37.3143768  18.9267635   1.8857582  36.7354202  17.5301609
  81.4257812  54.4953880  74.9036942  81.9962692  55.1660118  74.5281448
  80.5903168  54.6107368  74.4510040  60.2199631  45.7855453  19.1883602
  59.5575333  45.3224945  18.6755199  60.9194794  45.1438255  19.3112659
  26.4127254  11.5145435   4.0098653  26.5603371  12.4491110   4.1548700
  25.4617023  11.4133406   4.0491872  14.7581644  47.6957283  84.1433029
  14.4838858  48.6119614  84.1822662  14.7616405  47.4862747  83.2093048
  71.0686417  33.4973106  13.4144936  71.1705551  32.5534668  13.5369892
  71.8324966  33.7557602  12.8987865  68.5343399  46.6267319  15.3898325
  68.7731628  47.5536385  15.3834143  69.0415039  46.2537117  16.1108589
   6.7655654  18.7822742  43.9406967   7.1705112  19.6028194  43.6597061
   7.0867243  18.1308632  43.3171959  10.5878162  50.0416031  41.9175148
   9.9191532  49.8548470  42.5764847  10.4813137  49.3491440  41.2652969
   7.4612613  26.6056042  77.9361420   7.5002265  27.0602875  78.7775497
   6.6140304  26.1602097  77.9435883  28.5859509  20.1522045  71.8828278
  27.8954163  20.7572861  72.1535110  28.7020817  20.3238907  70.9483414
   8.5697193  54.3641434  36.6635818   9.2429619  54.1476746  37.3086548
   9.0282040  54.3458405  35.8235321  53.2652016  59.4510117  48.7480240
  53.3195305  60.4057846  48.7891617  54.1760864  59.1612358  48.6975479
  44.9145470  35.9438400  70.4723511  45.0862579  35.3051796  69.7803574
  45.1749535  36.7833862  70.0934296  11.1491203   7.3393574  54.3024902
  10.6690626   7.3601089  53.4746323  11.9471426   7.8387132  54.1291809
  72.9823303  55.5701256  22.3894749  72.2219238  56.1026344  22.1561451
  73.6323318  56.2022400  22.6963463  39.5585175  41.1857033  12.0189476
  39.7935104  40.7132111  12.8175468  39.2512627  42.0383873  12.3267746
  75.7506180  69.5220032  84.4340210  76.2060165  68.9917831  85.0880127
  75.5968094  70.3601227  84.8700638  15.3418608  58.1683235  20.4975739
  14.9507236  57.6494179  19.7947369  15.0105247  59.0547485  20.3537121
  58.1969986  63.0583458  80.2626495  58.8175621  62.3903160  79.9713287
  58.6428108  63.5006485  80.9850388  72.2538757  53.5922699  11.3644276
  71.2981873  53.5385017  11.3634510  72.5181808  53.1731148  10.5454769
  63.2131424  12.1967945  37.6989479  63.5893211  12.9945526  37.3270607
  63.6746445  12.0788336  38.5292091  85.3114700  28.3307877  14.1638470
  84.7264328  27.5985088  14.3581038  84.7888107  29.1108017  14.3499527
  82.3784103  20.0416279   3.2033315  82.4185333  19.0887871   3.2852759
  81.5099106  20.2144051   2.8398890   8.3893528  57.2343597  55.9109688
   8.9007225  57.8033791  55.3356857   7.8968225  56.6708107  55.3142662
  51.2606354  58.2529411  60.8100357  51.7762794  58.7581863  60.1814919
  51.8664513  58.0762711  61.5297661  35.6759796  31.6011982  33.2125740
  34.7799301  31.9090233  33.0763054  36.2084503  32.3963013  33.1897850
  65.5297699  18.0284081  61.4901695  66.1554337  17.9522572  62.2105675
  65.6929092  17.2561817  60.9486122  61.0189323  61.0523148  76.4897079
  60.9828186  62.0086403  76.4704819  61.5147972  60.8155556  75.7059402
  66.2294922  52.8636932  86.4804230  66.2173538  53.7606583  86.1464462
  66.8054199  52.3918915  85.8788071  35.3245697  48.2936707  21.8411579
  35.7034721  48.5335426  22.6868076  34.3825684  48.2484932  22.0049381
   5.9887638  25.3526192  68.9984360   6.1754284  26.1855431  69.4315948
   5.7013016  24.7743549  69.7049866  48.9729042  62.4111977  62.2061615
  49.3002281  63.2899017  62.0138741  48.3509865  62.2278671  61.5020065
  75.2442245   3.5936232  52.8807755  76.1910400   3.7341158  52.8874321
  75.0615158   3.2342534  52.0126152  75.1263199  10.9628477  14.5796700
  75.1991577  11.1366034  15.5181456  76.0204773  11.0511208  14.2496347
  45.8932304  51.2525063  21.9678001  46.2182655  50.8719482  22.7837410
  46.3939667  50.8113518  21.2815952   7.5871334  55.3275566  69.1406097
   8.3674555  55.0617256  68.6541290   7.1466722  55.9519920  68.5641556
  71.1652069   4.0291286  79.9477615  70.5888596   3.4280961  79.4757309
  72.0379257   3.6472659  79.8540878  73.7354736   1.2983733  77.6539764
  72.8662567   1.6954420  77.5989380  73.5681229   0.3889005  77.9011307
  58.1264267  15.1324472  87.7371750  58.7161751  14.4642286  87.3880157
  58.6899414  15.6956539  88.2677231  77.7529984  11.6110620  14.7688208
  78.1883850  12.1638508  14.1199045  77.4100037  12.2267771  15.4164972
  53.6895943  13.5723696  49.1583862  54.2018547  14.2050428  49.6619186
  52.9443283  13.3648109  49.7220612  82.4262085  58.0268021  19.1461964
  81.8032913  58.3997879  19.7699642  82.9914322  58.7604828  18.9043961
  67.4406815  22.4641151  36.7189789  66.8498993  22.5099659  37.4707108
  66.8677368  22.5582638  35.9579887  56.4377327  46.1429672  72.2547455
  57.3140373  45.9350510  71.9305649  55.8531151  45.5902481  71.7361298
  28.1441555  53.7879143  77.7587585  28.5029316  54.6711121  77.6722946
  27.2354679  53.8691025  77.4690552  32.2957611  49.4137993  62.5001068
  33.0123596  49.2406960  61.8895721  32.0268974  50.3116112  62.3054886
  14.1356544  62.7373962   6.8220811  14.1031790  61.7825699   6.7630734
  14.6335773  63.0082359   6.0507503  30.1194630  21.4237423   8.5698948
  30.7161732  21.5068722   7.8260813  29.3191414  21.0560989   8.1949863
  62.2745323  36.9746246   2.7494221  63.1705246  37.2623672   2.9244354
  62.2719765  36.7520714   1.8184568   4.4627271   2.3345394  65.0454483
   4.9224038   1.6893420  65.5827103   3.5384712   2.0993280  65.1270523
  28.7313194  13.2669287  25.2118988  27.9446468  13.1996927  25.7530613
  29.3775482  13.6865873  25.7797966   3.4992676   7.7942390  13.9877405
   3.9286227   8.4577303  13.4476795   4.1601210   7.1105633  14.0977068
  22.0316734  38.9956512   9.7344074  21.4469509  39.3870544   9.0854588
  21.4455662  38.5582314  10.3519640  15.0779142  45.9745598  35.7170792
  14.9765520  45.2851410  35.0608330  15.0567780  46.7888031  35.2142944
  46.2442055  27.1309547   2.0034747  47.1829414  26.9455528   1.9781885
  45.8481369  26.4333477   1.4812611   3.7542565  57.8025475   3.1405449
   3.0078311  58.4016685   3.1289167   4.3833890  58.1919136   2.5332417
  71.1587677  55.6299362  26.4617367  71.6144714  55.4749222  27.2891064
  70.2299728  55.5664902  26.6843185  85.6172028  24.4570866  61.9289131
  84.7438202  24.0656395  61.9429245  86.1913300  23.7511501  61.6318169
  40.6990662  43.7914391  15.3029699  41.1722527  43.0680389  14.8918495
  39.7844276  43.5091934  15.3045301  15.1472397  50.8126411  28.9161034
  15.5944519  50.8695831  28.0717163  14.2466297  51.0770721  28.7284584
  70.1386337  64.9017487  32.3863564  69.5186996  65.2367020  31.7385006
  70.5169220  65.6860962  32.7837677   2.6227024  10.5619421  59.9302483
   3.1494770  10.8255358  60.6847420   1.7703862  10.3335762  60.3012428
  55.5996132   5.0850620  35.8985291  54.6489792   5.0152578  35.9860268
  55.9222412   4.2021804  36.0792542  36.7652283  49.9306793  14.3141985
  37.6427727  49.8791618  14.6930103  36.1756058  49.8495331  15.0638580
  43.3780556  61.1396751  37.1589890  43.5082169  61.8704529  37.7633514
  43.2730522  60.3756981  37.7260361  43.1191406   2.5808203  22.7023468
  42.3547440   2.1460588  23.0803833  42.8310585   2.8585780  21.8328133
  51.2498550   5.0278020  74.6316986  51.2955322   5.9616747  74.4266968
  51.1307068   4.9965143  75.5809402  11.1183805  47.7964630  68.6822357
  10.2312098  47.5449791  68.9389725  11.2392836  47.4005051  67.8191986
  23.2199726  66.5007324  45.3383369  22.9985142  67.4026184  45.5702629
  23.7503471  66.1882706  46.0713425   3.4333420  38.3501358  21.9414806
   2.8728364  37.6574745  21.5917854   3.8573904  37.9537315  22.7025833
  15.2285709   3.6326015  22.0318871  15.4201517   3.8259826  22.9495659
  14.9914761   4.4791198  21.6531734  30.1428032  19.8020344  27.6608238
  29.2718067  20.0917587  27.3894253  29.9765892  19.0939083  28.2830467
  86.3043671  14.8200560  34.5130043  85.6328888  15.3291798  34.0589676
  85.8700943  13.9970675  34.7373466  51.0127525   4.5710249   8.3154383
  51.7599220   5.1392727   8.1281719  50.2975426   4.9363437   7.7946262
   3.8326313  41.9520416  54.6961250   3.6930585  42.7818642  54.2398987
   4.7741122  41.7947884  54.6245918  84.0845566   0.7569361  41.8778343
  83.6484756   0.2805667  41.1713409  83.4287567   0.8071693  42.5732689
  33.8575363  48.2886772  60.6032410  34.2874756  47.7328262  61.2531738
  33.6130905  47.6884308  59.8988419  64.8691940  61.1401901  80.4325256
  64.4464264  60.8781738  79.6146927  65.5788574  61.7217178  80.1596832
  64.9958344  42.1506004  84.0341187  65.7071915  42.0824699  84.6709595
  65.3490982  41.7551384  83.2372208  70.9830933  36.2806282  45.9910355
  71.0943909  37.2307091  45.9565468  71.2526245  35.9762917  45.1244545
  84.8773499  20.2083073  82.6234512  85.0391235  21.0749569  82.9962540
  85.0398026  19.6024284  83.3464661  75.2636871  21.2269001  88.7051239
  75.2391052  21.7897892  87.9313126  76.0482788  20.6914692  88.5869827
  32.6475677   6.1700549  20.4134636  33.4471245   5.7439804  20.1045952
  32.4308815   5.7125826  21.2258663  24.2496624  11.4253092  46.4372406
  24.8551445  12.1151876  46.1657791  24.7982998  10.7953501  46.9045486
  69.7703171  20.3944435  39.9343834  69.9353027  20.8065701  39.0863495
  68.9693680  20.8116417  40.2516518  64.8383331  35.8823929  19.8820896
  63.9719048  35.8189316  19.4802055  64.6613464  36.0530357  20.8071785
  25.4541836  61.9532356  14.3326836  26.1435528  62.1301613  14.9727602
  24.6819592  62.3968201  14.6835871  28.1373692  37.5702820  78.6812134
  28.9738255  37.5548096  78.2160950  27.9250450  38.5001907  78.7613525
  31.8925323  10.6707020  18.8540363  32.2161903   9.9357986  19.3749905
  31.0789776  10.3490152  18.4656029  30.8803749  58.0592308  45.0009956
  31.0593452  57.3204346  45.5827026  30.2967739  58.6256371  45.5057945
  29.6128979  32.3205872   9.0334387  30.1945095  32.9655685   9.4358835
  29.0526333  32.0230865   9.7502565  53.5535126  44.0829582  58.6868553
  53.2707481  43.9878578  59.5963783  52.7392998  44.1637421  58.1901016
  40.8422012   1.3464348  72.0562134  41.2054672   1.7796824  71.2838364
  41.6062737   1.0054311  72.5211258  13.3130617  54.6778755  64.6826782
  13.2469645  55.6327057  64.6952591  14.1511965  54.5014153  64.2553329
  37.1201973  36.9166489  78.0848923  37.0952911  36.1050301  78.5917358
  36.5658722  36.7412796  77.3244934  65.6507874  27.8511658  65.1295929
  65.6404190  28.6740303  65.6184845  65.2028580  28.0547352  64.3085251
  64.8042831  45.4209862  27.8681927  64.7991714  46.1929932  28.4340687
  65.6339188  44.9857216  28.0643597  77.5869827  40.4931259  77.2702713
  77.6876831  41.4145012  77.0311890  77.9634933  40.0119514  76.5334244
  17.3781300  69.9974899  52.4804993  17.0811901  70.4223099  51.6757736
  17.8601761  69.2267990  52.1806679  26.1624355  36.9084396  18.9493790
  25.3390789  37.3959312  18.9752064  26.8410263  37.5832596  18.9684181
  46.8967133  58.1946068  57.3291931  47.6320076  57.5980759  57.1887398
  47.3060722  59.0374718  57.5247269  31.1891308  33.0447159  19.4567261
  31.2772999  32.3021698  20.0542927  31.8614941  32.8979073  18.7914371
  38.6207352  57.5219955  25.1285515  38.7309265  58.4696045  25.0502834
  39.3152313  57.2488098  25.7279491  61.7664566  56.4887161  13.7932787
  62.0412827  56.1564445  14.6478548  60.8184853  56.3569298  13.7786264
  41.7461777  65.8233948   1.8616012  42.1910019  65.5840759   2.6746762
  42.3643951  66.3984604   1.4106764  58.8199730  18.6072369  55.0035477
  59.7517624  18.4420605  54.8596191  58.7862282  19.4955482  55.3585052
  79.6215897  50.5456619  13.5550404  79.4188232  49.9604568  14.2848730
  80.4527969  50.2194176  13.2102423  77.1374359   6.4570537  61.3725662
  76.5978851   5.7850566  60.9559898  76.7888641   7.2842040  61.0400734
  13.8434572  71.4361496  39.3070831  13.4444189  70.5729980  39.1976738
  13.1228695  71.9989929  39.5902672  63.8471832  19.9915428   9.6421795
  64.7142258  20.2468319   9.3270607  63.7650604  19.0699005   9.3971004
  65.9778061  63.1044273  32.6949615  65.7942352  63.8987160  33.1966019
  66.8643799  62.8556213  32.9563293  84.7330399  15.4087315  20.9029427
  84.9431305  16.2865620  20.5843410  84.9466705  14.8306246  20.1705589
  22.6353512   1.9441482  16.2578907  23.2686806   1.3670893  15.8311253
  23.1715775   2.5943613  16.7116699  21.2717972  16.0124035  68.6477509
  21.3899117  16.6865482  67.9785614  20.6020889  16.3689671  69.2313461
  47.1229820  65.6403275  13.8842239  47.0460052  65.5456009  12.9348392
  46.7811661  66.5157318  14.0660744  16.2245579  65.9676361  76.8917694
  16.1972008  66.8262482  76.4695587  16.5135326  66.1495514  77.7859879
  84.3962631  63.7618370  31.5810261  85.3014069  63.6540375  31.8731365
  84.2253647  62.9902191  31.0409946  75.6974716  52.3961830  76.8726807
  75.9307175  53.1135216  77.4619675  74.9297333  52.7156639  76.3986130
  64.1322327  17.7743683  67.9200516  63.5018959  17.8096466  68.6395416
  63.7347488  18.3019409  67.2273026  26.0519886  65.1680145  10.1161242
  26.7566166  65.7366333   9.8056307  26.3176537  64.9190063  11.0013628
  68.7737808  67.0905991  79.9183426  68.6620560  66.7238922  79.0412598
  68.3522949  67.9488907  79.8745728   9.7234001  58.9881439  48.7925720
   9.5509720  59.9027405  49.0162125  10.4023943  59.0301399  48.1191978
   5.4120989  34.4549408  88.4460983   5.0450115  33.6585274  88.8297729
   5.3438540  34.3189926  87.5010605  51.9144287  49.3554840  63.6073418
  51.4365463  48.5278473  63.6609726  52.1889381  49.5322952  64.5071259
   0.5194615  46.5914993  25.7331085  -0.2073894  47.2137108  25.7609463
   0.6639595  46.4335785  24.8001480  81.0073471  16.9341221  56.2625999
  81.0714798  15.9813833  56.3290024  80.2301254  17.1581116  56.7744484
  65.5135422   9.0144091  38.7240524  66.0468369   9.5276279  39.3310394
  64.7955017   8.6789722  39.2608299   9.2082577  63.0192871  85.4881592
   9.4462233  62.1247520  85.2444000   9.7780151  63.2252045  86.2292404
   7.1471257  66.0006409  36.5744896   6.8661208  66.6517715  37.2173691
   7.0528450  65.1619644  37.0261116  11.3142118  22.1281109  70.7803040
  11.8682480  22.7505951  70.3093567  10.5625849  22.6463623  71.0678864
   3.1753738  58.3841553  78.7527313   2.9770355  59.2823601  79.0175400
   2.5053732  58.1726151  78.1026688  65.6998062  37.8496246  54.3823433
  65.2439346  37.9800873  55.2138443  66.5299988  38.3140068  54.4889145
  70.1532669  47.0544701  85.4985886  70.5128784  46.8328934  86.3575516
  69.2248459  46.8304787  85.5625992  56.2115593  36.0660133  23.7880306
  56.8425674  35.4033127  24.0689049  56.2517319  36.0449753  22.8319054
  24.6570263  19.9175568  15.3766222  25.1189728  19.0989552  15.5575256
  25.0605774  20.2479782  14.5740013  31.3013687  55.0944824  35.5949821
  31.4138947  55.9305916  35.1427765  32.1439018  54.9374390  36.0212517
  70.4911041   8.3269548  30.3405972  70.9610138   8.7908020  31.0336056
  70.0738220   7.5896940  30.7861919   3.6055024  21.5155773   1.0719409
   4.5059981  21.3267555   0.8079597   3.5790014  21.3000412   2.0041823
   3.9796987  68.3086777  56.0725174   4.6338944  69.0072556  56.0566559
   4.3659000  67.6314392  56.6278801  51.8160133  36.4462166  87.7899780
  52.5422935  36.7936897  88.3076706  51.6368446  35.5881233  88.1744232
  52.9134026  29.5637264  12.7612400  53.4429588  28.7800083  12.9081717
  52.1878471  29.4820461  13.3802156  10.8021841  29.6674557  35.6054535
  10.4118443  30.4919529  35.8954048  11.0098505  29.8123398  34.6823502
  68.5548553  51.5944557  81.1077118  68.9198608  51.6701851  80.2260818
  69.3125153  51.4217567  81.6665955  29.1337223  68.3224564  53.0130539
  28.8195724  68.6470108  52.1691284  28.3369484  68.1242142  53.5050735
   6.8106418  32.6898994  18.7642193   6.0597744  32.2617760  19.1754875
   6.5838051  33.6198273  18.7606621  26.6030712  60.6057014  67.0536957
  27.3632030  60.0612907  67.2587509  26.4573936  61.1220055  67.8464355
  32.8562698  12.3820553  34.8783607  33.2865028  12.6761370  35.6812592
  33.5297623  12.4614811  34.2028351  77.6016998  53.4414101  26.7198524
  76.9290161  52.8301277  26.4197445  77.9398651  53.8384018  25.9171848
  32.1885567  51.4920464  87.4463882  32.8442268  51.0048370  86.9474335
  31.9673767  52.2371330  86.8876801  38.4323196   2.4981620   6.3944130
  39.0414963   1.7632138   6.3237982  37.8006554   2.3542395   5.6897712
  72.4176865   6.3193293  54.1277847  72.0184326   7.0756040  54.5577545
  72.3875961   6.5307865  53.1947174  43.7711792  12.0323906  62.3675232
  43.9320450  12.9702234  62.2634773  44.0746460  11.8341637  63.2534370
  42.3229446  14.8557234  25.1645622  41.6125565  15.1770868  24.6093063
  43.1218147  15.1264658  24.7120876  41.0616951  61.9506340  51.2479591
  41.9461594  62.2702560  51.4262657  40.4977303  62.7088661  51.4004784
  11.1089163  34.3482056  75.0783463  10.5864325  33.6712990  75.5085068
  10.8636837  35.1592140  75.5237198  69.3986588  25.4924164  50.5361557
  69.1431503  26.2234612  51.0987549  70.3067780  25.3102760  50.7777634
  46.6342316   6.4064012  51.3702583  47.0197906   5.5307713  51.3994064
  46.0568886   6.3886037  50.6069832  23.3464603   7.1176195  40.4221306
  22.9349213   6.3677106  40.8516693  23.6170006   6.7847338  39.5664253
  28.5675602  64.1170959  45.9376717  28.3824329  63.8926506  45.0257607
  29.5183544  64.0384827  46.0154076  34.9148750  64.3700485  14.0340824
  35.0082245  64.7214890  13.1486416  34.3419914  64.9937744  14.4801760
  70.0613708  60.1079140  13.1442995  69.5266342  59.6294556  12.5107641
  69.7705612  59.7835274  13.9966125  82.7807541  59.4781036  15.0683565
  83.3093338  58.7085228  15.2795124  83.4111099  60.1184120  14.7383661
  86.5253754   9.4447460  36.8351593  85.6987457   9.5296497  36.3600845
  87.1780701   9.8307981  36.2510490  40.0071640  12.5729885  46.8672638
  39.9406586  12.7596302  47.8037338  39.1834106  12.8936348  46.5000420
  61.4124260   9.8827734  63.8894653  61.5901222   9.9376879  62.9505081
  60.4573250   9.8766594  63.9525185  73.1542130  68.8664703  10.5340948
  73.3771667  68.9584274   9.6077757  72.2030411  68.9698105  10.5629168
  51.0178566  50.3548088  17.9876251  51.4826126  50.7694855  18.7144547
  51.3537636  50.7945061  17.2065563   9.2391024   7.3904696  34.4076157
   8.5468588   7.5934124  33.7784538   9.9917898   7.1514106  33.8667450
  55.0279846  39.7806206  36.6576195  55.6830940  39.3563919  36.1034546
  54.1898193  39.4537811  36.3306847  65.5359192  51.5596275  65.8929596
  65.4284286  51.7514877  64.9613647  66.4833832  51.5085564  66.0192108
  75.1073990  49.2322845  37.6613503  75.5956116  48.5466843  38.1172333
  74.2706528  48.8235741  37.4398842  27.0455875   1.2753813  14.1908407
  26.8412495   0.7885082  13.3924475  27.4919491   2.0641074  13.8827753
  70.1594238   4.1758032  33.6693115  69.3643494   3.7475183  33.9865723
  69.8666458   4.7050486  32.9274139   5.9256983  70.5860062  55.2897606
   6.3608761  70.8543320  54.4805298   6.5798573  70.7317581  55.9731827
  42.3275528  45.3790665  81.4592438  42.7138290  45.7593079  80.6702957
  41.3851700  45.3856163  81.2915955  77.6661072  32.9256020  43.2534218
  78.1941223  32.3343124  43.7899017  77.0956345  33.3717690  43.8793030
  85.0984421  18.3633785   5.3097072  84.6618652  19.1163197   5.7080879
  85.9607010  18.3393154   5.7246404  79.4366455  27.9698353  70.4232941
  79.9381256  27.2639465  70.8313065  79.5131683  27.8057022  69.4833832
  53.9575157   1.8496592  11.9816065  54.7266464   2.1026549  12.4921608
  53.2218857   1.9667077  12.5827560  66.7084274  33.2609978  37.7101707
  67.3834839  33.9315453  37.8145409  66.1935425  33.3120995  38.5154800
  67.8258514  22.8359795  44.4685860  68.4217606  22.2834606  43.9627762
  68.1966553  23.7155972  44.3978615  79.5462723  42.0525360  81.0554810
  80.3368912  42.1726761  81.5815353  79.8638000  42.0025787  80.1538620
  25.0744267   2.3015063  42.2043228  25.4560318   3.1785493  42.2417870
  25.7950497   1.7165598  42.4383545  28.5382442  58.9663086  77.8159332
  29.3560982  58.4750862  77.7381744  28.8149376  59.8670540  77.9842453
  10.4052458  54.1897469  34.6100159  10.9902201  54.3439903  33.8682289
  10.7901659  53.4420166  35.0671501  51.9084396   8.6122036  30.8828316
  52.8090935   8.8892317  31.0510731  51.9928436   7.8840127  30.2673283
  67.5646591  68.6515884  10.8699360  66.8797913  68.1056671  11.2561445
  67.3840256  68.6332779   9.9301128  49.6014404  28.7460384   0.6302410
  48.8791618  28.7433510   0.0021198  49.8346977  29.6697311   0.7230582
  30.5177288   9.6782370  39.2263565  30.6595364   9.4738779  40.1506729
  31.1437702  10.3770695  39.0367813  86.6086655  40.3369560  85.0164185
  86.5480499  41.2433548  85.3180847  85.8204803  40.2068062  84.4891052
  77.5156937  60.7026062  33.4096794  76.9080353  60.2863007  34.0209694
  76.9740143  61.3174286  32.9148903  79.4217682  45.9792900  63.5526352
  79.7456741  46.3010826  64.3939209  79.0638809  46.7551537  63.1211472
   6.7270346  39.6642189  28.2190094   6.9492121  38.7726097  27.9508572
   5.9283843  39.8686295  27.7325878  69.0177994  26.4833698  67.9291611
  69.6885834  26.0849342  67.3746109  69.3639069  26.4042416  68.8180847
  54.4476013  57.8753242  83.8180008  54.3062325  56.9856720  83.4943314
  54.8528900  58.3359261  83.0832825  62.0706902  38.6897087  22.3599243
  62.9183998  38.9492912  21.9990425  61.4953957  38.6254311  21.5976009
  60.1293755  17.4345074  51.2316742  59.4067421  17.0539398  50.7324753
  60.4428177  18.1564140  50.6868477  71.0841980  42.4337082  15.3305359
  70.3151016  41.8658829  15.3785257  70.9200439  42.9958115  14.5733557
  46.0887489  61.6143036  24.1560345  46.9131622  61.9085426  23.7687397
  45.6349297  62.4222603  24.3957977  76.1837006  67.1350555   3.1339836
  75.3759308  66.9374008   2.6599977  75.9402847  67.8339157   3.7410843
  62.8894920   6.0526171  40.2010460  62.8630028   6.9963689  40.3587265
  63.7109718   5.9113717  39.7304611  56.4085503  61.9907036  86.5473938
  56.1727829  61.0998383  86.2885361  57.3060989  61.9163094  86.8715973
   9.7837057  68.5690155  77.4408875  10.5727015  68.0395508  77.3251953
   9.0920715  67.9321289  77.6204605  82.4840775  29.9074631  88.1622162
  81.9351349  29.6583328  88.9057388  82.0368042  29.5392151  87.4002686
   7.7997422  61.2177162  45.4436150   7.7696505  60.2930641  45.6892700
   7.2896423  61.2674828  44.6351891  78.4171829   8.9719114  12.6806726
  78.8667221   8.2792196  13.1647387  78.0675888   8.5337753  11.9047518
  12.8903332  55.9782333  14.1711035  12.1401892  56.3196106  14.6579046
  13.3831987  56.7572517  13.9133358  41.8744545  52.1631737  58.4317970
  41.1069641  52.7319374  58.3709793  41.6473923  51.3973007  57.9044380
  61.8475990  11.9877281  76.1105652  62.4329720  12.2157049  75.3883514
  62.4343643  11.7540350  76.8298264  82.6270142  46.7945442  59.2278748
  82.1875992  46.4642715  60.0115013  83.5280380  46.4817543  59.3087273
  22.8229198  59.2097855  37.7961578  23.4950104  59.8790703  37.9249382
  22.4222107  59.1036148  38.6589394  30.1842499  52.5303841  10.7809210
  30.3715973  51.8562355  10.1277313  29.5303936  52.1320953  11.3554382
   2.8076916  69.8329544  22.9159260   3.2787170  69.1233215  22.4791298
   2.8044684  69.5848389  23.8404064  29.5116024  21.0279846  82.8789291
  29.3749180  21.7603474  82.2779312  30.3645058  20.6709366  82.6313324
  59.8563423   1.5746611  35.7476807  60.0495796   1.9151162  36.6211700
  60.5944328   1.8617177  35.2100449  69.6672134   7.9470091  53.3664932
  69.5179901   7.0044589  53.2919083  70.1593933   8.0478487  54.1812439
  63.0352287  10.8670244  50.4515381  63.0865402  10.8885937  49.4959564
  62.5007553  11.6275578  50.6799202  83.3759766  70.2726288  75.8926315
  82.8290634  69.5131226  75.6919479  83.8480225  70.0245285  76.6875229
  54.5314713  20.2277031  66.8201218  54.7959213  21.1272545  67.0127487
  54.0955544  20.2830887  65.9697418  61.0674934  67.6819763  48.1049538
  61.0524406  68.6348877  48.1942291  61.9732819  67.4378662  48.2951927
  47.0912895   6.3276792   2.5835836  47.3613091   5.7316427   1.8849689
  46.7734489   5.7525415   3.2795911   6.9450707  39.7541809  17.1987419
   6.0283132  40.0175095  17.1184635   6.9277844  38.8001709  17.1226273
   5.7450509  48.8553123  71.2931900   5.3860464  49.5978508  70.8074112
   4.9765096  48.3580246  71.5729752  58.5160484  40.8037643  38.9983864
  58.7429924  39.8920479  38.8153343  57.8697433  40.7529526  39.7026176
  79.4787598  35.3146477  80.6767502  79.2547073  35.2594490  79.7477798
  78.9060211  34.6748581  81.0996933   3.5562544  58.5265236  34.5699501
   3.8492212  58.1286469  33.7501335   2.8995392  57.9187431  34.9098892
  86.7825012  49.3340569  19.4266415  86.4675903  50.0619202  18.8906574
  86.0035095  48.8023491  19.5900097  54.6269913  29.1362057  49.7843475
  55.3387566  29.0250206  49.1540604  53.9093742  29.5087032  49.2719994
  56.5737152  64.9000702  88.5129776  56.5348778  65.6559448  89.0989609
  55.6911163  64.5305710  88.5398560  75.4737701  23.1075573  34.8927879
  74.8926163  22.3478241  34.8568344  76.2885666  22.8050251  34.4917717
   5.3839331  63.0812607  45.4646530   4.6940913  62.4670296  45.7157898
   5.7958860  62.6791687  44.6999016   3.5059032  65.6697159  22.6181393
   3.3949790  64.7264099  22.7369270   2.7698436  66.0587845  23.0904427
  14.4176378  68.2936630  36.2639236  13.5124350  67.9950333  36.3514366
  14.3855009  69.2240372  36.4866333  24.6708183  11.9817047  58.6521606
  24.3582993  12.3150406  57.8110580  25.4183292  11.4276733  58.4274178
   6.6366653   4.3200698  33.4662247   6.7431140   4.6004133  34.3752403
   6.3589215   3.4061632  33.5283928  42.0023346  10.0298233  47.4561577
  41.6597252   9.4564276  48.1417732  42.8079605  10.3907471  47.8261986
  30.8209858  53.0938034  22.2616081  31.7691097  52.9623871  22.2571869
  30.7110481  54.0444221  22.2834072  43.6384125   3.9798515  52.4264069
  44.4125404   3.4613371  52.6457253  43.0551910   3.3637586  51.9831085
  76.1346436  32.4355927  12.8128891  75.9865265  33.3551636  13.0335236
  76.6063156  32.0813789  13.5667381  13.2109222  62.5647430  35.4166718
  12.4566050  62.5997047  36.0049019  13.4381084  63.4819298  35.2637482
  27.5716572  71.8125381  75.7596359  27.5874424  70.8724747  75.9392471
  28.4850197  72.0380325  75.5831375  17.4800854  70.2590485  35.9147568
  16.6951847  70.7788620  36.0878372  17.1786938  69.3512115  35.9498901
  72.6878357  28.3876457   2.8912165  73.5128937  28.8462296   3.0499899
  72.8528671  27.8617458   2.1086409   9.4442492  20.4217186  63.4996452
   9.2485552  21.3529930  63.3963966  10.3658476  20.3977489  63.7571602
  71.4947968  27.6752796  75.3022995  71.3485794  28.4573746  74.7701569
  70.6678467  27.1955166  75.2552338  55.0355415  43.3746033  20.5548439
  54.6960793  43.9448814  21.2446117  55.0661087  42.5059242  20.9557095
  47.5118675  69.4079132  39.7140236  48.1442566  68.7602997  40.0253334
  47.9021034  69.7580109  38.9131584  44.6718483  15.1634579  60.7938004
  44.7241631  14.2356606  60.5642624  45.4413643  15.5559597  60.3814659
  23.5406170  17.9868603   9.3682108  22.9921608  17.3821163   8.8684978
  23.0135498  18.2099953  10.1354408  27.3802643  48.0229645  15.1640167
  28.0575428  47.7757454  14.5344086  26.6939526  47.3659134  15.0478725
  12.8485899  26.6482105  74.0352020  12.1762781  26.9057159  73.4043961
  12.3974533  26.0574780  74.6383133  86.2036209  40.2410774   7.3224006
  86.8398819  40.6928482   6.7680454  85.4419479  40.1126366   6.7570801
  54.6944733  51.4927406  44.5681229  54.6427650  50.7026138  45.1059456
  53.8759422  51.9565506  44.7445450   3.5465400  52.3942108   9.6700048
   3.8318491  51.8819618  10.4265966   4.3046927  52.9341698   9.4466696
  59.2480049  49.9104691   5.8169608  59.3660927  50.8040123   6.1392446
  58.3170776  49.7298965   5.9473367  12.6693754  67.2250824  87.2985840
  12.4539862  66.3157959  87.0911179  13.4097815  67.4319458  86.7282944
   7.6835089  20.8525982  50.1221237   7.7928219  21.7981834  50.2228737
   8.5548687  20.4919395  50.2861061  38.3681221  46.7395782  63.0934486
  38.9538155  46.1340332  63.5478821  37.5494537  46.6972160  63.5876350
  86.1382523  13.9924479  46.3346977  86.0003433  13.0476131  46.4017944
  86.2333298  14.1545658  45.3961334  73.4168243  54.0578156  56.2094193
  73.5895157  53.8922920  57.1362457  74.2470932  53.8665390  55.7731934
  28.9139614  35.7513924  80.5308075  29.7734222  35.5015717  80.1914749
  28.7698975  36.6346741  80.1912613  80.8855057  16.0263405  79.9573593
  81.6398087  15.8106709  79.4089661  81.1742935  15.8320837  80.8490372
   8.8409519  35.8796196   2.1559300   8.3110809  36.3167763   2.8225350
   8.5038586  36.2139816   1.3247852  19.5537319  59.9719276  85.4131393
  19.7990494  59.4017982  86.1418381  18.5996685  60.0295715  85.4648132
  28.7351761  66.2140656  77.5270462  29.2243481  65.6323318  78.1088791
  29.3954792  66.8104858  77.1741867  28.6025181  18.9606342  12.6146116
  28.4584293  18.3441601  11.8966789  28.9376678  19.7498074  12.1890354
   7.2410741  52.5222244  21.8349266   6.4576449  51.9917107  21.9799252
   7.1544509  52.8362923  20.9348774   4.3562131  52.7798767  21.4573822
   4.2527442  52.1834679  20.7158794   3.9095519  52.3413925  22.1815758
   5.1743207  33.0557327   9.2603960   4.9241281  33.1193275   8.3386631
   6.1195698  32.9060478   9.2422209  53.1809731   5.9500155  71.0927124
  52.6631393   5.3255825  71.6008148  54.0598640   5.8933930  71.4676361
  60.9887962  19.3038540  32.1820564  60.7364349  19.0980167  31.2819576
  61.3111267  20.2041912  32.1404953  45.0536118  56.0368271  51.7873421
  44.5254936  56.3185501  52.5343056  44.4743080  55.4613380  51.2878914
  44.7601280  12.0172634  64.8744583  45.4031143  12.5764656  65.3104553
  44.6324921  11.2843962  65.4768295  76.1731415  51.6409264  15.8150969
  75.5698929  51.9221687  15.1271811  76.8655701  52.3018074  15.8113508
  45.3832016  65.9010468  28.0649796  45.2294769  65.0950699  28.5579376
  44.5440750  66.0881729  27.6441689  18.0293274  27.1723003  19.9149837
  17.3470039  26.9438381  20.5462284  17.7729969  26.7202663  19.1111221
  37.2174835  65.8275299   9.0906992  37.0426178  65.6374893   8.1689949
  37.5636787  66.7199326   9.0897541  71.9420624  34.6888084  81.8326492
  71.0178452  34.8629875  82.0107422  71.9757843  33.7526588  81.6358795
  86.4041290  61.4624481  51.8992119  85.5376129  61.8525124  51.7841721
  86.4332047  61.2115860  52.8224983   0.3960539  17.3646412  77.5946503
   0.8913559  17.7258320  78.3297958  -0.0245323  18.1247578  77.1927032
  68.0941238  14.3575840  23.9831791  67.3172836  13.9063110  24.3134956
  67.7487488  15.0320845  23.3983707  26.9660931   6.0638895  34.6241379
  27.5967922   6.7807260  34.6919365  27.4919682   5.3053722  34.3704872
  35.2200012  18.0073833  27.3101902  35.7317352  17.3720512  27.8109035
  34.3095360  17.7521496  27.4589729  73.2114029  31.8958263   4.7483315
  72.3505402  31.4811478   4.6918001  73.4069138  31.9150944   5.6851530
  18.8802738  24.0346832   4.5491877  18.5826950  23.6131172   5.3553886
  19.4843979  24.7160721   4.8441067  63.7814407  56.9863815  78.6719666
  63.3143005  56.1512909  78.6971664  63.0933571  57.6424713  78.5609589
   8.2323494  38.6962929  70.1659546   8.7541838  38.6966133  69.3635025
   7.6892204  39.4816132  70.0987625  24.2916965  15.3760767  47.1361008
  23.8185177  15.3696060  47.9681435  25.2087841  15.2530632  47.3811531
  20.1641731  33.3074379  69.1695404  21.0034027  33.3818207  68.7152328
  19.8476715  32.4321251  68.9461975  62.3893204  27.5916405   3.2290616
  62.8733940  28.3865032   3.0052390  63.0546532  26.9037876   3.2495365
  23.1821041  39.5220032  76.9304962  22.9921284  40.4013977  77.2573166
  23.8827477  39.2015648  77.4985199  45.2425270  16.8867455  83.7061920
  44.4787064  17.4555531  83.8024597  45.8614922  17.2035236  84.3640442
  82.5385208   0.3857073  28.3496571  82.0425110   0.5586916  29.1498337
  81.9916840  -0.2257241  27.8563519  55.9847565  61.6556129  68.9058456
  56.1125450  61.1201057  68.1228180  55.2501183  62.2287941  68.6867447
  51.7237015  62.2740440  69.2560806  50.9509773  61.9422455  68.7988739
  52.0574265  61.5193558  69.7411652  32.7314682   7.5477543  45.6490097
  33.3310242   6.8900781  46.0014687  33.2268181   8.3661108  45.6829529
  40.4221458  52.2674713   1.2075112  39.7338524  51.8691063   1.7402321
  40.6739464  51.5813408   0.5894064  31.7970772  70.7549057  59.2063980
  30.9093761  70.5791855  58.8944054  32.2895317  70.9755249  58.4157982
  10.7674265  24.6070423  74.8005829   9.8321600  24.6297207  74.5981140
  11.1132450  23.8997021  74.2562408  50.2453728  50.8625031  14.2822704
  49.9589081  50.6224556  13.4010525  50.3359032  50.0270462  14.7405853
  81.6702728  59.4897003  30.3721581  81.5143204  58.5460358  30.3345928
  80.8597107  59.8523788  30.7294827  73.4937820  32.5165863  80.0776138
  73.5460434  32.3360939  79.1390457  72.6664658  32.1209221  80.3518982
  72.7667236  27.5502224  55.9043121  72.7728500  26.6970520  55.4703827
  73.4685593  27.4941616  56.5527802  10.4725113  33.2730408  36.5893402
   9.8603020  34.0064468  36.5297813  11.0888882  33.4166412  35.8712273
  16.0096798  24.9005833  82.3470001  15.5333328  25.7055302  82.1435699
  15.4612350  24.2013302  81.9913559  27.8806896  50.4257317  38.4438248
  27.3325787  49.7527542  38.8474426  28.7683678  50.0704422  38.4888802
  62.7764435  50.8972626  10.3696232  63.0246429  51.3472404   9.5620670
  61.9199257  51.2614365  10.5931911  66.6602478  60.1826706  10.9189606
  66.4489670  60.3397598   9.9986820  67.2660446  60.8870964  11.1492395
  45.8039703  50.5251389   8.2087269  45.3171120  50.9480591   8.9160719
  45.5008125  50.9636879   7.4137425  28.4636669   4.4111853  65.1451111
  28.8283348   3.5676601  64.8773193  29.0335312   5.0602894  64.7326202
  -0.0894167  33.3854256  46.4557495   0.8095739  33.5877571  46.7148056
  -0.2496158  33.9408951  45.6928482  73.7902222  20.4309597  83.2964249
  73.0497208  20.2755470  82.7101364  73.4260025  20.3257751  84.1753540
  67.6715622  35.8546486  37.4278183  67.2723389  35.7706871  38.2937317
  67.3095932  36.6674995  37.0749893  38.5151062   8.9350748   8.5392427
  39.0043564   8.2954903   9.0567360  39.1853447   9.5191154   8.1844006
  12.6760159  50.6346588  50.2085838  12.6887016  49.9679070  50.8952522
  12.4160271  50.1602783  49.4188995  11.0860767  36.6376991  72.6260910
  10.1852283  36.3465385  72.4849167  11.5536489  35.8474045  72.8963547
  52.5613708   2.4441953  67.4685593  52.6784172   1.5065525  67.6213913
  53.3350945   2.7037547  66.9683533  83.1084137  38.8324852  29.9338932
  83.8439560  38.6862717  29.3390579  82.5382767  38.0752792  29.8004360
  35.1033630  20.1540852   3.5622113  34.3716812  20.0324230   2.9571729
  35.2908936  21.0920258   3.5257421  70.1638718  39.8058128   0.3673783
  70.2847595  40.3297615  -0.4245139  69.7075882  40.3895264   0.9734417
  17.9739780  39.6611595  73.2829514  18.2754078  40.0165787  74.1190491
  17.5557919  40.4021873  72.8445129  83.1015472  50.7867050  10.0632839
  82.2652512  50.7597809   9.5984058  83.0367813  50.0872154  10.7134762
  53.4397926  24.1826210  14.2322521  52.8054123  24.3334541  14.9329958
  53.5900917  23.2373753  14.2446127  66.9641266  18.0525837  14.1271324
  67.7744064  18.5591393  14.0717125  66.8290710  17.7189903  13.2401676
  36.4855080  59.9902420  67.1769028  37.2988853  59.4859924  67.1965790
  36.7597504  60.8934631  67.3357010   6.4238892  43.7426682  89.2088089
   5.7706137  43.0603027  89.3632202   7.1037774  43.3107300  88.6916962
  75.0735016  53.0500298  72.3965302  74.2541275  53.0272789  72.8908310
  75.0153427  53.8493347  71.8731079  10.5293932  31.0411892  74.5876465
   9.7289295  31.1685371  74.0784607  11.2289305  31.3618679  74.0183945
  41.0316353  28.2767048  16.6740360  40.1834755  28.2208557  17.1141891
  41.3168945  27.3671112  16.5874424   1.7458178  57.0255966  53.6795769
   1.0855646  57.3390961  53.0615005   1.3625324  57.1868515  54.5417366
  69.4712219  37.7972717   2.6519470  69.3071518  37.9134293   1.7160951
  70.2863007  37.2969856   2.6919274  74.2582626  19.9119320  54.3607674
  74.1282578  19.5418301  55.2338982  74.3583755  19.1499767  53.7901230
  23.2559509  52.2622070  58.1524963  22.5933876  51.6652565  58.5001869
  22.7533436  52.9827499  57.7724419  35.6544304   2.2869284  65.7918854
  35.0909271   1.9272208  66.4769440  35.4287758   3.2165949  65.7597580
  66.1358032  65.8161240  84.7317047  66.2891998  66.4614258  84.0415726
  65.2006531  65.6204376  84.6730652  53.1610527  61.6527596  19.3604527
  52.2647781  61.9871750  19.3274746  53.6857643  62.4014473  19.6439590
   3.3923056  69.4763794  62.6162758   3.0407171  69.8709259  63.4143677
   3.2907474  70.1549301  61.9488258  34.5361404  16.4832115   6.5597706
  34.2216797  15.8718386   7.2257805  35.2355003  16.0088024   6.1102567
   3.3791401  25.3494358  63.4605026   2.7314465  24.6633301  63.6216965
   3.1788025  26.0249290  64.1084213  17.6119194  64.9680099  42.5021973
  17.7013397  65.8782806  42.7844238  17.0458488  64.5672302  43.1618690
  46.5061607  11.3635702   1.1808937  46.3077660  10.4772902   1.4831840
  45.8476868  11.9141541   1.6045694  26.9549694   9.9828005  47.5832481
  27.0984402  10.9057665  47.3740082  27.2474213   9.8945999  48.4904022
  32.8800850  69.3404007  74.5931091  32.4307365  69.8550339  73.9226837
  32.7025833  68.4303207  74.3554535  76.2131958  14.5070829   8.6148081
  77.0378723  14.0368862   8.4921112  76.0905609  14.5319405   9.5637941
  77.4877930  34.0750122  52.2609062  76.6820526  34.4995728  51.9663506
  77.2971573  33.1383362  52.2106171  62.8215866  19.0778522  41.7883797
  62.2978592  18.2799225  41.8608437  62.7683067  19.3160839  40.8628311
   1.2337685   2.5041859  88.4065552   1.2639126   3.2753730  87.8403473
   0.9203796   1.8012762  87.8374023  37.4862633  58.1264458  54.7891541
  37.9882584  58.6280136  54.1467667  36.7972031  58.7259102  55.0756340
  37.6051292  17.3063030  82.7832260  37.0874367  18.0056267  82.3842697
  36.9794350  16.8232346  83.3230286  11.0300770  34.9136925  82.3338699
  10.2761593  35.4545670  82.5690155  11.7409868  35.2412148  82.8848419
   7.8132358   4.4959846  14.3281946   8.6189089   4.0617857  14.0478477
   7.5554891   5.0306139  13.5772152   6.8962822  13.7451200  25.4426174
   6.1086335  13.2015734  25.4625759   7.4279418  13.4232130  26.1705914
  61.9622307  65.0159454  88.2438431  62.1511421  64.1150970  88.5065689
  61.4603157  64.9288483  87.4334564  40.8602715   4.8080249  23.5502930
  41.2432251   5.6810861  23.4645882  40.1969566   4.7687464  22.8613071
  83.5239410  12.0060959  68.7881927  84.3181076  11.6606340  68.3805161
  83.2062073  11.2901134  69.3383179  31.5972424  62.3280602  50.9899139
  31.6382942  63.2286720  50.6682854  31.2578621  62.4073410  51.8814087
   7.2764969  35.0827370  10.9626188   7.4626637  34.2692642  10.4937544
   6.9427185  34.7978630  11.8133087  59.4510307  41.7779465   2.9083891
  59.4979553  41.1066399   2.2276711  58.5535812  42.1071129   2.8587043
   9.4700212  62.6338882  34.1191292   9.9909668  62.8101845  34.9025612
   9.9070387  61.8908043  33.7031136  72.4052887  50.8153076  41.2137871
  72.4640732  50.9555054  42.1588402  72.7106247  51.6374359  40.8302422
  30.2197609   0.4719495  62.4873009  29.8473873   0.0073273  61.7378349
  29.4675446   0.8862520  62.9100952  14.6109304   9.1934481  72.3225861
  14.9023952   9.7225056  71.5800400  15.3949995   9.0830364  72.8604355
  31.2754383  22.6128082  14.2191687  30.4675407  22.8639793  14.6668816
  31.4484978  21.7206974  14.5198679  56.4751663  64.2377930  82.3670502
  56.2294121  63.3791084  82.7112732  56.0829582  64.2672043  81.4943848
  22.0757828  42.2019768  67.7268143  22.7130661  42.2833405  68.4363785
  21.6654606  43.0651093  67.6732712  12.9740400  32.4663391  26.1278572
  13.8389463  32.8726044  26.1836700  12.4252491  32.9901695  26.7115173
  29.0568600   5.8034039  23.6104507  28.3090210   6.1205482  23.1041031
  28.8520737   4.8859749  23.7910595  84.4408493  65.5933228  76.0803070
  84.4979095  64.6393738  76.0259476  84.8046570  65.9026871  75.2507477
  11.9910698   0.9360669  24.2345867  11.0720806   0.6858262  24.3298244
  12.4243889   0.1418984  23.9219151  65.7588501  42.5306015   1.2689320
  65.7712250  42.0950851   2.1212258  66.1618805  43.3837357   1.4300338
   4.3142986  27.6193695  65.5987244   3.6682818  27.5325546  66.2996902
   4.9152246  26.8868275  65.7347488  27.2917519  68.1619949  38.0858994
  27.5133781  68.0835724  39.0137787  27.6724033  68.9985886  37.8186035
  79.1208801  25.1927948  52.8600693  78.6908722  25.2111645  52.0050888
  80.0021133  25.5266609  52.6921768  26.5106926  40.1808395  67.8262100
  27.4366875  40.3521843  67.6547241  26.0457554  40.6943092  67.1655960
  59.2530975  35.0528297  38.2893028  58.8073540  35.1317902  37.4459114
  58.6260147  34.5958023  38.8497696  75.3986435  31.2500191  72.6122437
  75.0626526  30.4080544  72.9195557  75.9948196  31.5368862  73.3039932
  51.5589371  45.4982452  86.6512604  50.8118935  45.7866173  87.1756592
  52.2084694  45.2153549  87.2949371  77.0471725  11.4494572  12.0168304
  76.5232697  10.9129848  11.4218912  77.4961624  10.8166780  12.5773983
  66.4903641  12.5872011  35.2532730  66.2789841  13.0556984  34.4457703
  65.9049988  11.8298540  35.2510223  73.7943802  22.9329090  26.3589764
  74.4131775  23.1399002  25.6586380  73.0126801  23.4427776  26.1463432
  86.6367493  34.9898567  88.2825851  86.6506958  35.1705399  87.3426971
  86.4895859  34.0459595  88.3428726  79.4412994   2.8733032  61.9278717
  80.0531235   3.0895000  62.6315498  79.1351242   3.7217784  61.6075935
  11.9847326  70.4949722  15.6178904  12.5324554  71.2798233  15.6024256
  12.5225229  69.8362198  16.0572681  55.7229843  65.5318451  48.5636292
  54.7843323  65.6687546  48.6917648  55.7764702  64.8620453  47.8819046
  27.2984982  47.7350769  20.2113838  27.4570923  47.4983788  21.1251945
  26.7408123  47.0333557  19.8755226  53.9446564  70.1391449  62.4253159
  54.6968155  70.0173950  63.0046806  54.1396370  70.9442215  61.9456558
  84.6384354  11.3693066  74.3036194  84.5376205  10.4175415  74.3181763
  84.3330688  11.6556911  75.1644135  63.1300125   2.7705164  74.3326187
  63.8814888   3.3574340  74.2487030  62.4518585   3.1703427  73.7881165
  62.8124008  45.6464920  67.6457901  62.6143074  44.7341690  67.8571014
  62.8632050  45.6654053  66.6901245  59.7619438  19.1150322  63.7574348
  59.0287857  18.6492119  63.3552856  60.1310463  19.6396351  63.0469513
  81.1080093  69.4184952  28.1188412  80.2666473  69.7599487  28.4217567
  80.9251938  68.5103149  27.8779526  84.8109360  30.0220604  70.5503006
  85.5519257  30.3328533  70.0301361  84.1583939  29.7559834  69.9025192
   5.4561238  29.6349411  16.2839432   5.3655510  30.5198269  16.6375046
   6.3929181  29.4477463  16.3440018  85.2746429  57.8299866  67.5238953
  86.1732483  57.5348473  67.3768005  84.9553223  58.0682983  66.6535645
   0.9508356  48.5386429  48.8257179   0.7200965  48.0326538  49.6047974
   0.7229586  47.9669075  48.0926285  39.5163689  39.5438004  72.5836945
  39.8867340  39.2256813  71.7603683  38.7758598  38.9616623  72.7539749
  62.7749290  22.3314228  46.4562645  62.0289001  22.8880196  46.6795921
  62.5808372  22.0131130  45.5746498  18.8472309  21.5068264  12.7203722
  18.4754524  21.3594170  11.8507271  18.2912998  22.1833649  13.1069841
  85.8041611  39.5219994  11.3378019  86.1978455  39.9891930  10.6009331
  85.6715546  38.6312828  11.0133467  15.5577831  13.5834064  24.3849335
  14.9643011  13.9686623  25.0295944  15.1797924  13.8222551  23.5385838
  75.5796432  68.9071960  88.5584030  76.5238495  68.8701248  88.4056320
  75.2625732  68.0388260  88.3101349  33.4043083   0.4809816   7.3786521
  33.4557419   1.4059356   7.1377244  32.4670563   0.2866499   7.3840671
  23.6751747   0.0210885  14.1844006  22.8701477   0.3040925  13.7507267
  24.3766727   0.4311371  13.6784449  24.5128841   4.1146760  88.1092148
  24.0573635   4.9365144  87.9266891  23.8163090   3.4597394  88.1547546
  19.9879036  70.7227707  66.1849823  19.8555260  69.9571228  65.6259766
  19.6392250  70.4604645  67.0369492  71.0774612  69.9017410  32.4103737
  70.5133667  70.3268204  31.7643509  70.9866943  68.9662781  32.2289848
  32.2280312  18.0611286  87.9539566  31.6229382  17.4779720  88.4122391
  32.9466591  17.4920387  87.6783752   0.7648887  60.2156410  47.6760101
   1.3349130  59.4897652  47.9298019   0.7309949  60.7759476  48.4513397
  57.9184227  43.7350578  67.6862564  58.5456085  43.5374527  66.9906845
  58.4054718  44.2868309  68.2982712  12.1454287  67.6881561  81.7705765
  11.4691019  68.1580276  81.2826920  12.8682775  68.3118744  81.8391266
  32.9533272  53.7923470  28.7253342  33.4367142  54.5654678  28.4340458
  32.1436806  54.1421661  29.0972672  14.0842600  18.2374649  35.7122154
  14.2196913  19.1175041  35.3609009  14.3105316  17.6532364  34.9885368
  16.8819866  10.9429159  11.7803383  17.2127819  10.0463476  11.7258348
  17.0464306  11.3120480  10.9126215  13.0545006  53.8551598  45.3822632
  13.8265047  54.3343658  45.6832657  13.3712473  53.3265114  44.6498451
  79.5752869  64.5068741  46.0581932  78.8740540  63.8694954  46.1933060
  79.4752502  65.1293106  46.7784767  20.2755089  59.7748680  22.7189751
  19.5840454  59.4315338  23.2848625  19.9890709  59.5574112  21.8319035
  30.3357716  42.2760277  83.5267563  29.8198071  42.9614449  83.1022415
  29.9529648  41.4576187  83.2106857  73.2320099  33.3806992  22.6844635
  73.8791504  33.1928253  22.0046539  72.5668640  33.9085426  22.2426472
  10.4710989  39.3375244  61.6813164   9.6895390  39.7511711  61.3148537
  10.4233150  39.5237312  62.6190109  37.6707878  21.8092041  76.3990402
  38.5813866  22.0949688  76.3257065  37.7218590  20.8541565  76.4378967
  17.5499268  57.2233696  40.2347488  18.4551258  57.4852753  40.4028320
  17.0247555  57.9549789  40.5590553  56.3703728  28.7400036  29.6420040
  56.0823288  28.5944862  28.7408466  57.3183517  28.6103897  29.6143284
  84.3042603  49.9844856  80.8240433  84.6451263  49.8144073  81.7021713
  83.3530426  49.9528885  80.9260788  52.5018349  54.5811539  12.9568043
  52.5155182  54.8250084  13.8823195  51.9169083  55.2200012  12.5494146
  81.9335403  29.5780125  76.4272537  82.1043854  29.8832722  75.5362625
  82.3962021  28.7421799  76.4869156  44.5845146  21.4901543   9.5259180
  43.7109566  21.7028580   9.1974573  44.6066780  21.8637772  10.4069099
  55.1973228  14.3626328  15.1002722  54.8467712  14.0369234  14.2712603
  54.4296036  14.4580812  15.6639490  24.0397987  48.0385895  68.6400070
  24.7279625  48.7008438  68.5761490  24.3991489  47.3758736  69.2298431
   2.1639628  41.5976944  57.2097473   2.1069052  40.6520615  57.0728035
   2.5574434  41.9330559  56.4041824  27.1698380  51.3269234  71.3233032
  27.7257099  51.6426773  72.0357208  26.7298908  50.5578918  71.6856232
  12.8841400  38.1261368  75.5026779  11.9665203  38.2824097  75.7257996
  13.1007032  38.8199768  74.8798523  50.1482010  37.4983444  85.7792053
  50.5358582  36.9510193  86.4621277  50.4546928  38.3829765  85.9785004
  68.9727402   4.8164492  13.9527292  69.0722885   4.1199298  14.6017151
  69.6305771   5.4673934  14.1971836  63.1315956  23.1125240  71.6419067
  62.7363091  22.4813213  72.2432098  62.5920906  23.0619240  70.8528519
  71.6370697  20.5426426  52.7500496  71.5428009  19.7713966  52.1910133
  72.4791870  20.4194431  53.1881065  73.0500565  10.6149836  43.5678024
  73.8381271  11.1429806  43.6958618  72.6557312  10.9632778  42.7681618
  30.3403435  15.9117708  72.8541260  29.6203899  16.5402279  72.7998962
  31.0425606  16.3068333  72.3373566  83.0083618  22.2553101  13.6951609
  82.7226868  22.0950031  14.5945597  83.1767960  23.1969776  13.6615963
  33.3752518  10.5839796  53.6926689  33.4748611  11.5305767  53.5913544
  32.8051376  10.3243179  52.9689484  57.8585892  20.8050213  34.6072273
  57.2567902  20.5985394  35.3223724  58.6598663  20.3280067  34.8232002
  60.5586624  38.3602791  72.1134872  60.9589500  38.2837753  72.9795990
  60.9788857  37.6748581  71.5940247  60.8950119   3.8990116  79.9753189
  59.9872131   3.7179761  79.7316818  61.4160385   3.4153256  79.3343735
  39.6899376  47.8462486  80.6225281  38.7633705  47.9860611  80.4271774
  39.7906723  46.8944740  80.6371155  59.7021065  30.3837471  73.3832397
  59.9116592  29.6882076  74.0065689  59.1876068  31.0122452  73.8897095
  61.9211998  21.4716225  81.5932922  62.1019936  21.8765850  82.4415512
  62.1710739  22.1369781  80.9521179  84.1693802  49.4395943  60.6956367
  83.4827194  48.9382019  61.1353340  84.9856873  49.0292206  60.9810715
  81.7185898   7.4207301  53.2375793  82.4464798   8.0117569  53.0449753
  81.8130035   6.7099175  52.6034927  73.7158279   9.1265020  35.2560768
  74.5906219   9.0534668  35.6377029  73.5735321  10.0683565  35.1617584
   8.1117401  35.8845940  59.7163734   8.0888433  36.5374374  60.4160194
   9.0200129  35.5829315  59.6999016  79.8511124  70.4985428  68.8044128
  80.7905273  70.4956818  68.9880524  79.6848755  69.6503525  68.3931198
   7.3792782   7.9114618  40.1814384   7.3866024   7.5705433  41.0758400
   8.2591944   7.7326722  39.8497543  49.2946548   9.0368996  85.0336609
  48.3423729   9.1238976  85.0764160  49.6193314   9.6172371  85.7221527
  76.2005234   7.4945631  22.1526661  75.5470810   8.1898079  22.0760002
  75.6959305   6.7168250  22.3908768  24.2277260  20.3047867  80.0420303
  23.6835861  20.9843102  80.4400177  23.7153625  19.5017967  80.1364899
  16.6826286  42.7134323   9.3010740  17.2446518  41.9576225   9.4717054
  16.9372444  43.3556671   9.9635963  74.7658844   4.9435668  55.4836693
  74.2547302   5.7085910  55.2196808  74.7531509   4.3707790  54.7168694
  85.0601883  35.8859596  54.6427574  84.7594070  36.7353401  54.3197708
  85.9178543  36.0661354  55.0276985  50.4113770  54.2150230  20.9659176
  49.7144852  54.5824661  20.4222603  50.9294395  54.9732437  21.2360001
  68.9022293  65.7960205   8.4849834  68.1272125  65.5329895   8.9813671
  68.7099686  66.6879349   8.1955757  48.8896904  59.9803200  65.5575790
  48.9104958  59.1119041  65.9596329  49.3374748  59.8668976  64.7192078
   0.0152267  41.4319534   9.6723919   0.9595718  41.5226898   9.7997141
  -0.0697398  40.8605728   8.9091511  86.4037476  24.5174217  13.1842155
  86.7878494  24.6945782  12.3255444  86.8539810  23.7300701  13.4901619
  41.1369019  13.1334867   9.6510048  40.1949272  12.9647779   9.6723003
  41.3752937  13.2769709  10.5668726  48.2612801  16.8113194  10.4205914
  48.6949463  17.2342796   9.6794643  48.8083534  16.0505238  10.6158638
  68.4692917  27.9526882  78.7443237  68.6315765  28.4368706  77.9347153
  67.6578293  28.3261948  79.0882111  41.1599655  13.3463526  18.1516895
  40.6510429  14.1094112  18.4255009  40.7046890  13.0209112  17.3751316
  43.0395584   3.0024102  65.6185913  42.7178688   2.3949533  64.9524460
  43.9270439   3.2213259  65.3345413  51.9468994  15.8086681  20.0225906
  51.2453804  15.2142391  20.2885876  52.7239037  15.2524376  19.9668941
  39.6011963  64.8837204  21.1638145  39.6712532  65.1804276  20.2564621
  38.8122749  64.3418427  21.1783752  84.1629791  52.5429802  67.8987274
  83.5916443  52.6011543  67.1329498  83.5985031  52.7730904  68.6367340
  17.7515831  48.3132477  20.8801899  16.8556156  48.3489647  20.5452290
  17.7415504  47.5969887  21.5150928  56.3194580  69.5261612  80.8562088
  56.1024361  70.1115417  80.1306305  55.6680374  68.8268509  80.8028336
  13.2697935  68.1184464  27.4597588  14.2040262  68.3242111  27.4265747
  13.2358303  67.2034683  27.7388592  28.0295258   2.0272770  63.2898293
  27.2800140   1.4508450  63.4387932  27.8117580   2.5006509  62.4868813
  42.4917412  65.6359863  45.9079514  42.9280930  65.7733383  45.0671387
  42.5313187  66.4889603  46.3404999  84.7769699  66.9789276  43.1099968
  85.0663986  67.4430084  43.8955498  85.1239166  67.4974136  42.3840218
  42.4533539  55.3995514  41.8099518  42.8929977  54.9511223  42.5323486
  41.8257561  54.7583351  41.4765015   5.4996099   6.0488062  31.6080208
   6.2254395   6.1701097  30.9959030   5.8633804   5.5040030  32.3059425
  60.2472839  23.2686825  37.2710152  60.8770447  22.6090202  36.9803619
  59.3917847  22.8773270  37.0943909  18.2254238  25.1754971  68.0734406
  17.7199001  25.9843311  67.9930420  19.1387882  25.4614964  68.0592270
   9.9244709  59.0390739  76.4936981   9.3076811  59.2623787  75.7966080
  10.3895597  59.8562813  76.6728592  58.5025406  17.3465118  14.0168486
  58.1533279  16.8779716  13.2587242  58.1524277  18.2333755  13.9324207
  75.2078705  39.8647919  44.5356369  75.0792999  40.4821014  45.2557983
  74.9175949  39.0230522  44.8869934  64.4335403  44.7843895  18.9887047
  64.9797668  44.9687347  19.7528267  64.5762558  45.5307236  18.4065952
  24.9913368  66.9584274  18.3295631  25.0019188  67.5721207  17.5950546
  24.4001675  67.3583984  18.9673538   6.2163820  24.0068283  44.2563705
   6.2639861  23.2537994  44.8453674   7.1263313  24.1801147  44.0151329
  34.9252472  22.8431702  81.3332901  34.0175056  22.8524837  81.6368637
  35.4123726  22.4319344  82.0473099  48.2700806  46.8224716  10.3895206
  48.6777763  47.6223183  10.0574675  47.3371086  47.0311241  10.4370565
  85.1919098  53.2180977  73.3402405  85.8230362  53.5851402  73.9592667
  84.6856308  52.5916901  73.8574753  55.9357147   3.0400767  43.4208374
  55.5628662   2.4366605  44.0635681  56.1976242   3.8045905  43.9338226
  86.3281021   0.7284436  19.7902489  86.7747803   0.3729143  20.5585651
  86.7225571   0.2680848  19.0495033   2.7828317  15.0732737  43.9740486
   2.2235093  14.4061642  44.3719864   3.4484019  15.2547302  44.6376152
  46.2651138  64.9138489  60.2395401  45.8308296  65.6680374  59.8410110
  45.8232269  64.1545715  59.8594589  62.8472404  23.2438641  79.8084869
  62.0746536  23.6701241  79.4374847  63.4922447  23.2596722  79.1014099
  69.5298080  43.9694519  30.9334564  68.6403732  43.7629013  30.6462803
  70.0771408  43.3054771  30.5141697  41.1313705  16.5423565  23.0387840
  40.1874809  16.6762142  22.9528694  41.3569489  15.9565115  22.3161964
  80.3052673  67.3984909  63.0135422  79.6096878  66.8642654  63.3969688
  80.2955246  67.1727295  62.0833969  63.1754303   2.6786292  60.6239929
  62.9651413   1.7531787  60.7486954  62.8662872   3.1043556  61.4236298
   8.0032864  22.8030949  88.9096375   7.8997602  22.7556267  89.8600388
   7.6342230  21.9808884  88.5871429   2.5216942  66.9899673  66.1473923
   3.0391958  66.2263565  65.8918228   3.0160487  67.3848267  66.8656769
   0.8453253  30.2809887  52.7029381   1.1642118  29.4621220  52.3234634
   1.5726997  30.5953903  53.2398834   8.3944387  55.6925430   8.1190472
   8.1227245  54.8019028   7.8973136   8.8727484  55.9961166   7.3474941
  36.4711380  50.1638145   1.7570895  36.8634758  49.8744392   0.9333390
  36.3096809  51.0987091   1.6300836  54.3708839   6.2312932  42.5580559
  54.7160416   5.5058022  42.0377083  53.4445648   6.0214024  42.6768379
  62.5037956  69.8037643  56.2163124  63.3065643  69.9828339  55.7266960
  61.8237762  69.7387009  55.5458069  21.5205860  29.0218353  19.0278835
  21.7976513  28.1820221  19.3941879  21.1346817  28.7981129  18.1809750
  75.1980057  36.3785591  35.1014557  75.0967636  35.7661591  35.8301163
  76.1117172  36.2823524  34.8329201  66.0721588   3.6025839  33.5597305
  65.9396057   2.6674869  33.4039879  66.8806992   3.6481524  34.0700417
  86.5107040  66.4762726   5.1585321  87.2567444  65.8909149   5.2889624
  86.1576309  66.2275925   4.3042917  27.5338364  65.2086487  26.0036259
  28.3351765  65.6456680  26.2918987  27.8375778  64.5068588  25.4278965
  14.6642323  45.7177277  11.8151655  14.8123865  46.6626129  11.7767677
  15.4902439  45.3336334  11.5212135   0.2839807  63.6325951  88.0394821
  -0.0281983  63.1892700  88.8283005   1.2299976  63.7069321  88.1650085
  12.9712772  22.2701225  74.4743423  13.0712919  22.2759895  75.4262848
  13.5952759  21.6102314  74.1720200  59.2465858  70.4440765  32.1526566
  59.1414642  71.0078964  31.3863106  58.7369766  70.8750458  32.8387985
  43.4421921  59.1087379  77.0691528  43.4776955  58.1537514  77.1236572
  44.1070175  59.3364258  76.4192352  39.4610596  18.5243855  74.4144287
  40.3925056  18.3327274  74.5235443  39.4414749  19.3463726  73.9243393
  57.2360954   7.0022998  49.2275772  57.7908173   6.3601637  49.6704941
  57.1243401   6.6529474  48.3434410   7.3467369   4.0636263  23.6118698
   6.6632042   3.4798431  23.2829151   7.2747865   4.0037975  24.5644855
  69.7657242  20.2465916  11.3388224  69.5313263  19.9111347  10.4735146
  70.4889374  20.8514252  11.1733837  38.9029083   9.7095442  74.1404190
  39.1464005   9.1723824  74.8943481  38.9446602  10.6094246  74.4639969
  21.2499924  54.2190285  34.3713760  20.4316006  54.7150726  34.3512039
  21.9289265  54.8697205  34.1928291  24.7141743  68.9659424  35.0113487
  23.9814148  68.8491592  35.6160469  24.5860615  69.8413620  34.6460342
  83.0293961  68.5802078  55.0262413  82.2057724  68.8824005  54.6434174
  83.6215897  69.3273697  54.9408455  73.4838181  13.1697445  78.1684494
  73.1377335  12.3646793  78.5535736  74.3753510  13.2349920  78.5107117
  47.9809341  71.6196289   9.2609854  48.8135796  71.2607193   8.9542036
  47.6418037  70.9571381   9.8629236  85.1546631  26.7013912  54.3616104
  84.2492599  26.6993160  54.6722145  85.4315720  25.7872849  54.4245796
  11.0500517   1.6000454  17.3302116  11.6865387   1.3101655  17.9837303
  11.5395927   1.6116037  16.5077477   8.9996881  52.8175964  46.2159996
   9.8731146  52.9907799  46.5672379   9.0335789  53.1454697  45.3173447
  40.1579170  57.8908806   1.4550943  40.1984062  57.0032349   1.0991763
  40.7137909  58.4081917   0.8723199  52.6618271  62.1344872  89.1854782
  52.1518593  61.4070168  88.8291702  52.8962860  62.6599388  88.4205170
  28.1668682  33.0730934  88.1851349  27.7999516  32.8536034  89.0415421
  27.5393448  33.6886978  87.8063507  16.8117771  19.9092369  15.3233519
  15.9409609  20.3045425  15.3639069  16.8475685  19.4966602  14.4603739
  51.9536667  57.4062309  53.6481590  51.8502731  57.4469566  52.6974297
  51.3335876  56.7328186  53.9278870  69.1522675   0.9953766  36.0523300
  68.5972214   0.3437653  36.4807701  70.0461426   0.7038792  36.2319069
  69.7318878  44.5887566  74.5163422  70.5725479  45.0413704  74.4480438
  69.2677460  45.0497551  75.2151184  17.2179470  68.0691147  10.2569323
  16.8720779  67.8314209  11.1172256  16.9522533  68.9806442  10.1354780
  41.4376640  59.0164452  88.4631424  40.6931190  58.7160873  87.9419174
  42.2016525  58.6323280  88.0330124  63.5391159  35.1179047  88.4338379
  63.8012848  34.4581337  87.7918091  64.0053177  34.8728600  89.2331085
  85.9424515  49.2877350  12.3082905  86.1228714  49.3169250  11.3687010
  86.5289078  48.6097183  12.6438379  41.3531570  70.3843079  17.0995827
  40.8777084  69.6300278  16.7513847  42.1564140  70.4216309  16.5803356
  29.5254726  67.8281403  73.5809784  29.1765289  67.4265213  72.7852554
  30.1552696  67.1895065  73.9152451  10.3368568  54.5748749  13.8459473
   9.6861506  54.5970650  13.1442919  10.8119736  55.4011917  13.7582035
  32.1443634  61.0436935  48.0117493  32.8176270  61.0806122  48.6911507
  31.3215351  61.1762848  48.4824982  36.1901207  27.1908054  18.0830345
  36.9414330  26.6618290  17.8148174  36.4143600  27.4971600  18.9617233
  37.1962128  60.7500000  45.7555733  38.1176529  60.9990807  45.6838646
  36.9293976  61.0652237  46.6190987  79.8769836  16.5088539   6.5219464
  80.2105179  17.3232384   6.8984632  80.6621857  16.0140095   6.2878070
  33.8297844  51.0284119  69.1365433  33.2802467  50.5446281  68.5199432
  34.4781494  50.3892326  69.4320145   6.8949170  63.8858452   8.7585316
   6.3478694  63.2651100   9.2398367   7.0669870  64.5890656   9.3847141
  75.2092743  11.5171890  33.0279007  75.7079773  12.2979174  33.2687035
  74.2940903  11.7719297  33.1452713  23.3875504  20.8933258  23.8577499
  23.6297626  20.2639599  23.1784382  22.8425598  20.3926239  24.4648075
  38.7390518  65.6427765  42.9155884  39.2812538  65.3486938  43.6475449
  38.7230835  64.8977203  42.3148575  19.5211487  12.5176821  68.5345917
  19.3193836  12.7228622  69.4475098  19.9972725  11.6882868  68.5751038
  15.5649958  48.5170708  18.4780769  14.9976254  48.6465340  19.2380524
  15.2546549  47.7020378  18.0835629  14.3724661  66.5088425  50.1046104
  13.9315729  67.2741394  50.4736137  13.7284756  65.8041992  50.1752510
   9.5738001  46.2235565  37.4565773  10.3032818  46.8427811  37.4310989
   9.9592400  45.4129257  37.7890663  46.8860741  29.9097404  75.8787842
  47.5959358  29.2952271  76.0650558  46.5160904  29.6043472  75.0504837
  82.0927429   6.9230552  22.5095367  82.2904053   6.0549283  22.8609848
  81.5981445   7.3561726  23.2052479  65.0263824  69.3720551  58.7154961
  65.8748322  69.6676331  59.0456543  65.2380676  68.6509094  58.1227264
  34.8776054  33.5599670  87.7150269  34.9498291  33.8044090  86.7923889
  34.1540413  34.0910873  88.0475845  24.5061073  23.8836422  51.2419395
  24.9218540  23.3973351  50.5299759  24.1720943  23.2071247  51.8310013
  62.4025955  59.2628708  68.8642731  61.5938988  58.9195824  68.4842834
  62.6906433  58.5807266  69.4708557  61.5106392  43.2024002  11.1966085
  60.8432884  42.5164719  11.1772795  62.3379974  42.7349167  11.0818558
  19.9790840  40.2187614   8.3856878  19.2004147  40.3423767   8.9284821
  20.4361477  41.0587387   8.4277077  80.4769058  71.1761017  48.5976067
  80.3623047  70.3172836  48.1907539  79.6011353  71.5624084  48.5923309
  15.3897400  46.1191559  81.4220657  15.0042839  46.1814575  80.5481262
  16.3337994  46.0931549  81.2661591  69.2344513  13.6100025  49.9192657
  69.4410553  13.1440668  49.1090508  68.6224976  13.0339642  50.3774452
  79.6812210  24.4561920  38.4731178  78.7917480  24.1349754  38.6210709
  80.1666794  23.6875973  38.1734123  78.3558044  39.4251480  24.2439060
  77.8719482  39.0933304  25.0002213  78.0783997  40.3377533  24.1636944
  33.4487228  63.7343674  11.1882648  34.1280556  64.3959351  11.3189077
  32.6818771  64.2314835  10.9035625  55.3456612  62.6793175  38.8477745
  55.7807236  63.3043480  38.2678757  54.8549614  62.1069145  38.2580299
  71.6325684  45.1115761  56.8435020  72.5813828  45.2006302  56.9331932
  71.4738464  44.1694336  56.9019089  25.6481323   3.2947946  28.6450710
  26.2605247   2.8169715  28.0857048  26.2026978   3.7182667  29.3003273
  61.9437637  28.0490456  87.1552429  61.5363007  27.4582233  87.7885971
  61.3677864  28.0155449  86.3914642  14.5062342  70.2942276  58.3437004
  15.0839014  70.4909515  57.6062469  13.9514904  71.0698318  58.4269295
  70.5131378  -0.2236701  22.0059109  70.1919632  -0.3685465  21.1159153
  70.2092972   0.6559391  22.2299690  54.7031441   0.1255736  47.5869522
  54.2318344  -0.6881761  47.7655830  54.0348053   0.7193034  47.2448463
  74.6783981  15.6931000  59.0137825  73.7845535  15.9973583  58.8566055
  74.9815674  16.2142887  59.7572060  76.9221878  60.2102356  53.7796516
  76.7632980  59.2684517  53.8431206  77.7785797  60.2807617  53.3579292
  34.5918312  20.2618790  75.5773621  34.9018555  20.7892590  76.3135605
  35.3848724  19.8670807  75.2148056  70.1265793  35.4298325  18.5940170
  70.1107788  34.8717766  17.8164825  70.4141693  36.2835007  18.2703342
  83.1204376  60.6778374  44.0617676  83.5036697  61.2311020  44.7423973
  83.8228912  60.5645447  43.4214973   0.6200563  42.4998627  82.4392319
   0.6837615  43.1455269  83.1430054   1.2622087  41.8288956  82.6709137
  65.3512802  59.2560463  37.4023285  64.9307404  60.1096764  37.5057449
  64.6240005  58.6386909  37.3237991  40.5133591   5.7306805  38.1765327
  39.9121628   5.3992949  37.5094643  40.1291046   6.5625424  38.4532738
  54.9200668   5.3214016  15.1830359  54.7871933   6.0887089  14.6264248
  54.6241074   5.6000118  16.0496464  31.2502537  56.9214630  51.3833961
  30.5783634  57.2107849  50.7660713  30.8056259  56.2807884  51.9384384
  44.8899918  28.2735767  73.9147034  44.7333412  27.8064861  74.7353821
  44.0645790  28.1995983  73.4356918  46.7359962  14.6669550   3.0508347
  46.0960693  13.9580774   2.9858856  46.6549606  15.1394339   2.2223248
  13.1651850  59.3184586  30.1834736  13.1718435  59.8915558  30.9501190
  14.0462646  58.9454231  30.1556377  13.7068462   8.9650002  37.1196938
  13.4951582   9.8962278  37.0546150  12.8791056   8.5472689  37.3575554
  11.4225588  53.2770462  20.9086075  12.2429876  53.5121918  21.3420067
  10.9491377  52.7570114  21.5579681  72.5336761   7.9091992  85.6868668
  71.9087143   8.3045797  85.0791397  72.3072891   8.2815132  86.5391388
  69.3814621  34.8736076  15.9070349  68.9641113  35.7270737  16.0238400
  70.2410355  35.0758781  15.5376387  45.6899567  24.2939205  87.6551132
  46.0631332  23.4125061  87.6463013  45.2168617  24.3454208  88.4856339
  67.5399399  56.9936867  38.8176079  67.0024490  57.6302376  39.2889290
  66.9103470  56.4645042  38.3278999  71.1984482  65.7270355  19.8867970
  70.6646881  65.0292816  19.5066929  71.7731018  66.0046387  19.1733990
  70.7040710   6.6333151  22.3775520  70.1904449   6.8883858  21.6111603
  70.0600510   6.5508995  23.0808830  24.7398491  13.6419296  24.8595886
  25.1409092  13.4090948  25.6969471  23.8125057  13.7629337  25.0636024
  66.8266525  63.6360855  26.0382290  67.7108688  63.5478287  25.6824150
  66.9570084  63.7394714  26.9808578  38.3464508  14.5764666  80.0620041
  38.1867332  14.1376953  80.8975906  39.2993088  14.6500759  80.0084229
  82.3697128  56.7296219  73.3276138  82.4381638  57.3376808  74.0636902
  83.2616882  56.6653214  72.9863205  25.5616856  68.1967621  12.9131298
  24.9775372  68.2993546  12.1618118  26.4364033  68.3603668  12.5605230
  51.7284393   1.0757060  44.3893890  51.4111099   0.5169881  43.6799011
  51.4541855   1.9582648  44.1401749  62.2914848  62.7898369  57.6705399
  62.4938240  61.8939972  57.9402847  61.6732101  62.6882172  56.9469070
  81.2824020  55.0421638  27.4337082  81.9002914  54.3652115  27.1576958
  81.7988510  55.8480225  27.4440041  81.3975296  28.3450508  38.9730263
  81.9797668  28.7793636  38.3496475  80.5191116  28.4904423  38.6216469
  28.0678577  24.4933376  12.2438478  27.7852573  25.1168213  11.5747900
  27.5916710  23.6889076  12.0380087   2.9101715   3.7408710   3.4145417
   3.8088367   4.0204153   3.5891490   2.6907043   3.1675515   4.1489606
  22.4497738  28.8443241  53.6231499  23.1338062  29.4612350  53.3628578
  21.8932228  28.7630138  52.8486366   6.2720909  31.4642735  75.7517090
   6.8705330  30.8561153  76.1855774   5.5586319  31.5860691  76.3781052
  33.0374870  31.3378353  73.6967621  33.7101326  31.2962418  73.0170212
  32.5075150  32.0998726  73.4629669  63.3367729  46.6999817   1.0895381
  62.9140511  46.3753853   0.2944444  63.3345413  45.9505615   1.6850190
  63.9775810   1.1341897  86.5718231  63.0617714   1.4100287  86.5338669
  64.4201431   1.8377316  87.0465851  16.5577221  32.4144135   4.9166546
  16.4065380  32.2407036   5.8457398  17.3665104  31.9444389   4.7136335
  48.2831917  55.2442856  10.8190641  48.1912956  54.7573128  11.6379938
  48.3787689  56.1566429  11.0923681  56.3556709  23.9700489  73.7123184
  55.5483513  23.4746838  73.8504562  57.0090714  23.3063679  73.4913559
  83.0745010  48.9371719  12.3665771  82.8726120  48.0257568  12.5782404
  83.9953995  48.9241676  12.1058035  22.6144085  58.1987038  23.4690495
  21.8965626  58.6803780  23.0580482  22.6324558  58.5191193  24.3708477
  57.9093018  12.2503700  82.8800278  58.6763611  11.7835150  83.2115479
  57.2113876  12.0337753  83.4982834  84.7526093  24.4599266  44.2205276
  85.5533295  24.2651939  43.7335396  84.1326981  24.7555962  43.5538025
  10.1163044  37.2600212  68.6027145   9.9707937  36.9683228  67.7027359
  11.0680733  37.2571487  68.7045059  27.9532261  28.9931717  79.6048965
  27.9402084  28.0373211  79.6540222  28.2220573  29.2743073  80.4794998
  39.9726562   8.2682991  16.8738098  39.5311966   7.5492082  16.4218636
  39.7482071   8.1452217  17.7961483  66.8419113  30.8496609  31.2337437
  67.4430008  31.4013996  30.7332439  67.4127121  30.2845364  31.7543640
  68.6552505  16.6908875  42.6171455  69.4494705  16.1569366  42.5988007
  68.4405975  16.7690334  43.5466881  82.6602097  45.9469337  12.5358162
  83.4722214  45.6234398  12.1456633  82.0923157  45.1776276  12.5793686
  54.4531898  50.3087502  31.9542580  55.1243629  49.6354980  31.8425064
  53.6546059  49.8200836  32.1535187  65.2436523  28.4507408  31.2603512
  64.3144684  28.6791515  31.2343559  65.6833954  29.2640991  31.5079498
  84.4210358  68.8660278  18.5729313  83.5786285  68.4562683  18.3762722
  84.2267532  69.4887619  19.2734222  15.9669828  67.6627960  45.1960411
  15.2954750  67.8933563  44.5540504  15.5344000  67.0425186  45.7828598
  70.4746552  35.7583847  37.6341324  70.6742401  35.6034088  36.7108879
  69.5442429  35.5491295  37.7164383  14.1821384  71.4030457  10.3121004
  13.7430048  70.5744629  10.1201324  13.5782452  71.8650818  10.8935366
  66.9664230  67.0604095  16.7414951  66.7984085  67.1973190  15.8091545
  66.1163940  66.8107300  17.1039104   5.9848642  48.7994385  33.4711227
   5.6284804  48.2148819  34.1400871   5.2864947  48.8730202  32.8206596
  57.5162163  10.0048027  42.3795700  57.5741920  10.2579384  41.4582710
  58.4071274   9.7437983  42.6127625  26.6750031  19.1508503  24.2203598
  26.1942272  19.1971951  25.0467606  26.0005207  18.9950294  23.5592823
  52.4599876  21.4235325  60.1072693  52.7206116  21.6110497  61.0090141
  53.2366219  21.6273441  59.5861816  52.7269325  66.1352005  61.0911560
  53.6399803  66.2578201  61.3510323  52.7759552  65.7884674  60.2003136
  22.9573784   2.4264488  64.2791290  23.3346233   2.2105985  63.4262962
  22.7037258   1.5811265  64.6496964  55.5648079  10.5732689   1.6467947
  56.5038185  10.7153234   1.7664495  55.4772072   9.6257372   1.5431521
  14.8554497   2.6030865  86.7256165  14.8888245   3.3103321  86.0814743
  15.0329170   3.0326703  87.5623932  11.4593210  71.1913910   1.8081799
  11.7543278  70.6238861   1.0960375  11.7709312  72.0630493   1.5645782
   9.7849627  58.9526443  69.8542328   9.3024092  59.6707726  69.4447632
   9.1782207  58.5954323  70.5026932  72.2845612  44.1427155  35.2570496
  72.9295197  43.8280830  34.6235886  72.0157547  43.3581352  35.7349739
  76.1459808  31.4361916  78.3918076  76.0693130  32.3411179  78.0893860
  75.5339737  30.9471684  77.8417816   8.8429842  67.1966934  85.3395538
   8.2361097  66.5878754  84.9185104   9.1702805  67.7418289  84.6240616
  81.7529984  44.4867363  35.1895790  82.2003174  44.1402473  34.4175186
  81.6185455  43.7233772  35.7512131  37.1231270  53.6327248  32.6326828
  36.3439140  53.1015472  32.4686279  37.6173325  53.5922279  31.8139324
  46.2867622  52.8100777  77.4276657  45.5690079  53.0536804  76.8430939
  45.8532524  52.4917831  78.2194901  68.9253464  22.0946178  53.5392838
  68.2434082  22.2660866  52.8898315  69.6564255  21.7423801  53.0316505
  78.2439346  32.3858185  20.3757496  78.9622726  32.0209198  19.8589573
  78.6351929  33.1250343  20.8412685  78.8613739  57.1621857  11.0634909
  79.2707748  57.5501251  11.8368740  78.0254822  57.6209412  10.9794283
  13.5904398  10.9114828  16.4857063  13.1816463  11.7645006  16.3391438
  13.5206795  10.7715416  17.4300480   4.8239517  32.9784889  39.5583305
   5.7388229  32.7154846  39.6586914   4.3982801  32.6755104  40.3603554
   5.6360683  57.7993279  36.3312759   6.4314394  57.6087875  35.8339729
   5.0093431  58.1017876  35.6740379  83.6204910  13.4776602  87.9709549
  82.8482361  12.9147625  88.0257492  83.9674301  13.4957895  88.8628845
  38.4367409  17.3478737  22.9744816  38.3726883  18.2994785  23.0555935
  37.7417564  17.0119267  23.5404873  22.6985950  30.4538288  59.9365387
  23.2429562  29.7816143  59.5266228  22.2094936  30.8414021  59.2107315
  26.5329857  27.0218544  71.7406387  27.4375706  27.2919827  71.5825577
  26.4717674  26.9348297  72.6919098  77.3995132  19.0310383  46.1212692
  77.9200745  18.2859974  46.4215393  78.0462036  19.6690006  45.8195610
  72.0573654  60.7212524  16.1812572  72.3729095  60.7231522  15.2775640
  71.1152878  60.8732338  16.1063232  79.0592041  34.5500641  37.9939880
  78.8174057  35.4331665  38.2730751  78.3480377  33.9947510  38.3135109
  32.8874664  21.6683464  88.2848587  33.1858635  21.8664627  87.3972015
  33.6908112  21.6248989  88.8034897  36.9025002   2.4370844  73.3032532
  35.9565964   2.5690272  73.3672333  37.0388374   2.1077082  72.4149094
  35.3728828  56.1618767  45.9545097  35.7880783  56.7156334  46.6157188
  35.1894226  56.7551689  45.2261047  75.2272873   5.0546050  22.7687168
  74.7055511   4.4038234  23.2382984  74.8057480   5.1269379  21.9123821
  67.0089417  10.4989815  62.6089935  67.1590881  10.0749273  63.4538994
  67.5111389  11.3124657  62.6566849  40.0023422  11.7223816  36.5637169
  39.7458649  11.4881306  37.4556656  40.8938408  12.0596333  36.6516037
  49.2183990  31.0409584  73.2888336  49.6034660  31.4098129  72.4939117
  48.2872505  31.2532902  73.2247086  75.2760468  20.3733101  36.7278099
  74.8942566  21.1717625  37.0924149  74.8651505  20.2822819  35.8680954
  56.6131821  66.7523193  40.0454407  57.3445053  66.1387024  39.9756203
  56.8934631  67.3847046  40.7070808  74.5033646  26.8222694  82.9023132
  74.2982635  26.1420288  82.2608795  73.9814682  27.5760517  82.6272202
  51.7570457  16.1351776  23.0438461  51.9482651  16.2731781  22.1161480
  51.6200447  15.1910868  23.1222973  13.5923300  47.8890648   5.9019871
  14.1003456  48.5718956   6.3400459  12.7027941  48.2403641   5.8626347
  17.5868034  70.7680740   3.3693490  16.7345543  70.6457596   2.9510872
  18.1773434  70.1934357   2.8822343  14.0432129  51.4619446  16.7630253
  14.9112186  51.8121185  16.9634628  13.4968243  52.2368202  16.6316414
   5.6033177  15.1227932  53.1952248   6.0927711  15.9054832  52.9421158
   6.1851721  14.6613159  53.7991409  58.6113472  71.2026749  13.4018097
  58.4710312  70.7978973  12.5458326  57.7381325  71.2482452  13.7912359
  38.7409668   9.2045460  68.8580017  37.8152580   9.2573709  68.6202927
  38.8939247   9.9792652  69.3989716  14.1132030  55.1398621  29.6941586
  13.2822495  55.5227318  29.9755116  13.9039621  54.6874466  28.8769875
  25.8756599   1.3699154  66.9352188  25.5953693   2.2749374  66.7988205
  26.3938885   1.3983076  67.7395020  21.7884579  17.4125481  72.5136185
  21.2129459  16.7822533  72.9469147  21.2388077  17.8165340  71.8421173
  74.3091354  65.4731140  57.7375374  74.0968018  64.5546722  57.9037094
  74.8813324  65.4516678  56.9704857  31.9052277  50.6714325   6.4437242
  31.9386673  49.8084755   6.0309086  31.4913445  50.5150185   7.2925267
  82.0032806   3.1214981  42.5829582  81.6771545   3.0357947  41.6871185
  81.4479141   2.5354562  43.0971184  40.5891380  59.6717529  12.8775578
  39.7163544  59.8687935  13.2176390  40.4566803  58.9213333  12.2982817
  86.5751877  16.4418812  47.6254578  86.3827744  15.6258850  47.1635475
  85.7890015  16.6151009  48.1432762  54.4277077   3.4398959  60.5829926
  53.9242859   4.2518516  60.5236206  54.8788452   3.3756979  59.7412148
  20.6349621  64.0545731  59.8617668  19.8642864  63.8144150  60.3761749
  20.4875641  64.9695740  59.6224365  86.4113922  35.2480392  81.9462433
  85.6944199  35.3412361  81.3189545  86.9584045  36.0200348  81.8012085
  47.0308304  45.0670166  82.8204193  46.5104446  44.7073631  82.1020355
  47.9113045  44.7207909  82.6750870  37.3648758  10.3965130  56.5245552
  37.7201424  11.2830830  56.4612389  38.1256142   9.8464165  56.7113724
   5.9085865  52.7718658  44.6686821   4.9907169  52.8334579  44.9331703
   6.4009299  52.9974480  45.4579506  70.2067108  41.2680702  42.5398216
  69.7674637  41.9944420  42.0974693  71.1252060  41.5340500  42.5828094
  82.9153137  55.0722656  58.5023575  83.8429489  55.2392731  58.3354950
  82.4707108  55.8624573  58.1955070  23.8245354  26.8030510  50.8803215
  22.9356842  27.1545925  50.9312363  23.7344933  25.8857994  51.1387291
  55.0525284  22.5630569  30.9958439  55.0687332  23.4137630  30.5573578
  54.5332947  22.0050220  30.4168587  13.4466171  65.0566101  70.2352829
  13.9313898  64.2476807  70.0714264  12.7495556  65.0551758  69.5792847
  56.7674828  24.1868839  35.6750755  57.4223213  24.2963028  34.9855499
  57.1214180  23.4950218  36.2339058  79.2197952  28.7576828  62.0956535
  79.0655594  28.4560165  61.2004204  79.6307907  29.6158905  61.9917450
  65.5999527  31.0290794  19.2798920  64.6573029  31.0053177  19.4444580
  65.6945801  30.7093506  18.3826447  72.4698257  61.3861351  13.5807934
  72.2435684  62.3160782  13.5651150  71.6748810  60.9412346  13.2869167
  49.6575050  14.6809015  25.4449425  49.5921593  13.9765244  26.0897789
  48.9512215  14.5032558  24.8237839   7.3061132  33.8596954  48.1934319
   8.1705866  33.6694412  47.8291245   7.4155550  33.7526855  49.1383171
  70.1643524  39.5995255  23.9235802  70.0991821  39.1884308  23.0616131
  69.5846176  39.0804214  24.4809589  67.4245377  44.5026398   2.5262575
  67.5354004  44.9431725   3.3687952  67.6286087  45.1746788   1.8759106
  11.2790537   0.1758439  71.2104950  10.6227388   0.8681991  71.2887726
  10.8151588  -0.5473253  70.7885284  24.2940159  47.3590355  30.7094402
  23.7588711  48.0234337  31.1435184  23.6607494  46.7881813  30.2743206
  69.7937927  55.6467018   8.3555613  69.8743057  56.5418854   8.6847878
  68.9987183  55.3101120   8.7688370  57.7716179  18.0137291  74.8418808
  56.8981438  17.7910786  75.1639099  58.3437271  17.8957539  75.6001663
  20.9474564  28.7043953   5.1346693  21.4770432  27.9439659   5.3745008
  21.4555626  29.1449070   4.4534869  18.6611233  35.8497734  55.6604042
  17.9783058  36.5205841  55.6618729  19.0630627  35.9152412  56.5266533
  26.2478485  68.3053894  -0.1050059  25.5873795  68.0281830   0.5299505
  26.7248726  67.5038071  -0.3198280  23.6669579  55.4288979  87.5777588
  23.2351208  55.7670555  88.3622284  23.0274296  54.8306274  87.1913528
  21.7348747  68.7890320  56.5728493  20.9404793  69.2635498  56.8178062
  21.4805965  67.8666000  56.5991936  43.7400818   2.5307133  60.6157532
  43.2820015   2.0015855  61.2687607  44.6507225   2.5394058  60.9105225
  65.8738174  64.0085678  76.9351730  65.0390167  63.6751404  77.2640610
  65.8563309  63.8153763  75.9978333  53.6284332  31.1689606  81.6901093
  53.5803795  31.7544041  80.9343491  54.2941628  30.5239201  81.4514618
  11.1439161   6.5403152  67.5231247  10.4741192   7.2026877  67.6930161
  11.6166248   6.8684072  66.7581787  26.8183365  22.1039181  13.0646458
  26.6843548  21.1581841  13.0024633  27.3496094  22.2192669  13.8524761
  83.5845947  13.6822309  24.6987514  83.8326492  14.5727768  24.4504948
  83.6114044  13.1887970  23.8789730   4.1194448   3.4346998  24.8273201
   3.4341989   3.0499668  25.3738098   4.3321595   4.2628727  25.2575703
   9.6628246  53.7519608  60.4687614  10.5158443  53.7464600  60.0345306
   9.8698149  53.7550697  61.4033089  42.6816483  62.0486031  42.8810196
  42.2636490  61.4374809  43.4876785  43.6198235  61.9025841  43.0024376
   3.2105017  46.0347481  29.5185776   2.5001106  46.1295357  28.8840771
   3.8817081  45.5350800  29.0537701   0.6200352   6.1406212  15.0371485
   0.5238011   5.4998269  14.3326254   0.9569196   6.9246216  14.6034622
  51.5817757  37.1844254   2.5753431  50.9529572  37.9050865   2.5370526
  52.2630539  37.4925117   3.1729810  23.0091591  35.6420517  80.0252380
  23.7781544  36.0112076  79.5909500  23.3605995  34.9547195  80.5911865
  57.1326866  61.3434639  48.4925385  57.7588272  60.7130585  48.8485794
  56.5699234  60.8239326  47.9184189  79.7356415  69.2212677  20.9728336
  79.0314102  69.5068665  20.3908291  80.2241898  68.5776062  20.4597530
  77.7264557  47.9389038  31.6458206  76.8321686  48.2453690  31.4956589
  77.6236801  47.0315590  31.9328671  19.3946514  60.3751106  89.0734177
  18.8822460  59.5678635  89.1184235  18.7691154  61.0401459  88.7859039
  63.3729134  24.0891438  63.8012085  63.7139931  24.0684967  64.6953430
  64.1528931  24.0676880  63.2467728   6.9473543  61.3969002  18.4161034
   7.2714310  61.2864456  19.3099728   6.3061881  60.6948586  18.3053265
  28.2039318  40.7183189  79.9793015  27.3531094  40.3866005  80.2661743
  28.6143589  41.0480766  80.7787018  13.9498930  19.8744812  40.3135376
  13.5540409  19.0308990  40.5324020  13.6690474  20.0447712  39.4144478
  49.6260529  36.4080505  19.6806164  49.6804008  36.7116203  20.5867748
  48.8678551  35.8239021  19.6687813   4.2321849  37.3196831  60.3640404
   4.0131211  37.7006912  61.2143784   4.5375853  36.4359818  60.5690613
   6.6699286  35.2251053  40.3865280   6.3085885  35.1814575  41.2718315
   6.7878618  34.3103218  40.1306038  15.2118578  34.8360100  82.7682648
  14.4928093  35.2922821  83.2053146  14.8576069  33.9704285  82.5645294
  65.1964493   1.4823493  54.6798363  65.9323425   1.9922261  54.3411407
  65.5296326   1.0869169  55.4853516  72.3619537  50.2867508  81.3215485
  72.8165741  49.4447021  81.2990570  72.3648453  50.5848694  80.4119568
  47.8534050  32.8668747  53.3231506  47.3691101  32.0416870  53.2956123
  47.8885231  33.1545334  52.4108734  55.3954926  37.4576416   9.0900974
  54.9042931  36.6363449   9.0694361  55.0849152  37.9417839   8.3249979
   2.2628465  33.8476448  47.0606422   2.9805317  34.0382957  46.4566460
   2.5139151  34.2822189  47.8757133  36.0899887  16.9284344  -0.0162166
  36.3624840  16.6706161   0.8644125  36.1548920  17.8834305  -0.0170471
  22.6714325  57.6602554  71.2869186  22.2474041  57.9166489  72.1058731
  22.1178761  56.9610023  70.9392776   1.2974762  71.2725906  84.6489182
   1.7225845  71.0977402  85.4885254   0.4701459  71.6935806  84.8824310
  20.5707664  11.6964359  57.1377449  19.8685265  11.0627661  56.9909286
  20.3500271  12.1094341  57.9725761  38.5807610  70.9483109  22.9205341
  38.2585754  70.0710526  22.7135391  39.0725136  70.8370514  23.7341881
  27.0377502  49.4176254  79.5673294  27.2345867  48.4928093  79.7163391
  27.7766991  49.7396240  79.0510864  77.1942520  34.0639305   8.4732561
  76.6133270  33.6644135   7.8258471  76.6825180  34.7837257   8.8423786
  55.3884087  12.2941942   7.7484765  56.0043068  12.2715445   8.4808598
  55.9158707  12.5745707   7.0005426  49.0457001  40.0086517  83.9067307
  49.9088936  39.9229927  84.3114471  48.7106285  39.1129684  83.8653488
  84.1225586  52.4496498  48.4420204  84.6461487  51.6523590  48.5220757
  83.2206345  52.1583214  48.5757828  26.4545212  63.9796448  12.6964941
  25.5970993  64.2930908  12.9842567  26.4649105  63.0537949  12.9392366
  31.0518036  22.1490917  84.8807297  31.7277145  21.4719467  84.9099579
  30.4531612  21.8603745  84.1918869  22.2130070  41.4744911  85.8682556
  21.7417164  40.7446365  85.4664764  22.7172241  41.0733376  86.5761185
  86.2424316  41.3060303  36.3428535  86.6753464  40.9924850  35.5488091
  86.1915817  40.5352974  36.9081993  62.7087555  52.4869118  74.9202805
  63.3903809  52.0394936  75.4217148  62.8468437  52.1985512  74.0180511
  56.2665482  58.7996559  31.1442928  55.9939232  58.2930679  31.9093246
  56.7432518  59.5455704  31.5084267  68.2265701  18.3439732  31.5674343
  68.6595840  18.2436237  32.4151726  67.6679764  19.1140137  31.6734715
  80.4924622  33.3028603  84.3205032  80.7379074  33.3786545  85.2425919
  81.0902481  32.6441879  83.9668961  -0.0316453  22.1736012  75.1061325
   0.4327533  22.7890968  74.5389175   0.2510246  21.3101578  74.8048096
  10.1941099  43.7206268  39.2801704   9.4314365  43.1573448  39.1487312
  10.9441290  43.1320801  39.1946259  26.1463146  61.3032684   5.8978634
  26.1811333  62.2380257   5.6947808  26.3344898  60.8701096   5.0652785
  47.8990440  23.6150284   2.3780973  48.5686302  24.2978859   2.4179926
  48.3672028  22.8380890   2.0724406  59.1449127  50.9357567  84.0457993
  59.9969978  50.6463470  84.3720245  58.9789925  50.3805923  83.2838974
  43.3479576  31.1505795  74.0192871  43.8577957  30.3606300  73.8396225
  43.1886978  31.1234398  74.9627533  17.2711258   5.8899593  75.3367615
  17.5294037   4.9807067  75.4877014  16.9954414   5.9116669  74.4203796
  13.0391321  70.3692627  23.0416985  13.3250027  69.6790009  23.6400700
  13.4541168  70.1500778  22.2074471  16.4319592  69.3015900  77.8158875
  15.5445633  69.1427917  78.1376724  16.7616310  70.0137177  78.3639984
  60.4088135  44.1151009  41.0935745  61.0661201  43.4452934  40.9050522
  60.2497635  44.0365524  42.0341949  65.5667343  27.3909988  42.0790787
  65.6735306  27.5902443  43.0092010  65.6501999  28.2382355  41.6415215
  60.4168167  67.1480942  70.1582718  61.2107811  67.4560928  69.7212448
  59.7019730  67.4555969  69.6008911  35.8895226  10.1947613  79.6905975
  36.2261887   9.3895941  79.2974167  35.9348488  10.8420734  78.9869232
  82.1346512   0.4451730  66.3750229  81.2294540   0.1341032  66.3653336
  82.1740112   1.0896742  65.6684113  44.2656593  42.3552704  14.7674246
  43.4095001  41.9730110  14.5747995  44.8935661  41.7371368  14.3934212
  10.3158360  47.1858902  21.0130482  11.1052999  46.6996193  21.2507839
  10.0587034  46.8250809  20.1645622  34.9567490  29.2796478  86.6522598
  35.0769806  29.8578453  87.4055634  34.0118561  29.2789536  86.4992599
   4.6394496  41.7305107   4.7367349   4.8077140  42.4958267   5.2864676
   4.8260298  40.9824409   5.3040204  14.5309553   4.6677485   0.1135852
  15.3896112   5.0090461  -0.1363289  14.4032946   4.9745145   1.0112652
  13.8887796  66.2072449  66.3739090  14.7932873  66.3743057  66.6388474
  13.3633394  66.7551193  66.9569931  35.5264397  45.1614456  79.7983322
  35.5734367  45.8548660  79.1401596  35.8918800  45.5571098  80.5896149
  60.8339729  14.4556236  28.7253246  60.0647888  14.3183031  28.1723957
  61.3350334  15.1350660  28.2741833  49.3524628  59.7110214  84.8250656
  49.5758133  59.4812126  83.9231033  49.8872261  60.4817848  85.0152893
  54.2546539  51.0292206  86.0860367  54.2583160  50.7534561  85.1694260
  53.9579124  50.2568703  86.5673294   7.6007695  71.0622864  59.6083755
   6.7312145  70.7331161  59.3808823   7.9320884  70.4376297  60.2535667
  22.6473083  26.5781479  75.5847015  22.9213486  26.7833977  74.6908340
  22.2882023  27.3997459  75.9197464  52.8062248  48.7472382  86.5214081
  53.0982971  47.8419151  86.6277847  52.1787071  48.8814774  87.2316437
  61.3606834  24.5790443  45.6104660  62.1424599  24.8607273  45.1353722
  60.7261772  24.3699551  44.9249611  59.8088760  59.1791840  80.6207657
  59.3058052  59.5997467  79.9234314  60.6705437  59.5938263  80.5779800
  26.7485237  68.1098480  25.6505089  27.6646194  68.2818985  25.8682213
  26.3617153  67.8004532  26.4695873  60.1980896  65.2025681  43.4097137
  61.1549034  65.2086258  43.4362831  59.9802208  64.5111160  42.7846909
  33.3703079   0.5260084  11.2691326  33.6531525   1.2513682  10.7122803
  33.1248169  -0.1658676  10.6549063  62.6826820  49.8029137  78.8399048
  63.6369781  49.7991409  78.7654877  62.5080910  49.4232178  79.7010574
  25.2709045  68.7993164  51.0322342  24.4552574  68.6131439  51.4973068
  25.9363403  68.8322525  51.7195053  33.8553085  57.5332832   8.9501104
  33.4649124  57.3909225   9.8124075  34.7533951  57.8073082   9.1360779
  26.1571312  71.1508026  88.3567047  26.3541203  70.2191391  88.2595901
  26.0790749  71.2818680  89.3016739  35.4072227  65.0210495  21.7525711
  34.5528488  65.0434647  21.3215542  36.0357590  64.9452896  21.0346355
  55.7750168  25.8458271   1.6786513  56.5654564  25.4640446   1.2969700
  55.0668716  25.5543098   1.1043841  63.6043129  35.1027374  37.2043991
  63.3422890  34.5377846  36.4774857  63.7871666  34.4982414  37.9236870
  74.5215836  11.8498487  75.6402206  74.0048676  12.0889263  74.8707504
  74.1085129  12.3229666  76.3625488  71.6421585  31.3119507  84.0149460
  72.4408264  31.8363781  84.0727921  71.4764709  31.0279694  84.9139099
  18.3875675  52.0959053  31.5281181  18.0843620  52.5245094  30.7277470
  17.6002846  52.0071526  32.0652809   6.3836293  46.3003502  16.1414700
   5.4358058  46.3307648  16.2716141   6.6500540  47.2190208  16.1055393
  31.3242188  17.1962032  81.5148926  31.4447212  16.3516369  81.9489594
  30.3769321  17.2744541  81.4019547  16.2254543  37.6254654  73.5651703
  16.8176804  38.3505173  73.7646790  16.7754879  36.8441887  73.6226273
  35.0184784  11.0211029  22.0299549  34.2772903  11.0185375  22.6356506
  35.7531433  10.6939688  22.5490704  78.5336151  57.0513077  69.1969147
  78.4097672  56.3288383  68.5813446  78.8808441  56.6363411  69.9865189
  62.6230354  71.5872421  60.9577217  63.1017952  70.9279327  61.4600487
  62.9265175  71.4695206  60.0575714  63.2678833  70.2584610  49.2253151
  63.1405869  70.1842651  50.1711044  64.2109451  70.3837891  49.1196747
  21.9279346  19.3413048   5.7052336  22.8683147  19.3173561   5.8822718
  21.8549538  19.1446152   4.7713070  81.8242950   9.6931477  45.1141129
  80.9096603   9.6219025  44.8409729  81.9280472   9.0160074  45.7826538
  49.8294296   5.3453498  35.6974831  50.0846062   4.8198342  36.4557381
  50.0506897   4.7999125  34.9426498  45.4939613  32.0653801  88.1960983
  44.5895767  31.8014526  88.3654022  45.5192032  32.9944382  88.4251022
  81.2000885  68.5887604  89.1886139  80.9705582  67.7706528  88.7478790
  81.5434494  69.1480484  88.4918137  84.5334473  13.3368540  14.7824316
  85.3136520  12.8542194  15.0555115  84.7057571  13.5749941  13.8714809
  45.0539207   9.5239029  52.6640701  44.6922760   9.6604042  51.7883911
  45.0391273   8.5743580  52.7839699   6.8742008  37.1162567   3.6064146
   6.4659157  37.5673981   4.3453369   6.4398546  37.4792557   2.8345301
  53.1061325   1.4757415   6.4677057  54.0308380   1.2304666   6.4991937
  52.7236061   0.8850118   5.8189030  61.6042252  18.8570175  18.1017151
  60.9690247  18.1468735  18.1936264  61.8915215  18.8048954  17.1901360
   9.9734087  27.1202431  20.0264587  10.3677168  26.4244480  19.5005074
   9.0779667  26.8218594  20.1857777  42.7018585   1.9766788  31.4904633
  41.8548431   1.8030933  31.0797749  42.9810219   2.8136163  31.1191998
  78.9570694  17.4703579  72.5375900  79.1761856  17.7570133  73.4241791
  78.5216751  18.2256680  72.1424026  63.4902840  57.7679558  19.9166851
  63.7171478  56.9068222  20.2677021  63.4933777  58.3459969  20.6796341
  15.4325151   6.5585833  51.3090248  15.0270891   5.9156995  50.7271614
  16.2899857   6.7277336  50.9186821   2.2660775  18.5875683  25.6503830
   2.9524853  18.0498619  26.0452843   1.4740872  18.0546265  25.7207832
  50.4561386  71.1932220  19.2617397  50.0442810  71.6102066  18.5049458
  51.0191231  70.5166626  18.8855190  12.9969368  40.5199203  57.8714676
  12.1174049  40.1967773  57.6759338  12.8520241  41.2984390  58.4091835
  58.9443855  37.0758781  18.4352627  59.1433983  37.5498772  17.6278267
  58.8316879  36.1667557  18.1577301  86.1946411  43.9106026  35.3840294
  85.3945618  43.7437019  34.8857841  86.3996811  43.0713005  35.7960510
  54.2058105  53.0799255  61.1125908  53.8557320  53.9478569  60.9116478
  53.4325600  52.5200729  61.1824837  62.4900208   3.2878151  77.3854828
  63.0021744   3.0868111  76.6022034  62.4731178   4.2441802  77.4217072
  29.6440697  44.0670586   2.6404760  29.1439362  44.8831406   2.6506996
  29.4899139  43.7025757   1.7689137  10.4146090   4.0987120  31.0591068
   9.5860786   3.6467330  30.8994675  10.8450241   4.1188402  30.2043724
  82.7236481  59.8660355  26.7395306  82.6647186  59.3870049  27.5661430
  83.5531616  60.3403053  26.7961617   7.5084848   9.0255899  57.8465462
   7.7568026   9.0013714  56.9224319   6.6930890   9.5266991  57.8623962
  68.7969131  15.0033178  71.9917908  68.4841919  15.9078627  72.0071487
  68.2987213  14.5895939  71.2869034   7.0086737  67.8156281  75.8895340
   6.9244175  67.9853973  76.8277817   6.3608613  67.1341248  75.7103195
  19.6011658  55.6943817  27.4833660  18.9382420  56.3846970  27.4682484
  19.2163105  54.9815216  26.9735107  82.7405701  40.2121429  59.4536781
  82.7801971  39.5851135  60.1758232  82.7520447  41.0692062  59.8797569
  23.3617516  32.9770126   9.0840673  23.7306137  33.4257812   8.3232899
  22.7353287  33.6014328   9.4500294  86.7226715  67.7968750  64.4768524
  87.2489777  67.1112518  64.8881454  86.4908371  68.3846359  65.1959000
  57.5021744  48.2730942  59.5111809  58.2065125  47.8333473  59.9873772
  56.7412720  48.1995239  60.0872421  48.4958687  25.0424194  88.5140533
  48.2194672  25.7971439  87.9942245  47.6939735  24.5371685  88.6479111
  66.6193695  47.3868370  35.4859047  66.0691376  46.6083794  35.3994102
  67.3273773  47.2508698  34.8562508  53.9370995   0.3567993   9.7240658
  53.9678879   0.4587121  10.6753263  53.4629326   1.1290003   9.4156780
  75.6909485  16.9016018  20.2122078  74.9302139  16.4011745  19.9171162
  75.4812622  17.1471424  21.1133022  41.6340103  24.2125626  85.9997177
  42.2787437  23.5929012  85.6583023  40.7904282  23.8629894  85.7126617
  41.9830208  33.7098541   1.0659072  41.5150337  33.4234772   1.8502614
  41.3333435  34.2047539   0.5666808  72.8988953  67.6047134  58.0247459
  73.3091125  66.7402039  58.0486870  72.5131378  67.6626511  57.1506386
  27.0749855  29.6259232  10.1188726  27.3875561  30.3183994  10.7011166
  26.1418762  29.5487556  10.3178234  82.8573685  41.5728455  39.4223022
  83.0430145  42.0530777  40.2292366  82.8967133  40.6511726  39.6776505
  59.7445831  40.8251076  21.2700481  60.3990326  40.8127861  20.5716400
  60.0806389  41.4606667  21.9020004  74.1867447  45.8071175  29.7549419
  73.6443329  46.1010056  29.0230579  74.7368774  46.5621185  29.9636478
  62.9964638  31.0079117  16.2955666  63.1493530  30.3040218  15.6651726
  62.6982155  30.5599155  17.0871353   0.4949456  33.1638870  63.8385773
   0.3428426  34.0706215  63.5722466  -0.0437016  32.6451797  63.2410507
  39.9653435  16.1819248  81.8796158  39.1438293  16.6469078  82.0381622
  40.4629707  16.7639065  81.3052444  60.7252922  61.4957237  70.1697540
  61.2635727  60.8964386  69.6527100  60.3014641  62.0574493  69.5208588
  77.7982635  49.5394135  89.2237930  77.4323196  48.9646454  88.5515137
  78.4578934  49.0033875  89.6640244  37.2731018  11.3890581  17.1802521
  37.1107368  11.2261515  18.1094074  37.0891647  12.3212996  17.0648174
  19.8941879  27.9699841  17.2489262  18.9468861  27.8452930  17.1914463
  20.1978054  27.9197979  16.3425426  71.9811249  38.1014595  58.7520370
  71.6999893  38.1583824  59.6652489  71.2270660  38.4100113  58.2496185
  73.0418701   8.5850801  29.1659527  72.9230423   8.0760460  28.3640823
  72.2259674   8.4617472  29.6510525  61.8504448  36.7167091   7.3403339
  61.2779274  37.1480446   6.7059779  62.0457802  35.8661537   6.9471054
  57.1889267  18.5816822  69.8003693  57.2640724  17.6497135  69.5953827
  56.8463478  18.6035252  70.6938934  43.4850731  16.1412945  72.4571381
  42.6257477  15.7944822  72.2173157  43.5427399  16.9782124  71.9961853
  58.7663269  35.1692467  60.6779289  57.9393196  34.7171249  60.8448868
  58.7685890  35.9003372  61.2957726  68.1385117  21.6551743  58.6935310
  68.0599365  20.9072113  59.2856560  67.4469376  21.5212765  58.0454369
  11.4655600  26.7015514  81.4788971  11.3432941  26.1453075  82.2482300
  11.2289762  26.1423111  80.7389603  76.6701584   0.5242430  75.3066559
  76.5573654  -0.2559998  74.7637634  77.5092545   0.8908179  75.0277786
   9.9423094  48.0907211  46.8894958   9.6212893  48.7988815  46.3312035
   9.2109575  47.8979721  47.4761848   8.8926935  64.1350021  25.2688427
   9.1116152  63.2856369  24.8855915   9.0758581  64.0308228  26.2025604
  45.3504448  26.0473080   7.4212513  45.8390999  25.2268887   7.4872918
  45.2571106  26.1954079   6.4801950  53.5631180  10.9422569  36.9883194
  53.6202469  11.1576681  37.9192162  52.7471085  10.4486589  36.9063377
  77.3562164  47.6091690  10.0760908  76.6610565  47.0028534   9.8204250
  77.2788696  47.6746101  11.0279140   9.0103025  50.7240334  59.4790535
   9.4517040  49.8887787  59.6331520   9.7034807  51.3793983  59.5580025
  45.5314980  68.3111420  81.7408676  45.8469582  68.7225266  82.5455246
  45.2602081  69.0437393  81.1877594  77.9151306  31.0534763   9.2764549
  78.3494110  30.2658195   9.6039190  78.5838089  31.4958191   8.7535381
  64.1877899  48.2437859   6.3885984  63.4718056  47.8624763   6.8967433
  63.9844208  48.0174561   5.4810472  70.5262909  39.7543602  47.9362297
  70.3147278  40.4894524  48.5116539  71.2115021  40.0914574  47.3590965
  39.2042389  48.0406532  66.7344818  39.2643394  47.9872856  67.6883011
  39.6031914  48.8829041  66.5161133  14.9663839  40.4069023   1.2063777
  15.5486708  41.1235809   1.4584538  14.6014071  40.6796303   0.3645693
  54.9252586  26.1809711  84.3079910  55.5116959  26.8397694  84.6798935
  54.0615158  26.4070568  84.6530533  70.7860794  48.5071869  64.0751190
  71.0734253  49.2185287  63.5027008  70.0726013  48.0867958  63.5950584
  79.3131409  53.2730865  13.5124817  79.5138626  52.3640862  13.7353325
  79.7868958  53.7897148  14.1643114  18.6242943  27.8369808   6.3573050
  19.3360100  28.0175400   5.7432270  18.5060806  28.6579742   6.8350353
   5.2947912   6.3676615  68.2806854   6.0138044   6.3885298  68.9122009
   5.7266321   6.3342800  67.4270859  25.2640152  54.9458237  15.6101761
  24.3166466  54.9214706  15.7448263  25.3847237  55.5314827  14.8627367
  66.0944519  45.5473938  46.8427734  65.1863708  45.7987938  47.0113678
  66.5836182  45.9056664  47.5834389  81.2519531  11.4705629  62.6572990
  82.1865768  11.3037004  62.7792511  81.1158142  11.3918858  61.7131004
  67.5311203  61.0074234  39.0487823  68.2024536  60.9721603  38.3673859
  66.7315216  61.2552605  38.5846214   1.5337373  66.7895966  71.7938919
   2.2418766  66.5819397  71.1842651   0.9632752  66.0213623  71.7690048
  76.2792892  38.3092499  48.2397575  76.7627716  38.0524330  47.4545670
  75.3881836  37.9955406  48.0856438  22.2751541  68.0928040  73.2027969
  21.8512592  67.9941788  74.0553360  21.5522652  68.2277908  72.5900650
  48.7817345  56.4857712  56.9595451  48.9653282  56.5362244  57.8976173
  48.2434921  55.7001801  56.8627434  84.3549957   0.8733919  21.5564327
  83.5709305   1.2131312  21.1251049  85.0177231   0.8516232  20.8661022
   4.0677238   5.1418114  44.8338356   3.5654979   4.8912582  45.6092224
   3.5372772   5.8185520  44.4132652  20.8703709  48.2563057  42.9350090
  19.9791069  47.9075050  42.9201698  21.4237061  47.5094109  42.7065201
  69.5072327   4.2981586  64.8692322  68.9500885   3.6025991  65.2185440
  70.1679840   4.4390345  65.5473099  56.8752632  48.5283089  32.0288200
  57.4868584  48.0735893  32.6079674  57.4351006  49.0149117  31.4238148
  79.0114517  65.0133820  75.2419281  78.8165665  65.9481583  75.3085938
  78.3115692  64.5869370  75.7364349  16.3890076  31.8155937  24.8396416
  17.0794811  32.2766609  25.3159771  15.8308029  32.5118942  24.4935093
  58.9648514  65.1214218   3.7375538  59.4514427  64.8342667   2.9648941
  59.5930748  65.0505066   4.4562583  24.0203686  29.9775620  47.3641129
  23.6352692  30.5889091  46.7362709  24.9503384  29.9565601  47.1384048
  42.3960419   0.3435636  59.3300438  42.5792618   0.9214935  60.0707588
  42.2597656  -0.5172409  59.7258682  47.6069717   2.1712506  19.8808918
  46.8167000   2.6990974  19.7665176  47.4379845   1.6546400  20.6687927
  82.6297760  32.8439064  22.3871994  82.5586777  32.4786911  21.5052738
  83.2386169  32.2602005  22.8397865  28.4681683   8.5396719  71.5012207
  27.9771423   7.7633138  71.2321625  29.3846474   8.2648144  71.4738464
  59.2755699  37.6216469  10.1161604  58.3647842  37.4575424   9.8716822
  59.5548248  36.8172913  10.5534897  14.9959316  20.8026714  83.2033081
  15.1018991  20.6813526  84.1468582  14.0504808  20.7576809  83.0607300
  18.7173214  70.5841141  74.6852646  18.8004036  69.6417465  74.5394211
  19.0700264  70.9816971  73.8891754  32.4340134  58.5217400  31.2944756
  32.1808281  58.9883575  30.4979858  32.8286591  59.1935806  31.8504601
   0.7011840  29.9692402  35.7856750   0.6378676  30.8948345  36.0212593
   0.5693868  29.5024948  36.6109085  13.6061230  30.7935600  19.3897076
  12.7966728  30.4867020  19.7981930  13.5734644  30.4423122  18.4998817
  75.7212982  30.9377556  33.8912926  75.4432068  31.4090347  33.1059303
  75.4290161  30.0378189  33.7466698  72.8238373  42.2641335  87.1076889
  71.9229202  41.9590607  87.0004425  72.8304901  42.6956177  87.9620972
   9.0865126  51.3445129  49.3088951   8.8076019  51.6985435  48.4644394
   9.9497662  51.7305870  49.4571228  78.0232239   1.3400360  29.2408504
  78.8429489   1.6473790  29.6279068  77.3400497   1.7244846  29.7901268
  57.0570183  14.9135456  85.0844040  56.6239014  15.2313633  85.8766403
  57.9831696  14.8642006  85.3211441  77.6760178  58.7537003  71.9651337
  78.1090393  58.0074997  71.5505142  77.1900787  59.1733971  71.2552414
  17.2549553  18.5022202  20.4015656  17.8102188  18.4580307  21.1800003
  17.8233490  18.8650265  19.7222042  36.4457550  36.3661270  17.1712112
  35.5415154  36.6595993  17.2828274  36.3730659  35.4282150  16.9943962
  25.4252911  68.0320663  57.8332329  25.6875362  67.3122787  57.2593307
  26.2498665  68.3818130  58.1708527  11.3961716  24.3889885  14.6666069
  10.4907703  24.3844814  14.3560276  11.3948250  25.0043678  15.3997765
  34.8580513  57.4376755  43.6843529  35.4364128  57.8721466  43.0574837
  33.9751854  57.6260948  43.3661118  11.4187307   8.6429672  47.3145599
  11.0546989   8.0926094  46.6211472  11.1862755   9.5355825  47.0587578
  21.9077091   7.0746045  34.4575348  21.8195114   6.9565773  35.4033279
  21.9382477   8.0236187  34.3364105  69.1507645  60.4139519  15.7596483
  69.1500778  61.0581932  16.4675941  68.9612732  59.5817413  16.1929512
  24.9653931  51.5507240  55.8405418  24.5110188  50.9172096  56.3959122
  24.2639141  52.0614471  55.4364090  82.6230240  14.5524006  70.9578094
  83.0908203  13.8484945  71.4071579  82.8205414  15.3364334  71.4701691
  19.4898567  51.5488091  55.1860123  20.1005898  50.8179665  55.0905838
  18.7627888  51.1886177  55.6938210  24.4693584  18.8294678   5.9420896
  24.6751938  18.0321293   6.4300613  25.2549381  19.0022392   5.4232006
  67.0251999  30.6765480  88.0796509  67.8195496  30.3914852  88.5312958
  67.0264740  31.6293621  88.1711807  40.2739410  11.7117767  87.9401398
  40.2732468  11.1806545  88.7364655  39.3880234  12.0708981  87.8909912
  17.1314240  46.1436424  84.4951630  16.3893509  46.5182724  84.0205994
  16.8292141  46.0808105  85.4012222  56.6625519   1.8254309   8.4597578
  56.4038467   1.3294786   7.6830106  55.8350525   2.0780890   8.8691969
  25.6033936  70.4299240  53.7205925  24.7072086  70.4224243  53.3843918
  25.6049957  69.7690048  54.4129906   8.6803675  60.9739265  53.6152000
   7.9496722  60.4401932  53.3030357   9.4598846  60.4609261  53.4020958
  26.7852383  61.0593872  56.2990990  26.4115391  60.2926712  55.8646698
  27.5787468  60.7317619  56.7224655  72.6292877  39.7928581  79.8226166
  73.2874451  40.0224686  79.1666107  71.9564209  40.4677658  79.7332535
  70.2520370  46.7192307  31.2692051  69.8566132  45.8563614  31.1454105
  71.0457916  46.5484390  31.7761765  17.9833622  32.5483437  77.3696594
  17.3210430  32.3010406  78.0149536  18.6073265  31.8224983  77.3766327
  37.2822990  61.9469414   6.1152015  38.2045479  61.8796463   5.8679023
  36.8833084  62.4622078   5.4141006  69.0995789   9.2161551  72.5381699
  68.1998825   8.9081650  72.6473541  69.5906754   8.4353285  72.2824936
  16.3452187  24.9396992  16.8871136  17.1192265  24.4385586  17.1440201
  16.0533123  24.5290928  16.0732193  71.7054138  15.2315884  21.9451561
  71.7446289  14.7609205  22.7777233  70.8477173  15.0079994  21.5837879
  44.9509964  45.6786232  75.7356339  45.1003647  46.0593452  74.8702087
  44.0003357  45.6990585  75.8454590  31.1674080  56.5942726  20.5943546
  30.4935989  56.8961754  21.2035065  31.8185501  57.2958641  20.5905323
  23.0716438   4.7986622  52.1770401  23.0221615   5.7522326  52.2440224
  22.5066032   4.5809937  51.4356995  83.3777771  28.9444256  27.7372093
  83.5514679  28.0694847  27.3900146  82.4805679  28.8973255  28.0673981
  71.0139160  49.5125504  84.6067963  70.4036331  49.0336189  84.0460815
  70.6484299  49.4261742  85.4872437  82.4032440  45.9017334  15.5613031
  81.6814728  46.2366142  16.0934048  82.1953659  46.1842270  14.6706762
  70.3311386  12.2594357  37.7051773  69.9196091  12.8828669  38.3036842
  71.1357117  11.9947233  38.1510735   9.2753677  27.0001755  67.7674942
   8.5724449  27.6413136  67.8727341   9.9779015  27.3199081  68.3335800
  21.9844494  41.6120262  16.9763832  22.8910999  41.7066460  17.2683773
  21.6957436  42.5069771  16.7976551  28.3357868   8.8021736  33.5350380
  27.9099541   9.5439711  33.9647293  28.2059937   8.9602613  32.5999489
  64.9711075  65.0268555  35.0102196  64.0271988  64.9412918  35.1442184
  65.1563187  65.9481583  35.1922302  35.5930901  69.3570023  46.3983574
  36.2283440  68.6707230  46.1941528  36.1246834  70.0926590  46.7024155
  39.1259460   8.7969055  19.4708977  38.7864914   8.6833725  20.3586559
  39.3829613   9.7179899  19.4287205  21.0975246  62.6490326  11.0870943
  21.2000504  63.6003494  11.1138802  21.3195343  62.4094467  10.1873484
  26.5922222   7.6244950  11.0827866  26.8448353   8.4822321  11.4244089
  25.9339466   7.3052430  11.7000256  44.5578423  45.4001312  87.1527939
  45.0606461  45.5341644  86.3493881  44.6263466  44.4609222  87.3243408
  47.0136108  53.4605827  82.0749893  46.4647789  52.8859978  82.6087112
  46.7039986  54.3434029  82.2774658  55.6013947  69.1303787  58.2225914
  56.1955719  68.6058502  57.6858749  55.8247871  68.8982162  59.1239395
   1.9371843   6.9460602  58.5044937   2.0482838   6.9826102  59.4545212
   1.6679319   6.0443616  58.3293495  80.1760635  66.1905365  18.7209358
  81.1075287  66.0473022  18.5533371  79.8262939  65.3161469  18.8922195
  74.8353348  32.0216713  83.3126602  75.7110977  31.6744156  83.4820175
  74.8790436  32.3550262  82.4164505  67.0526962  41.4651031   3.7417171
  67.0014114  40.9696274   4.5590954  66.6263428  42.2988739   3.9398940
  35.1677628   0.9323010  32.5043221  34.3483810   0.7764267  32.9739456
  35.3916206   1.8403667  32.7081223  66.8194199  37.6083794  18.9497929
  67.4094772  37.0118752  19.4104939  65.9426270  37.2833748  19.1543331
  28.5419865  55.2143593  44.7572212  29.2655220  54.6626091  44.4600677
  27.8627834  55.0969009  44.0930557  81.9159012  52.7733383  54.9197502
  82.3418198  51.9580193  54.6550179  82.1543579  52.8800964  55.8406067
  19.6242046   2.6919312  55.2573471  20.0571499   2.1168036  54.6264610
  18.8226986   2.2259784  55.4954796  39.4184418   8.1206770  54.0403023
  39.5736313   8.3015795  54.9673500  39.1546936   7.2008352  54.0166473
   1.7070355  19.2660160  35.4223824   2.3996911  18.7789459  34.9760361
   1.3023157  19.7927380  34.7331848  82.4406357  20.8380566  39.9019356
  82.4034195  21.1943665  40.7895699  83.1611786  20.2084160  39.9266129
  51.7908592  14.6052408  51.8923187  51.1641502  14.9796667  52.5114098
  51.8243599  13.6756601  52.1181259  11.6149063  46.7981262  62.4193306
  11.6400118  47.4997520  63.0699654  12.3914366  46.2704964  62.6059837
  12.3992624  45.8554268  32.2330284  11.7619257  46.1439552  32.8863144
  12.2063274  44.9267921  32.1040039  33.4445877  71.1029358  88.1467667
  33.5396538  70.3764191  87.5308380  32.6201935  70.9263840  88.6000061
  80.4628372  60.5956497  82.5960846  79.8847961  60.5340652  83.3565521
  81.1477737  59.9481201  82.7628021  76.3416824  11.5087624  24.9491062
  75.5896378  10.9539995  25.1562099  76.2077713  12.2989416  25.4724770
  36.7015610  63.0677567  84.9827652  37.1680489  62.6830101  84.2407455
  36.4527206  63.9417801  84.6821060  26.5818291  54.1497726  53.4259415
  27.3435459  54.1506996  54.0056114  26.1154671  54.9572792  53.6419716
  34.2265358  16.3470955  87.2497787  34.6949997  16.3450127  86.4150467
  34.9121284  16.4553089  87.9089279  70.5051117  41.4266510  79.9502945
  70.6113358  42.3510971  80.1746826  69.5798035  41.2450523  80.1147766
  74.9222488  38.3394165  41.4310760  75.3517075  37.6443672  40.9323730
  74.1614914  37.9147682  41.8275032  35.6018906  53.3273430  86.9208298
  34.7540245  53.6273003  87.2485199  36.1612167  54.1032219  86.9581909
  11.0922604  54.2286034  38.4360657  11.0952740  53.3856659  38.8895836
  11.1410046  54.8781281  39.1374741  27.8763809  28.2556076  12.7460728
  26.9306240  28.1100979  12.7215252  28.0266552  28.9606819  12.1163731
  57.4955330  50.3578377  52.9645157  56.6319656  50.6854668  53.2157974
  57.3249321  49.4910698  52.5959549  86.0486069  36.9937363  78.7039795
  86.8873520  37.1263275  79.1457443  86.2204895  37.2215080  77.7903061
  46.7988434  23.8712463  85.0028610  46.3995094  24.3354359  85.7385864
  47.0354385  24.5619736  84.3838654  70.0025558  15.0132084  52.1616249
  69.6510849  14.5591965  51.3957481  69.3992310  14.7897024  52.8703384
  57.6614380  36.2658577  72.4281006  56.9064636  36.7098579  72.8142471
  58.2829132  36.9693146  72.2406158  81.6953049  18.3670502  74.1215668
  81.5802689  17.7755527  74.8652954  81.6948471  19.2422180  74.5092697
  17.4590702  46.3535728  22.8815613  16.6694241  45.9007759  22.5854778
  18.0471020  45.6518097  23.1608086  14.5173903  54.5511322  49.9582100
  13.9852610  55.0119286  49.3095665  14.1817455  54.8537712  50.8020020
  71.4956665  21.7187309  64.6596756  72.0020523  20.9630089  64.9574814
  70.5845490  21.4773293  64.8265076   1.2458332   2.2627513  11.5174513
   1.4339918   2.2869709  10.5792398   2.1067102   2.2886188  11.9351273
  83.5197220  69.4446640  61.8324928  84.3983994  69.8243484  61.8330231
  83.1078644  69.7928619  62.6232910  40.3218384  10.2969599   0.9893208
  39.9735451   9.7593536   1.7005908  41.1842461  10.5740185   1.2987080
  27.7805634  51.4314461  84.3032303  28.0221500  51.6943283  85.1913452
  26.8640308  51.1644745  84.3734207  -0.2869734  70.7215347  55.1715508
   0.0832129  70.1527023  54.4965515   0.3431588  71.4373856  55.2535210
  50.3295631  57.2917824  23.3872051  49.9549866  57.5050545  24.2418633
  49.6245995  56.8408813  22.9225044  22.7125416  22.7746773  83.5633011
  22.4775448  21.8485374  83.5060883  23.6624603  22.7739124  83.6811371
  44.3609886   2.9710784  57.9316483  44.2833557   2.4690301  58.7429161
  45.2925110   3.1821358  57.8688049   4.4245782  55.4494438  75.7339172
   3.5736845  55.3235054  76.1538620   4.7165828  54.5647163  75.5143280
  36.9463882   1.7166334  39.3267937  37.1349754   2.6419952  39.4829063
  37.0245628   1.6129400  38.3784409   7.7004018  43.8536148  77.8516235
   7.0773163  44.5758057  77.9318619   7.2240076  43.0891609  78.1754837
  79.9953461  16.0838146  25.7285385  80.8328552  15.9769831  26.1795273
  79.3891754  15.5235252  26.2131634  32.6171989  20.0053234  18.7790699
  32.2865562  20.6630287  18.1672459  31.8367405  19.5310173  19.0656891
  86.3839874  17.0020752   0.9701347  86.2586823  17.9508858   0.9871764
  86.7984238  16.8001137   1.8089950  28.1633816  66.5699005   9.2794933
  28.9085579  65.9797592   9.3920841  28.4217377  67.1475983   8.5613346
  48.7303314  44.3178368  15.7294035  49.2615967  43.9162674  16.4169579
  49.2620811  45.0473480  15.4111538  79.5754242  33.8702965  30.4961548
  79.5362320  32.9464645  30.2487106  78.7015839  34.2080994  30.2998848
   3.5895703  60.3008614  42.3430481   3.7481973  59.3840866  42.1181221
   2.7423756  60.2950516  42.7885361  62.4548912  52.6141052  28.0722351
  62.4261894  53.1388779  28.8722477  62.6247025  53.2483444  27.3757210
  29.1750851   1.8173805  24.9495678  29.7476749   1.0852860  24.7206383
  29.0431690   2.2852204  24.1249733   9.0747938  15.8213816  17.7903347
   9.7944698  16.3521442  17.4488850   9.4889364  15.2355089  18.4239540
  36.8957787  58.4845963  20.0529270  37.7967529  58.7639122  20.2156086
  36.6185455  58.9994431  19.2950974  33.4937706  56.3489799  53.3031960
  33.1403847  55.6370773  53.8366241  32.7404671  56.9124336  53.1263275
  66.2566376   2.3162031   5.8454113  66.2298203   2.2375467   6.7989969
  66.3490448   3.2553401   5.6850553  10.1560240  17.6315918  57.8667717
  11.0913353  17.6143188  58.0695648   9.9148893  16.7103386  57.7699356
   2.3597186  53.5979538   2.1075680   2.2223930  54.2469711   2.7976038
   1.8617418  52.8329659   2.3957365  21.6002159   5.6944861  27.6231461
  22.2264385   5.2634997  27.0414867  20.7480793   5.5369411  27.2166080
  22.2218304  19.5847683  16.1614704  22.1978168  19.9465599  17.0473385
  23.1016254  19.7876968  15.8436451  15.7673635   8.1279364  63.1524467
  16.5380573   7.6191869  62.9005775  15.4312725   7.6839828  63.9310226
  33.1910019   9.2267933  81.4570618  33.2169914   8.5409117  80.7898865
  34.1070557   9.4752274  81.5809784  63.7005424  24.5009518  85.9512100
  64.2641754  23.7272911  85.9521103  64.2962418  25.2310715  85.7829742
  77.7478561  48.2457123  44.3101654  77.9571762  48.7978363  45.0635452
  78.5216751  48.3020515  43.7495728  85.8597946  45.3848572  61.9609718
  85.4026794  45.5688057  61.1403351  86.5673141  44.7898064  61.7128525
   7.7485213  63.2257271  54.7183380   6.8994431  63.1549644  54.2821121
   8.2553797  62.4890442  54.3768349  72.7057724  39.1636734  63.2074280
  72.1096725  38.9178963  62.4999733  72.9115067  38.3376350  63.6451111
  22.9332981  29.8358459  79.8892899  23.7296791  29.3344040  79.7144547
  22.9917126  30.0621872  80.8175049  76.5303802  58.9619789  14.0162020
  76.4003296  59.4213181  14.8458567  75.7806778  59.2195930  13.4797230
  29.4611778  67.8911209  26.6356277  29.8209476  67.0471649  26.9086418
  30.1015720  68.2341385  26.0123577  26.4317150   9.9032297  12.0248260
  25.5957222   9.7101049  12.4491491  26.6290131  10.8035841  12.2830267
   4.0616822  67.8056107   0.3148302   3.9690962  68.5503693  -0.2793003
   3.8571925  68.1620178   1.1793454   1.6093975   2.0368817  38.9112244
   1.4705341   2.0659230  39.8578529   1.1775248   2.8249209  38.5815086
  14.3976421  11.8837881   8.3074627  14.5502834  10.9408865   8.3696661
  13.5184193  11.9601479   7.9368305  63.6683159  51.8044510   7.6027384
  64.6054001  51.9726334   7.7018380  63.5907784  51.3754349   6.7505860
  52.0085678  64.2695999  86.4071732  52.9595108  64.3745422  86.3767624
  51.7265854  64.8460236  87.1174316  80.4878387  61.6514854  15.9750175
  81.2152405  62.1108284  16.3946857  80.8431625  61.3553429  15.1369972
  59.6659164  19.2981186   6.7772765  59.3487854  20.1932392   6.8973475
  60.6106682  19.3576832   6.9191489  49.3024902  18.8897858  -0.1037907
  48.9405670  18.7544212   0.7719494  49.6114426  18.0243282  -0.3716738
  68.5949173  30.7222481  60.1118927  68.5975037  29.7670803  60.1741714
  67.9243011  31.0011063  60.7353897   0.5038441  37.9901047  45.6610680
   1.4206789  38.2644348  45.6808205   0.3672791  37.5503731  46.5002441
  76.4590302  30.1027718  80.9166183  75.5766525  29.8449707  81.1834183
  76.3508606  30.4433002  80.0286026  70.7745056  56.7260551  64.3037796
  71.3377304  56.9254646  63.5559502  71.2478561  56.0481491  64.7860794
  23.9911270  15.3802061   5.0543604  23.2595329  14.7742290   5.1718116
  24.4817772  15.0227356   4.3142872  43.4066238  54.0339012  69.2273712
  43.5032120  54.5288277  70.0409698  44.1621017  53.4462852  69.2133560
  80.4773865  56.3337135  25.0100536  80.9821625  55.6552124  25.4584656
  80.3966751  57.0372047  25.6541138  31.3361015  54.5369339  53.7605438
  31.4875851  54.2119522  54.6480522  30.6167412  55.1614914  53.8537025
  23.9248428  26.1931210  87.7323914  23.1830807  26.7704525  87.9132462
  23.6085415  25.6042671  87.0472336  58.5987740   9.7076283  64.0998154
  58.2227821  10.5742397  64.2542419  58.4552345   9.5469952  63.1671753
  76.5039978   5.2197881  57.5567513  77.3467026   4.7751064  57.4654274
  76.1187057   5.1850023  56.6812096  10.3269558  46.1174774  18.5538120
   9.6701345  45.6019478  18.0857887  11.1559935  45.6782913  18.3639584
  51.2160454   2.0878687  78.8212357  51.8928719   1.7600234  78.2290726
  51.6399574   2.8016436  79.2977371  47.1583099  32.0211945  27.2442188
  47.9710197  31.6043167  26.9579430  46.8324394  31.4552631  27.9440479
  13.1146441  44.0847702   2.4306364  13.0323734  43.3041611   2.9784613
  14.0420828  44.1159592   2.1958687  71.5890579  38.8033829  54.0741234
  71.6203079  37.8704185  53.8624001  71.4268188  39.2341385  53.2348595
  29.3475780   1.0942850  80.8156662  29.5799084   0.9298946  81.7295761
  29.6621132   1.9819844  80.6445236  82.7533798  10.8530407  26.5759945
  83.3203812  10.6794100  25.8246021  82.9582520  10.1542044  27.1971931
   4.7175508  48.3956375  41.2281075   3.7634587  48.4286995  41.2977333
   5.0266547  48.4824333  42.1298599  21.8885937  69.8154297  69.9733047
  21.9193401  70.7581711  70.1361771  22.7916222  69.5794830  69.7609329
  75.1650848  56.5128670  34.0175896  75.7744370  56.1626129  33.3677902
  74.9106598  55.7531319  34.5413284  83.0463715  16.8775730  72.3681717
  82.5390930  17.3586063  73.0220108  83.9591751  17.0550976  72.5951309
   2.3982372  32.5423660  36.3460426   3.2632523  32.1837044  36.1476898
   2.0392201  32.7873459  35.4932060  32.4213715  55.7354355  61.1439323
  33.1029320  55.6300316  60.4801559  31.6070213  55.7923813  60.6441078
  41.6799316  30.5454712  15.2840891  41.4393196  30.0246944  16.0503330
  42.3716354  31.1279335  15.5979633  30.2499237   3.6398861  47.3286438
  30.2471771   4.5744843  47.5354042  31.0582790   3.5064592  46.8336792
  34.6088715  55.6915054  24.1674652  34.0043526  55.1747780  24.7001801
  34.3132820  55.5532875  23.2676010  72.9835587  59.9506836  88.5650635
  72.6602325  60.2338524  89.4203491  73.9145813  60.1727600  88.5754547
  63.5609093  69.4059372  18.7214317  64.2547455  69.4359665  18.0627079
  63.4713287  68.4766617  18.9327507  50.8595543  49.3892975  27.9157352
  50.7789955  49.9864311  28.6594925  49.9565392  49.1729355  27.6833916
  76.0159149  24.4033813   1.5689952  76.4480896  23.5766830   1.3544444
  76.6149216  25.0772610   1.2475761  75.7373123  19.7421627  49.7658920
  76.0534439  18.8879662  50.0602379  75.6292801  19.6445713  48.8198280
  65.6015244  15.7222586  80.2931061  65.9396820  15.0373745  80.8700027
  64.6542282  15.5849705  80.2879944  28.2572556  10.6734648  59.4868393
  28.0628338  10.5405159  60.4146118  28.7460613  11.4960108  59.4600334
   7.4561281   3.1377623  77.9583130   8.2383728   2.5929084  78.0446777
   7.5833092   3.8419144  78.5941010  45.8870316  54.2952423  49.0732193
  45.3314362  53.8903084  48.4072075  46.1628036  55.1246872  48.6830940
  58.2842178  12.2571144  71.9376831  57.6377983  12.8570833  71.5656433
  58.4224052  12.5767641  72.8292847  11.9526758  60.0681038  14.2854481
  11.3290920  60.7534637  14.5255604  12.2216349  60.2905655  13.3941555
  79.8858414  21.1553535  77.8289108  79.6893311  20.3396759  78.2896576
  79.2775116  21.7935104  78.2016296  57.8348770  38.9108658  77.1092529
  58.0774422  38.1483765  76.5839005  56.9352379  39.1060486  76.8469925
  60.7558060  19.5211506  24.0883522  60.1774559  18.7938423  23.8586502
  61.5929413  19.2994747  23.6805573  77.0623550  34.9090538  46.8463821
  77.8293762  34.3611565  46.6799011  76.3893509  34.2956772  47.1414604
  81.4730606  43.5062599  22.5263958  81.5195694  43.4156342  23.4781609
  82.3030319  43.1486931  22.2109165  33.2578926   8.6692257  48.7845802
  33.0065117   9.5881796  48.8771248  33.9760323   8.6799173  48.1518173
  82.1812668  25.6775703  35.7652817  82.6324844  24.9214287  35.3899307
  82.4726410  25.7021923  36.6767273  71.7500153   5.1938968  27.8534584
  72.4911728   4.6076522  28.0058823  71.3726578   5.3337049  28.7219563
  19.3694057  26.5628948   2.2881937  18.4849663  26.3825436   2.6067431
  19.3234119  26.3966408   1.3466649  63.4803352  17.8574085   8.3598700
  64.2186356  17.2825794   8.1580763  62.8635406  17.7161751   7.6416435
  29.6608982  66.4095230  50.4947968  29.7022495  66.7172241  49.5893440
  30.2115269  67.0227966  50.9815559  31.4918423   6.3459044  14.5306311
  31.6781521   5.8827758  13.7139111  32.2548218   6.9076314  14.6668587
  32.9969978  17.1101646  84.0829391  32.3270226  17.4742565  84.6615524
  32.5356483  16.4465466  83.5700989  39.9855804   2.1166286  66.4625015
  40.5481224   1.8288949  65.7434845  39.9073792   1.3480953  67.0277252
  30.5493736  16.6539822  85.5575485  29.6945763  16.3071671  85.8130341
  30.9211998  16.9971428  86.3700867  20.7503090   9.0808229  22.1807575
  19.8348236   8.8451862  22.3310719  20.9838409   9.6258116  22.9322109
  66.4454269  33.3908691  13.7969904  65.7245102  33.6256485  13.2126989
  66.0167847  33.0328217  14.5743599  82.6378860  41.7596817   7.4149632
  82.9067993  40.9917984   7.9192185  82.7225723  42.4902267   8.0276318
  32.8783112   5.1907067  59.4734840  32.2382660   5.7706337  59.0608597
  32.4164124   4.3586359  59.5761375  55.8114281   2.0798581  26.8274517
  56.1445847   1.6544635  27.6175632  56.0412369   1.4802778  26.1175766
  49.6094208  47.7037544  58.2769699  49.7312927  46.8238945  57.9202843
  49.6922798  48.2829170  57.5193825  83.2854309  43.3646545   9.8162365
  82.8507919  42.6965408  10.3462801  82.6080017  44.0217781   9.6565046
  15.9021873  36.5728760  17.0390949  15.1615314  35.9989357  17.2346840
  16.3926048  36.6191406  17.8598156  21.4598923  11.5471859  66.2787857
  22.3116932  11.7022715  65.8705978  20.8590889  12.1225824  65.8052979
  40.9356422  50.3697586  66.2957153  41.8848228  50.4918480  66.2762833
  40.6325912  50.7142982  65.4556656  50.1798248  47.9915466  12.9032698
  50.8086777  47.9603882  12.1822929  49.4893227  48.5776978  12.5936518
  72.1861115  50.8917885  63.5209427  72.2330170  51.1240768  64.4483414
  73.0111542  50.4393501  63.3453369  77.9207230  15.4909801  52.9854546
  78.1147766  14.6086826  53.3018837  78.0268173  16.0501690  53.7550545
  22.7116051  60.5949860  33.8488960  22.8432751  61.1799355  34.5950394
  23.0805683  61.0698967  33.1042099  37.5070686   1.6330285  30.3653984
  36.8205833   1.8486143  30.9966602  37.0366478   1.2724507  29.6137867
  66.7312698  58.2569580  60.0701370  65.8247223  58.0284195  59.8647766
  67.2500153  57.7927551  59.4131393  11.0802784  19.0960217  79.0702591
  10.6661568  19.8140926  79.5489120  10.3510780  18.5424690  78.7908401
  57.2322655  24.0523777  48.6479759  56.9860840  24.9704266  48.7611732
  56.3988914  23.5904274  48.5567360  47.6203537  17.1776581  85.1937256
  48.1226501  17.6304131  85.8711777  48.1719551  17.2274761  84.4130325
  73.8283844  41.7300034  33.6911240  73.7780991  42.1093979  32.8137627
  74.6869583  41.3078499  33.7206612  31.6081257   5.4694514  43.9360619
  31.8235435   4.7562461  44.5370331  31.8433037   6.2647133  44.4140625
  53.4010849  48.6264648  79.9628143  53.4274597  49.2602272  80.6796646
  54.3069077  48.5713730  79.6583786  65.8839645  67.6812744  69.3509293
  65.7451782  67.6075058  70.2951355  65.0388947  67.9701538  69.0064850
  73.8815765   6.2443719  79.9515305  73.3115540   6.1023369  80.7072678
  74.2219772   5.3747511  79.7414780   4.2543406  12.2021799  16.9270325
   3.9914227  12.9101105  17.5151997   3.7542002  12.3581610  16.1259327
  68.2383041  63.5461998  29.1728153  68.6635971  62.7373886  28.8878899
  68.9182434  64.2152176  29.0932293  77.6729050  24.8543034  33.2981834
  77.7178421  24.9806786  32.3504257  77.9057770  23.9350605  33.4285507
  40.0401421   5.6209216  16.3197193  40.1056213   5.2968698  15.4214230
  39.3684731   5.0717573  16.7240810  66.8742142  42.6754875  19.7745152
  67.2613068  42.7195129  18.9001846  66.4147491  41.8359299  19.7910366
  48.3371811  44.4831123  23.5521812  49.2368698  44.7355309  23.3446236
  47.8217201  44.8034554  22.8119717  54.2567902   5.8426499  20.2764950
  54.3978004   5.6252527  21.1979542  55.0501289   6.3110528  20.0167961
  52.3382149  26.0408344   9.9377766  52.5454292  26.0431690   9.0032778
  51.6154137  26.6623573  10.0243883  66.4097290  44.7073898  44.3165817
  66.2437668  45.4686241  43.7605133  66.0967636  44.9702644  45.1821365
  83.9720840  15.6111441  54.7312813  84.3864670  15.6629486  55.5925827
  84.3725967  14.8460455  54.3184319  53.4934921  26.2416859  81.5438232
  53.6846046  26.1367950  82.4758682  53.1370544  27.1270199  81.4705734
  85.7915344  22.9636364  21.8368912  86.1572037  22.6170330  22.6507607
  86.2004700  23.8233719  21.7376003  75.7011337  11.5951567   7.8608179
  75.4955139  11.3523254   8.7635851  74.8481827  11.7432003   7.4524188
  26.4897976  62.5929947  34.6744690  27.4366856  62.7310829  34.6507339
  26.1539059  63.1101685  33.9423904  81.1431961  25.0461788  46.6430817
  80.9071503  24.2724876  47.1548576  81.0471878  25.7762909  47.2545967
  64.8707428  54.4270859  51.3568153  64.7096329  54.8279953  50.5026817
  65.2749557  53.5836716  51.1531067  32.9371910   9.5056715  77.8665314
  32.8931580  10.2693501  78.4419327  33.2042656   8.7880688  78.4409409
  38.5902672  13.2826910   8.8460093  38.3835220  12.5912161   8.2172394
  38.6244431  14.0819530   8.3204203   3.6213486  70.1892166  27.2811127
   4.4793844  69.8693314  27.0023937   3.6676564  70.1971130  28.2371597
   4.8904457  60.2094383  60.9840469   4.9774790  60.7568245  60.2036438
   4.9046307  59.3124428  60.6502342  50.2022095  69.4888535   2.5854466
  50.2715034  70.2886047   3.1068182  49.7333145  68.8745804   3.1502876
  60.8393593  29.6971493  63.0067978  60.6821556  28.8762932  63.4733925
  60.0675316  29.8087597  62.4517632  79.1241989  41.4120331   8.0800257
  78.7468491  40.8610725   7.3942580  78.5872421  41.2346497   8.8523216
  24.9090786  69.6772461  73.5223618  24.1118965  69.2474594  73.8322296
  24.8588409  70.5629883  73.8817749  62.7797470  49.3686256  60.2035599
  62.9221611  48.5290527  59.7664452  63.2410583  49.2854347  61.0381279
  69.4995804  38.3478546  41.9112740  68.6134796  38.6235428  41.6766434
  69.8454819  39.0720253  42.4329643  78.2186127   1.4950895  72.6329193
  78.5675125   2.3019905  72.2542191  78.8915100   1.2101910  73.2512131
   6.9406519  27.8953495  30.5697594   6.8595257  28.1031284  31.5006065
   6.8009090  28.7311974  30.1247158  58.6185989  51.6942368   2.5575223
  57.9843674  52.2061844   3.0594087  59.0345001  52.3312073   1.9765534
  55.7938232  44.3356094   1.4829484  55.8441925  44.9004898   0.7118415
  54.8635445  44.1260262   1.5659642  11.9953098   4.0067587  67.7957764
  12.1651983   3.9788089  68.7373581  11.7673445   4.9197483  67.6205215
  11.6696796  62.1455879  -0.0212488  11.6647596  62.2127686   0.9335781
  12.5864067  61.9855537  -0.2453725  68.0899048  60.7277565  76.9278030
  68.8367844  60.9945374  76.3918610  67.4289017  60.4473267  76.2948227
  64.7978287   8.7641535  63.2232666  65.4753113   8.8325577  62.5505371
  63.9775429   8.9138117  62.7531891  67.4083328  13.4186316  59.3058548
  67.1050415  12.5559120  59.5886307  67.4068069  13.3715477  58.3498154
  76.5798492  19.4857121  76.4589005  75.9047318  19.1606483  75.8632660
  76.3238373  19.1491814  77.3176422  13.9090281  56.8901100  55.5853043
  14.8290339  57.0576630  55.3809814  13.7684937  55.9790649  55.3274765
  47.6876144  54.0238647  56.6905861  47.7157097  53.3353310  56.0262299
  47.4764442  53.5641556  57.5031815  10.4579239  60.6025124  19.7285023
   9.9405890  59.8474503  20.0086422   9.8356409  61.3297958  19.7212029
  12.0850182  20.6754093  84.7085114  11.7618189  21.5679398  84.5853729
  12.8324690  20.7706547  85.2988358  55.4342842  11.7466440  33.3710976
  54.5244217  11.8602381  33.0963669  55.9099541  12.4429121  32.9181290
  17.5467949  57.7694359  63.6486702  17.6731033  57.2477341  62.8561363
  18.4333782  57.9427719  63.9651413  39.6162491  44.0745697  61.3039589
  40.4002342  44.4173393  61.7330360  39.6556740  43.1297684  61.4523735
  62.0969391  66.9453278  18.9873791  61.9653244  66.2369156  19.6175022
  61.2119560  67.2130508  18.7396774  12.9909906  59.7773018  42.0750008
  13.3775892  59.7930260  41.1994858  12.2673817  60.4021759  42.0285606
  26.2345848   4.6729431  14.8646650  26.5906467   5.5011578  15.1863976
  25.9417114   4.8678546  13.9744596  29.5184460   9.1620178  18.1725121
  29.9794636   8.3485088  18.3771973  28.6285133   8.8847427  17.9548588
  35.0182953   4.7967029  65.8801422  34.2052345   5.0353985  65.4349594
  35.5984726   5.5443387  65.7363815  63.2194443  22.7296600  23.8910923
  62.5157967  23.2084999  24.3290672  62.8010178  22.3365402  23.1251907
  26.7950783  69.8537598  43.6686859  27.2201538  69.5047379  44.4520950
  25.8674946  69.6502304  43.7886734   7.8434734  43.5741920  36.7379990
   8.4970217  44.2539139  36.9025879   8.3232498  42.7517776  36.8363876
  62.9409943  64.3078995  22.9413586  62.2339668  64.8743668  23.2503281
  63.1936302  64.6794968  22.0961800  61.7180328  55.9694901  61.8740921
  62.1709938  56.3883629  62.6059418  61.7627678  55.0333939  62.0689087
  61.3359451  23.4362965  29.3938770  60.8323746  24.2436333  29.4980755
  60.9107819  22.9809284  28.6671658  15.1329689  42.9380455  84.7084198
  14.5882711  43.5703545  85.1771622  15.1278381  43.2435265  83.8012848
  60.1592903  24.9065399  85.6303101  60.5909271  25.5661316  85.0873032
  60.5467415  24.0765724  85.3523407  43.7358932  13.7170563  17.1225567
  42.9451447  13.1924477  17.2480068  43.4557152  14.6166840  17.2910824
  82.5899582   9.0982800  72.7207489  83.0054779   8.9886551  71.8654404
  83.3123398   9.0452547  73.3465271   4.4675016  39.9235306   7.1612124
   4.2880535  40.8053322   7.4874854   5.2352657  39.6368027   7.6557398
  43.6866722  70.6634445  85.9747543  43.7869492  71.6031265  85.8224792
  42.9335403  70.4131241  85.4396286  83.7309952  58.2954521  61.8036728
  84.5738831  58.7330704  61.9231148  83.2857437  58.3996391  62.6445808
  80.3983078  63.1633568  63.4253616  81.2455521  62.8970413  63.7824059
  80.6009903  63.9056015  62.8559494  13.0724535  24.3935394  59.8082314
  13.7585850  23.8243065  59.4597626  13.4446173  25.2741318  59.7604599
  79.7503281  65.3980179  23.2409515  80.6450424  65.6352158  22.9971218
  79.1996002  66.0197220  22.7651215  52.0993614  37.2205467  19.0998554
  52.2029343  36.9346352  18.1922436  51.1590347  37.1542282  19.2660389
  56.9502449   3.2096128  70.6566620  57.2376862   2.6285393  69.9524155
  56.0307770   3.3883066  70.4594803  18.9569302  60.1206093  61.8198128
  18.8306026  59.1856766  61.6580353  19.9071808  60.2344437  61.8370514
  36.1485863  61.9642105  48.0503845  36.8834953  62.3485413  48.5283318
  35.5107117  62.6744537  47.9803963  81.0279541   4.5467172   9.6025505
  81.6424179   3.8285577   9.7539320  81.3114395   5.2352824  10.2040043
  44.0172653  53.6671028  74.0732727  44.9051285  53.9794655  73.8990250
  44.0139275  53.4644966  75.0087814  82.1903992  11.5991468  14.3707161
  82.7274857  12.3889074  14.4343214  82.5238266  11.1443996  13.5972395
  71.4522629  24.8472195  36.9822998  72.3504028  25.1729259  36.9232063
  71.0677490  25.3356800  37.7101669  24.4698467   7.7479153  72.1066055
  24.0566769   8.0818129  71.3103409  25.1830750   8.3617783  72.2818527
  51.4962158  55.6025620   0.8303701  51.6324615  54.8093758   1.3485625
  50.7254639  55.4103088   0.2963191  81.9782410  62.6883926  25.3661652
  81.5515671  62.0087509  25.8879604  82.1535034  63.3938370  25.9889526
  18.6427078  38.6565514  70.5732880  19.2370586  37.9071770  70.6109161
  18.8227291  39.1455765  71.3762054  58.7593269   7.5399194  75.2805099
  58.7575455   8.4592524  75.5470734  58.1285439   7.1197958  75.8651886
  83.6158676  59.7937584  78.5577621  83.7568436  60.6358833  78.1251144
  83.3892517  59.1942101  77.8468323   8.6380367  59.1366348  23.8936882
   7.9716496  58.9141884  24.5438251   9.2171202  58.3747292  23.8739223
  76.7508087  44.3183708   9.7027636  76.0563202  44.2002869  10.3508177
  76.5246201  45.1336784   9.2551632   1.8333125  57.6324005  83.0092773
   2.0483258  58.3273392  82.3871307   1.7477100  58.0817451  83.8501053
  76.9837875  29.2715263  25.1668663  77.8753510  29.1469479  25.4921913
  77.0791550  29.8792953  24.4335480  23.9987049  47.9968872  15.4135714
  23.1408119  47.6595955  15.6714172  24.5748787  47.2330589  15.4422817
  48.0655098   8.5095778  68.7028275  47.7084618   9.2099228  68.1566925
  47.6003418   7.7229795  68.4180298  13.9382391  65.2384567  57.9077339
  14.2719316  65.8038406  58.6043167  13.1247864  64.8780746  58.2607956
  73.8949585  34.5617561  19.9628487  73.1087723  35.1034088  20.0318222
  74.6180420  35.1671524  20.1267757  53.1378708  65.1817780  77.3721390
  52.9055786  64.6852722  78.1568375  53.9417152  64.7688217  77.0566406
  38.8996811  64.3786774  28.1765099  39.3415985  64.5588684  27.3467674
  38.4274292  63.5602570  28.0235672   2.6953707  41.2756424  46.0096054
   2.3624790  42.1728134  45.9871483   2.8303514  41.0471687  45.0899239
  86.0817032   2.8211646  55.4455757  86.4752808   2.0468233  55.8477249
  86.7662201   3.4887056  55.4909134  49.2371559  27.1930237  73.9560394
  49.4906502  27.9795704  74.4390640  49.8293953  27.1723061  73.2043381
  67.0687180  40.4497337  16.5219727  66.7773590  41.3607254  16.5598221
  66.5474091  40.0036125  17.1893883  60.5060196  55.1203957  41.1703033
  60.5315361  54.3171158  40.6503754  59.5769691  55.2554359  41.3570175
   3.8549058  69.1666031  79.9812469   2.9595163  69.0706787  80.3057632
   3.7693229  69.7133713  79.2002563  61.1307068   2.0954335  29.0312824
  60.8882637   2.8700724  28.5239487  61.2042046   1.3967131  28.3811893
  83.5583878   6.6543555  76.1001663  84.2330551   6.1004014  76.4928436
  82.7382584   6.1921892  76.2734146  53.8209343  32.2856407  30.6198139
  54.2957115  33.1167870  30.6233940  54.3507919  31.7047825  31.1657848
   6.2056684  44.9503555  70.9071655   5.2766418  45.0421448  70.6957016
   6.3582287  44.0053978  70.9109039  80.3834915   9.0137224  19.5979977
  81.0826950   8.4216051  19.3209877  80.5536118   9.8254089  19.1200275
   4.3138728  37.8575554  76.2049026   4.6506324  38.1160736  75.3470001
   5.0955071  37.6450500  76.7149277   6.1642871  28.8343239  73.7122574
   6.7225199  29.5947838  73.5500565   6.6221256  28.3421040  74.3936768
  71.8779068  15.1234016  70.5996857  71.2337723  14.6639147  70.0609970
  71.6510010  14.8862724  71.4988632  72.1537628  36.6855125   2.6608477
  72.3036499  35.9234047   2.1014223  72.9274979  37.2338638   2.5309529
  18.5436363  47.1279984  41.3957138  17.7922459  47.0100250  41.9768562
  18.8565788  46.2395592  41.2254791  78.8805084  67.5737076  50.3233643
  79.3863373  67.5618286  51.1359100  78.0258560  67.2188568  50.5680656
  10.4097071  30.4817467  11.0037966  10.3329344  30.2730274  10.0727892
  11.3526497  30.5253315  11.1625185  17.6490707  23.8163395  21.7217293
  18.0901527  23.5034237  22.5115147  17.4717503  24.7405643  21.8966579
  77.9994202  14.9478674  18.0043297  77.4096832  14.8979712  18.7566319
  77.4678879  14.6563158  17.2635822  35.5499954  66.6496429  62.1544266
  36.0157890  66.3231430  61.3845749  35.8317833  66.0751877  62.8663445
  69.7273254  58.8196526  80.8442078  70.0312195  58.1046181  81.4033203
  69.0918655  59.2912827  81.3827057  80.2502594  22.3345623  85.5860901
  80.0382767  22.4795551  86.5081940  79.7273636  22.9834728  85.1152191
  64.9911957  35.8233643  25.8608780  65.7395401  35.8725662  25.2660809
  65.3783112  35.6506119  26.7190895  76.5530930  60.0047951   2.6737285
  77.1478500  60.4912834   3.2445405  77.0111694  59.1836166   2.4946640
  61.0584679  63.5494156  18.7937794  62.0049591  63.4175224  18.7390289
  60.8205070  63.2201920  19.6605072  80.5319824  17.5091038  13.6308527
  80.4537735  16.6376839  13.2425985  79.9961090  17.4673996  14.4228954
  30.7223530  10.8190641  27.8153801  31.2037048  10.6760216  28.6302853
  29.9438744  10.2681446  27.8971767   4.8070526  37.2193909  63.2246361
   4.9878082  37.9746094  63.7842827   5.4260540  36.5506096  63.5175476
  55.2645226  16.7463055  75.3280792  55.6286240  15.9224014  75.0042801
  55.0268135  16.5623608  76.2368622  41.4760971  33.9028244  13.3904409
  40.8663406  33.7237625  14.1062365  42.2949562  34.1383209  13.8266153
  20.9820728  37.6790619  16.3984146  20.7146568  36.7777634  16.2184658
  21.8955402  37.6071281  16.6752453  69.7962723  46.9533920  18.5679073
  69.3445587  47.7948112  18.5030766  70.6629715  47.1725693  18.9099922
  43.7945442  65.9349670  55.9363785  42.9237022  65.6456375  56.2086830
  43.7632256  65.9213181  54.9797897  85.9130554  57.5367661  86.2124100
  86.6924057  57.1051178  86.5624390  86.1717300  57.8251343  85.3371048
  55.5554848   7.7540460   0.8446511  56.5096779   7.8132610   0.8920310
  55.3352737   6.9968047   1.3871672  83.9715042  63.6860580  38.0214272
  83.0220718  63.6011467  38.1086121  84.3266830  63.0270348  38.6178894
  84.6048279  18.3246441  75.2719879  84.4861221  17.4326820  75.5983963
  83.7190475  18.6853714  75.2332382  24.7711220  -0.0172915  34.3302727
  25.4189224   0.4357527  33.7905159  25.0117931   0.2042696  35.2298393
  21.7664089  18.4586735  11.1451101  21.2011814  17.6866627  11.1177139
  21.3250866  19.0573711  11.7476263  84.9168320  57.4253998  22.5367813
  84.3988113  57.5276146  23.3351784  84.8757172  58.2827835  22.1131840
  13.0005226  55.0807457  52.2215996  13.0543289  54.6062584  53.0511780
  12.0674200  55.2625008  52.1097221  74.5048904  63.8768845  86.3834839
  75.1220398  63.3189049  86.8567886  74.9673538  64.1185913  85.5810318
   9.3170433  33.9242096  87.1243210  10.2485514  34.1420021  87.1573715
   8.9540901  34.5229645  86.4716415  48.9703560  52.6175804  16.1558914
  49.5310860  52.1637802  15.5266991  49.5769157  52.9673080  16.8085842
  23.1017723   6.5640616  87.7799759  23.6649170   7.2543530  87.4298401
  23.2662907   6.5759859  88.7228546   0.7979602  19.5714569   6.1097522
   1.0494254  20.4806175   5.9471951   1.5627117  19.1838684   6.5353842
  74.3474579  45.3534698  56.3574028  74.3925858  44.5633812  55.8189316
  74.7848740  46.0251808  55.8342323  66.9780273  32.2919388  65.6673737
  67.0697403  33.2218628  65.8748856  67.7973785  31.8978157  65.9666443
  -0.0834934   1.0457838  81.0743790   0.4264807   0.2554002  81.2517242
   0.5218756   1.6216458  80.6073151  14.8844385  65.1742477  38.5870247
  15.1704779  64.6842194  39.3579216  15.2144632  64.6675034  37.8450546
  39.6197548  32.5356331  15.2094069  40.3715286  31.9504681  15.1163931
  39.1578903  32.2111702  15.9824781   2.2045155  13.2526617  52.0979347
   1.8852181  12.3520956  52.0408325   1.4744223  13.7860146  51.7837181
  79.8184204  10.7408304  11.0316381  79.5238266  10.1009178  11.6796799
  79.0384903  10.9297619  10.5098743  85.1086197  19.7357101  68.2333069
  84.4383240  19.0550079  68.2931595  85.6488342  19.4749699  67.4873734
  76.6561661  55.1655884  29.2390633  77.0025177  55.0545273  28.3536606
  76.2420654  56.0285034  29.2277679  49.4889870  36.1914330  11.4517384
  48.7271233  36.0089149  12.0017204  49.2377892  36.9621429  10.9426823
  33.5499344   5.7769146   9.4039249  34.2689285   6.4014115   9.5002956
  33.4466896   5.6746731   8.4578180  57.0422592  61.6741714  71.4397202
  56.8686447  61.7505341  70.5014954  56.9178276  60.7446632  71.6314468
  29.0612202  36.7660294  75.0938568  29.6958561  36.3601875  74.5032959
  29.5653324  36.9748421  75.8803024  49.4594231   5.6674275  15.5493345
  49.2472191   4.7632322  15.3177462  49.3774567   5.6960626  16.5025883
  84.4450531  65.9403152  10.0069628  84.3103027  66.2393799   9.1077213
  83.5623016  65.8665848  10.3696661   6.2508798  18.5554314  82.1867294
   7.0164452  19.0917339  82.3929367   6.5241942  18.0257797  81.4377289
  66.9952011  49.0006104  86.3900604  66.1619492  49.4408226  86.2223358
  67.0843430  49.0116463  87.3430328  33.6517944  16.0798512  24.4552841
  33.9203148  16.9475498  24.1532478  32.8368492  15.9041109  23.9849491
  83.4318466  42.9058952  20.4969120  84.3452682  43.1096611  20.6978455
  83.4780502  42.3143463  19.7458038  10.4250822  36.7856979  57.1644630
   9.4934225  36.8408890  56.9518700  10.5222788  37.3168640  57.9548073
  46.1543388  39.1492500  78.1150818  46.2799530  38.6122398  77.3327332
  45.3170242  38.8563499  78.4747314  86.3681412  45.8595009  86.2252960
  85.4351959  46.0267982  86.3589020  86.7984543  46.3069115  86.9539185
  82.8165665  18.1929512  69.8638992  81.9438934  18.3850632  70.2070847
  83.2413177  17.6889935  70.5580521  29.3503685  28.9040070  47.0310974
  29.1037407  28.0370903  47.3533783  30.2964706  28.8492565  46.8964653
  71.0061111  27.7486019  26.9767876  70.5603409  28.2104301  27.6868820
  71.9368362  27.9051781  27.1363735  11.6649609  33.4774017  46.4357071
  12.1967487  33.8505516  47.1386948  10.9595003  33.0153198  46.8885193
  41.2533989   0.7295121  76.4126587  41.0492439   1.5771855  76.8076324
  42.2061691   0.6602812  76.4732666  52.4139099  67.1134949  75.3974533
  51.6591644  67.6637115  75.6068573  52.3523636  66.3796692  76.0089645
  65.8342361  23.5209045  71.5014420  66.0218735  23.0309029  72.3020172
  64.8791656  23.5187550  71.4376068  49.8118515  13.9871292  77.7876740
  49.7519951  13.1120844  77.4043427  50.3268356  14.4902382  77.1568832
  65.9599457  54.5783958  44.1685371  65.8703613  55.0243530  43.3263206
  65.3648682  55.0482140  44.7528152  11.9783449  34.6508217  27.9040127
  12.7564726  34.1278839  28.0971088  11.9261293  35.2778816  28.6253281
  69.0803680   8.2291689  78.0708923  69.8287811   7.7830825  78.4672623
  68.9307632   7.7618375  77.2490311  54.8121948  65.3686676  17.1569881
  54.1308250  64.9847031  16.6051407  54.3445282  65.6843872  17.9301891
  21.2268581   0.8322623  12.5461636  20.5792236   1.1393683  13.1805820
  20.7134056   0.3665375  11.8860884  82.9676132   7.2786727  68.4360962
  82.8567810   7.8795795  67.6993103  82.4703140   6.4997206  68.1867752
   4.7394185  65.1661758   0.3873630   5.3483357  65.0301971   1.1132853
   4.5508513  66.1044388   0.4054646  24.6198444  51.0649567   7.6591759
  24.6897373  51.9907646   7.8920469  24.4480286  51.0671501   6.7175250
  25.1881561   5.9190216  27.6882610  25.4494209   5.0665526  28.0364971
  24.2985077   5.7822642  27.3625965  36.2498016   8.8408432  76.8840332
  35.3678360   8.6599379  76.5590057  36.2554207   9.7836323  77.0494080
  75.9303741  22.9504089  46.8854828  75.8636017  23.4239635  47.7146492
  76.8674622  22.9396973  46.6905746  77.5265656  21.0593853  59.9121056
  78.3618469  21.0790348  59.4450378  77.7698135  21.0574760  60.8378830
   3.6203737  49.4764862  26.5144882   3.3526442  49.5087738  25.5960617
   3.0081179  48.8632164  26.9210300  68.2722473  69.0864868  23.7725544
  68.9365234  68.4333267  23.5526619  67.9819641  69.4271240  22.9264259
  72.6876907  49.1771317  23.1262474  72.0415649  49.8829803  23.1032524
  73.4249802  49.5105820  22.6149254  70.8635864   1.8857464  18.8638229
  71.6626434   2.0470641  19.3655396  70.1690521   2.2917871  19.3824596
  32.2477455  32.3984718  77.5809631  31.6028099  31.7872677  77.9369431
  33.0933495  32.0315552  77.8389511   0.2901953  43.5089264  67.7736664
   0.7466587  42.6719246  67.8591156   0.9785883  44.1354713  67.5505371
  85.9014740  22.8064117   7.8701429  86.8373413  23.0073395   7.8669429
  85.7907639  22.1697884   7.1639652  16.9461250  70.8007202  10.1500673
  16.0551300  71.1368484  10.2469053  17.3282127  71.3325958   9.4519634
  39.4130859  21.8931026  36.4858284  39.0586128  21.3981724  35.7471657
  38.6957283  21.9254913  37.1187477  57.1376457  11.6794252  23.6495285
  56.9788246  12.6028481  23.4538307  57.4671364  11.3138342  22.8285484
  53.4469490  60.2935486  56.8968849  53.9293785  59.8739815  56.1845245
  52.6272392  60.5806122  56.4945107  10.7493296   9.9772873   9.2455568
  11.2859869  10.5350332   8.6823959   9.8642445  10.0592518   8.8903980
  49.0448837  50.2019386  82.5246429  48.6115837  50.8093529  81.9250336
  49.6207886  49.6819801  81.9641037  24.7351875  60.7220383  11.3435621
  25.6486855  60.4791985  11.4944954  24.4569855  61.1294289  12.1638489
  32.4888077  10.4628601  30.4920063  31.6679802  10.1966915  30.9062843
  32.9425354   9.6401358  30.3090038  35.6678925  54.0747681  17.0186634
  35.9739990  54.3420715  17.8853111  34.9118233  53.5145378  17.1939678
  34.9733696  52.1082878  34.1535606  35.1133461  51.8644295  33.2385902
  34.0510406  51.9102516  34.3158073  49.6128807  70.8215637  16.1651058
  49.2642021  70.7867737  15.2743502  50.5524864  70.9627380  16.0491695
  75.6609726  13.1679811  28.5183258  75.5345764  13.5875921  29.3693161
  74.9820938  12.4942570  28.4802933   4.3790307  32.1984100   3.8612504
   3.7978776  31.6316242   3.3540559   4.3159304  33.0516663   3.4320617
  12.3243217   1.9009403   0.5218415  12.2460098   2.4552996  -0.2545508
  11.6666594   2.2427666   1.1275373  14.5078688  52.1141014  53.7078629
  15.3065548  52.0132904  53.1900139  14.5233183  51.3766899  54.3179588
  36.8716011  67.5343323  12.1656218  36.6998482  68.2644730  12.7602930
  37.7571907  67.2473068  12.3882895  73.3780518  12.9434233  45.7990036
  73.4427795  13.4586811  46.6030884  72.5141220  13.1570444  45.4465408
   6.6126018  54.3955269  15.7837276   6.9998460  54.7774467  16.5713882
   6.7529063  55.0547447  15.1040401  10.3039770  62.1290054  69.8280487
   9.8660746  62.0373230  70.6742630  10.6234617  61.2493477  69.6271439
  80.1594086  14.4031305   1.9390625  79.8694229  15.2875776   1.7156920
  79.9163589  14.2964935   2.8587294  35.1655235  52.2471962  31.4142036
  34.4916115  51.7180405  30.9875088  35.7152901  52.5597115  30.6956482
  64.3206100  35.5257759  70.8765717  64.8286972  35.2892151  71.6525345
  63.9229965  36.3678131  71.0981827  47.0152779  55.5591774  66.4155502
  46.1858788  55.4922943  65.9424210  47.4115334  54.6922531  66.3280334
  10.6990490  28.3536129  23.8834114   9.7453651  28.3890743  23.9573135
  10.9663086  29.2681160  23.7912750  80.2745590  55.2291908  81.7218552
  80.2377777  54.6960297  80.9277420  80.8045120  54.7151909  82.3311081
  15.9632139  38.3505020  20.6169357  16.0873165  39.0106888  19.9350376
  16.6551189  38.5305557  21.2533932  59.6179085  53.4280739  16.2460861
  59.3496323  53.6659508  15.3585758  59.3618050  54.1780968  16.7828445
  16.3395538  49.4004898  78.4687576  16.9616013  49.7798920  77.8479996
  16.8336239  48.7104301  78.9114151  62.0321541  32.1240883  21.2158337
  61.9785385  32.5735664  20.3724308  62.8984146  32.3513680  21.5537186
  43.8874779  54.9487991  83.7758484  44.1223488  55.2214737  82.8888779
  43.4749451  54.0926094  83.6618729  29.8156414  17.9073181  14.7463951
  29.4836788  18.4210167  14.0100899  30.7664223  17.9174595  14.6361780
  29.5268402  53.2304382  83.3678665  29.8959370  53.5617638  84.1865387
  28.8991814  52.5615616  83.6415100  83.0497284  31.5854549  77.7587128
  83.5842438  31.3449879  78.5154877  82.8238983  30.7499790  77.3498001
  61.2394943  40.6426506  70.4599991  60.4722862  40.7281876  69.8940430
  61.1396065  39.7838249  70.8706970  50.8702850  63.4435654  10.5015583
  50.4488869  63.1068230   9.7108250  51.7903824  63.5450630  10.2579317
   8.8254395  59.7337952  41.4300690   9.5823040  60.1875381  41.8008919
   9.1522617  58.8606644  41.2131310  55.2243309  25.7919369  32.7279778
  55.2868500  26.5075016  33.3606644  56.0161057  25.2740116  32.8731499
  61.9373360  19.2053070  49.9028702  62.5947990  19.4239979  49.2424545
  61.2170677  19.8127365  49.7341118  72.7255249  64.2530441  75.6718445
  72.7822037  64.4702301  74.7413330  73.6278076  64.3095093  75.9863663
  72.9248352  50.8745155  56.9720497  72.1451187  50.7890358  57.5206490
  72.5931168  51.1919060  56.1321335  14.3592129  52.4471474   8.5131845
  14.8691063  52.8363724   7.8027296  13.7077122  53.1130409   8.7331085
  18.5924034  58.2793961  47.2939644  18.3012943  57.5417480  47.8300247
  17.7833004  58.7164421  47.0283089  32.7123566   5.4155979  87.7198334
  32.8018799   4.4985266  87.4606018  32.1619949   5.8040795  87.0398178
   6.2627301  23.8330269  52.0308990   6.4530878  22.9540939  52.3587265
   5.3151069  23.9253883  52.1294441  61.6971970  12.1482010  27.2420712
  61.9922485  12.5111189  26.4069271  61.1703644  12.8450699  27.6332912
  52.3106155  54.2344093  15.7097826  51.5107117  54.0206261  16.1900749
  53.0134850  54.1094742  16.3474331  51.2949562  25.0996265  79.8394318
  51.2623558  25.2740097  78.8988190  52.1468124  25.4372101  80.1162262
  53.8183022  51.9659042  55.8440208  54.2806702  52.1663589  55.0302238
  53.7453308  51.0115013  55.8491859  24.5775070  10.3354597   1.5704244
  25.0013676  10.9401455   0.9613837  25.0059128   9.4946156   1.4101691
  46.4484367  58.1921844   0.7144884  46.3902626  59.0539322   0.3018847
  47.2466583  58.2322388   1.2412453  55.3253670  20.0546513  80.0375748
  56.1336937  19.8800945  79.5555344  54.6633301  19.5231361  79.5955048
  41.2339630  10.4893303  77.9183426  41.9571152  10.0556421  77.4653549
  41.6216850  10.8167248  78.7299576  32.5408630   0.8754233  56.5420723
  31.7791615   1.2500800  56.9844208  33.1565094   1.6044574  56.4664345
  61.5455933  16.7272758  33.1102676  61.3447266  17.4763908  32.5492744
  62.2917061  17.0151882  33.6362457   8.1112576  52.6200676   6.8735180
   7.5873275  51.9286385   6.4689713   8.3218422  53.2137527   6.1528082
  56.5817108  50.0518532   9.8292856  56.1823196  50.8487511   9.4804697
  56.8724747  49.5707664   9.0545321  46.3172531  39.8719597   2.4938192
  47.2737045  39.9036674   2.4731357  46.1141243  39.0181808   2.8759615
  54.1535072   9.3006258  88.2941971  54.6011620   8.7194672  88.9090881
  54.3002548  10.1791248  88.6448212  58.9719772  60.5915794  45.0226059
  59.2902069  59.7896385  45.4371605  59.0835762  60.4368591  44.0846100
   6.2048106  62.1273232   4.9978285   5.8925061  61.9763069   4.1057005
   5.6622262  61.5560837   5.5414472   4.3361373  32.3130035  16.3865395
   3.9924777  32.4356499  17.2714615   3.7183118  31.7115364  15.9708948
  12.2656507  69.5836334  88.9115295  13.1829185  69.8206635  88.7749023
  12.1619196  68.7516556  88.4496994  70.9467697  10.2775669  52.7025719
  70.5070572   9.4273748  52.6948013  71.0711975  10.4743824  53.6310196
  62.1145821  22.9717083  54.0294228  62.3321877  23.6741657  53.4166985
  61.8807564  22.2304649  53.4707527  22.7466297   8.6823368   2.7273672
  23.3405762   9.3723803   2.4318988  22.8239174   8.6920748   3.6813922
  10.7399101  67.1654663  51.7064705  10.1803293  67.0525436  52.4748116
  10.3033333  66.6656570  51.0166740  52.3475571  12.7038584  75.6564484
  52.8053131  11.9347563  75.3170776  53.0031853  13.1589937  76.1848755
  63.7134705  67.1002579  88.4222260  63.1630974  66.4055328  88.0607300
  64.3351517  66.6430740  88.9885559  16.0592194   3.2476826  62.9142494
  16.0682163   3.6142375  63.7984352  16.3060398   2.3304684  63.0326958
  65.5278854   4.1521397  63.1030960  65.2394714   3.3725600  63.5777626
  66.4749908   4.0434365  63.0170364  12.3133049  19.1500053  63.0959854
  12.4228210  18.2464676  63.3923950  11.9992170  19.0702019  62.1953125
   3.6309972  33.6786919  59.8076324   3.4622245  34.2938805  59.0939865
   4.3302531  34.0885582  60.3168297  83.9588623  47.5237198  37.0708656
  84.7267914  47.4475899  37.6371918  84.3128510  47.4938431  36.1820259
   4.0894985  38.5120659  55.5039711   4.2738056  39.2581863  54.9333878
   3.7896378  37.8243103  54.9095726  55.5293922  45.7956123  85.3255844
  54.7608795  45.7155914  84.7605972  55.8713760  44.9040909  85.3924561
   7.2398686  64.9570694  84.9606323   7.6429563  64.1019058  85.1104279
   6.6051536  65.0504227  85.6710205  44.0814476  66.0243988  82.3910217
  44.4047775  66.8330841  81.9938812  43.5933304  65.5919571  81.6903305
  64.4712372  60.8641129  77.6633911  65.1934509  60.9474220  77.0407333
  63.7423668  61.3248482  77.2478180  16.6778469  19.3871822  11.6916466
  17.0440483  19.7813587  10.8999681  15.8473673  19.8441849  11.8246269
  56.2488518  66.1376724  35.3108711  56.0614128  65.5499573  34.5789604
  57.1636124  66.3906937  35.1866722  44.0181160  55.7287560   3.3152347
  43.2820282  55.1492424   3.1188519  43.6978912  56.2924728   4.0194445
  30.3528461  54.8715096  11.8600788  29.8774891  54.8409767  12.6903410
  30.3455315  53.9671593  11.5465031  77.7846069   1.3533063  63.1792793
  78.3890762   1.9186200  62.6983757  78.2501297   0.5211204  63.2628860
  10.4743299  44.5822754  25.9000072  10.4574289  44.0862656  25.0815201
   9.8086586  45.2600975  25.7830906  86.4478149   1.6711533  69.2707138
  85.9400101   2.4716859  69.4030685  87.0901642   1.9031174  68.6000366
  27.2509079  38.1652985   6.7279606  28.1835403  38.3375397   6.8574152
  26.8244610  38.5794640   7.4781880  13.6361122  40.8069763  20.8698845
  13.6358728  41.6811256  20.4798870  14.1969585  40.2877579  20.2936058
  79.0166397  48.3385582  84.6979752  79.4655151  47.5340309  84.4381943
  78.1085205  48.2044144  84.4267807  40.6219711  69.5982437  57.3351593
  39.9992180  69.8052216  56.6383324  41.4552498  69.9524689  57.0246773
  42.5019035  24.1769333   2.9900422  42.6098557  24.8730431   3.6381242
  43.2393150  23.5871525   3.1469471  60.3768616  43.4413147  29.5861568
  60.5295753  42.5099335  29.7456493  60.8840866  43.6356697  28.7980061
  47.5179672  69.6370468  73.8063965  48.2632408  69.7235184  73.2119904
  47.8690948  69.8690948  74.6661072  59.8747215  45.0912552  69.0668182
  59.4682999  45.4871635  69.8377304  60.5795135  44.5482445  69.4198608
  76.4832077   8.2383881  80.8094482  76.7639923   8.8061008  80.0917511
  76.3078156   7.3946385  80.3928528  19.5879898   3.4094040  21.3789654
  18.9603748   3.0200505  21.9878445  19.6924057   4.3100052  21.6859627
  45.6113968  47.1039047  10.8768253  45.5048370  47.8582191  11.4563837
  44.8741646  46.5318947  11.0901871  86.4174881  50.9460526  59.2470207
  86.7706680  51.7514229  58.8690376  86.2852707  51.1535187  60.1720657
  16.4035988  48.4861069  29.4323101  16.2983131  48.0819359  28.5710373
  15.8928223  49.2940598  29.3817863  81.1782684  11.0420818  82.2428589
  81.9110031  10.7992125  81.6768646  81.5710144  11.1532688  83.1086655
   1.4780854  10.6292753  52.2705116   1.4985968  10.2780132  53.1606941
   2.1921742  10.1793566  51.8189774  45.8700027  45.3780022  28.1305618
  45.4323692  46.0414848  27.5971756  45.2883873  45.2514648  28.8801899
  84.6817780  16.4434166  49.5307846  83.9036255  16.2440586  50.0513306
  85.1307602  17.1297226  50.0243759  62.1211052  34.0420685   7.0543709
  63.0420723  34.2104149   6.8550982  62.0645905  33.0903511   7.1396556
   6.2158785  12.2309380  86.5124359   5.8228402  11.4495964  86.1235123
   7.0205092  12.3684311  86.0125351   2.4124384  36.9165154  69.2079849
   1.7980111  36.2406960  68.9216690   3.2283521  36.4440117  69.3730850
  48.8870583   2.9663064  87.3576660  48.2058105   2.3867700  87.6986465
  48.4255600   3.5502882  86.7558212   4.9620929  62.6240387  21.9693108
   5.1657805  62.5464478  21.0372581   5.7807136  62.9167671  22.3698139
  37.9024429  69.1961517  70.5387192  38.1572075  68.8397446  69.6876678
  36.9481544  69.1229401  70.5531006  74.5471725  30.8184185  69.0843048
  75.2339020  30.1519623  69.1061172  74.9921112  31.6289825  69.3317947
  74.5191040   3.1011910  85.7762909  75.3526840   3.2648239  86.2174301
  74.1135254   3.9650753  85.7025375  83.7319870  46.2410851  23.3334637
  84.3546448  45.7726326  22.7775154  84.1158905  46.2012253  24.2093983
  53.6056976  30.7226009  18.0750313  54.0722923  30.7455845  17.2395725
  53.7943459  31.5700493  18.4781151  42.4395294  27.7911358  13.7972832
  43.3924561  27.7982922  13.7072411  42.2579536  28.4436665  14.4736452
  48.9611282   2.8908198   3.1257422  48.8086739   3.3552337   3.9487302
  49.3703766   3.5417731   2.5556479   9.5350380  53.2227287  26.4659081
   8.7659369  52.6571579  26.3962994  10.2465382  52.7073059  26.0859909
  35.4726868  28.5600491  25.7125187  34.9859238  28.0808258  26.3830700
  36.2212486  28.9314060  26.1794071  69.4230423   6.3878345  31.8094616
  69.4633179   6.8914604  32.6224632  68.5488739   5.9979072  31.8123169
  66.6137543  39.8825874  40.5487633  66.4071732  40.3275604  39.7268448
  66.3003464  40.4785309  41.2291031  31.0131989  33.5638924  83.6784744
  31.3786564  33.1606636  84.4659195  30.0671482  33.5593567  83.8240738
  25.4949875  42.4266701   7.8990455  26.2101479  42.7357826   8.4551296
  25.5878696  41.4739914   7.8968792  38.2423019  49.6684532  85.8466339
  38.1966553  48.9836159  85.1794434  39.1728401  49.8853416  85.9039612
  51.2935715  38.9484291  62.9872551  50.8715477  38.5394249  62.2317123
  51.8305168  38.2530479  63.3672104  77.9799500   9.3153162  32.2766609
  77.3951645   9.6410646  31.5924454  78.4579926  10.0901947  32.5720711
  53.7867737  58.4925957  23.2745533  54.3827286  59.1032791  22.8408031
  53.9542427  58.6172562  24.2087097  19.2473412  38.0080986  77.5696335
  19.1483765  38.0066490  76.6175690  19.3905773  37.0893784  77.7969437
  60.5218849  16.4553013  73.8788681  59.5998764  16.2058754  73.9414749
  60.6956787  16.4959717  72.9384537  26.3216610  48.5493698  56.8323364
  26.9702129  48.3534737  57.5085297  26.8329601  48.9072151  56.1065598
  14.5007782  58.3165131  13.2285833  15.2619171  58.0942879  12.6923790
  14.5796871  59.2587357  13.3776598  55.4141579  65.4096909   6.5958200
  54.5770493  65.2578659   7.0344925  56.0175285  65.6370239   7.3032746
  15.6401567  43.9156418  71.2169266  15.1642141  44.5077782  70.6346130
  16.4638519  43.7423286  70.7611694   3.3876956  34.7322311  37.9536133
   4.1211219  34.2525558  38.3386192   2.7045121  34.0720024  37.8370171
  49.1334000   5.7245884  10.5037346  48.6169662   4.9263740  10.3924599
  48.8043709   6.3187146   9.8292084  64.1338959  51.1865540  33.3090324
  64.5537415  50.7710915  34.0622635  63.4371262  50.5799599  33.0584564
  61.3312187  16.0013771  71.2899399  62.1949997  15.7112150  70.9968262
  60.7244110  15.3619947  70.9168320  62.7723389  11.3762321   6.6903858
  61.8559227  11.2300320   6.9249797  63.0357590  12.1331053   7.2138228
   7.2294421  37.1005974  16.1455326   6.8263283  36.2746887  15.8779421
   8.0420427  36.8409081  16.5796680  34.8999786  62.4230003  60.8874168
  34.7745132  62.7370682  59.9919548  34.4541855  63.0708504  61.4331245
  31.3579979   8.5973434  33.7420273  31.7236786   8.0700970  33.0317307
  30.4114590   8.4758072  33.6677017  38.9605217  11.8065033  69.8372726
  38.8512383  12.3200798  70.6376038  39.1933556  12.4510450  69.1689987
  29.0476418  54.0429993  60.9519691  29.4265156  53.5469666  60.2262688
  28.3929615  53.4547157  61.3281975  12.0085497  38.9725342  21.8792076
  12.5144711  38.1848183  22.0786552  12.6231842  39.5407867  21.4149361
  28.0921841   5.6520996  50.0245285  28.3049889   6.5392189  50.3142967
  27.4552727   5.3369761  50.6658363  46.8618050  69.0209274  13.3652878
  47.8147430  68.9875412  13.4491091  46.5415115  68.4085617  14.0276003
  11.4576530  37.7506905  19.1184692  12.4062910  37.6254311  19.1435204
  11.1953201  37.7782555  20.0386066  17.6628876  66.7571564   2.8460908
  16.8651237  67.1524811   3.1975472  18.3206654  67.4497986   2.9077466
  73.4894791  31.5843811  20.3530064  74.3901443  31.6420937  20.6719112
  72.9576645  31.5256481  21.1467037  59.3855400  44.1355171   9.7642365
  60.2483978  43.7910767   9.9946051  59.0608368  44.5292969  10.5740118
  45.4863358  49.0095787  12.7654152  45.9310379  48.6796417  13.5461931
  44.7148361  49.4643402  13.1033716   4.0870605   2.2580562  74.8636322
   3.7732844   2.6343861  75.6859131   4.8290901   2.8095098  74.6155930
  59.3487091  15.0785103  57.0034714  58.8037186  15.5721588  56.3906670
  60.1931496  15.5290232  56.9895058  82.2560196  62.5501709   1.0932403
  82.6488953  61.6861153   0.9695810  82.9302216  63.1638069   0.8014629
  47.6904755   6.7823219  54.4010277  48.4155693   6.4929929  53.8471680
  47.5851936   7.7105231  54.1922455  -0.0198154  19.5169525  88.8542862
   0.3935516  20.0854683  89.5040207   0.7050217  19.2074337  88.3111115
  77.0732269  22.9431515  38.2427750  76.3458099  23.5458069  38.0881538
  76.7797470  22.3952694  38.9707336  47.8266106  32.0564575  86.9457016
  48.3175964  31.2776470  87.2076492  47.0139046  32.0077820  87.4490662
  40.0912857  30.9368248  76.8460464  40.0390396  31.0685444  75.8993988
  39.5841179  30.1408348  77.0054626  44.5918961  54.2300720  43.0363884
  44.3624039  53.6199875  43.7373619  44.8425026  53.6686440  42.3027496
  55.3792152  63.9614830  46.3088837  55.0954247  64.3310013  45.4727325
  56.2922668  63.7135582  46.1636162  45.7540932  38.7950974  19.8482342
  44.9691467  38.7875366  20.3959904  45.4287224  38.6410904  18.9613018
  65.3309555   7.3397813   1.1889442  65.9268417   7.5279474   1.9140303
  65.5821533   7.9607482   0.5051801  51.9234047  21.4321671  84.5312500
  51.2332344  22.0458317  84.2796249  51.4828682  20.7925167  85.0907135
  52.9673576  18.4380016   1.2350880  53.2566452  18.7212467   2.1024501
  52.3725929  17.7080956   1.4074949  64.0707474   5.8369999   4.2000666
  64.5906296   5.2484665   3.6527271  63.4189873   5.2688656   4.6107602
  25.7362595   1.6323614  25.7383347  26.0182037   2.3152966  25.1297817
  26.1647053   0.8372788  25.4213028   7.7787271  21.6331787  34.7881279
   8.4836454  21.3456573  35.3683472   6.9759707  21.4380932  35.2716103
  17.3177223   0.3775622  62.8954201  18.2015743   0.5171149  62.5554733
  17.3997154   0.5145095  63.8392181  77.0252914  68.6280365  40.2454491
  76.0824203  68.7731552  40.3239059  77.4159012  69.4792557  40.4431190
  35.8136826  59.2833595  70.4384537  36.1364975  60.0286026  69.9318619
  36.0841103  58.5159111  69.9343414  42.7514153  61.0700951  68.8788300
  42.5139580  60.3631973  68.2787094  41.9130554  61.4203758  69.1799698
  67.2915421  32.7110634  83.5081787  67.5105896  32.8504753  84.4294891
  67.1899719  31.7627373  83.4269791   8.4068727   2.6122022  42.9850349
   8.6173897   1.6803608  42.9251480   7.5808268   2.6405892  43.4678116
  71.1910782  29.8177643  73.4611435  70.7500076  29.9343281  72.6196594
  71.7231903  30.6067600  73.5639725   4.0197124  54.6602402  61.6527748
   3.5917466  55.2768860  61.0587807   4.6323662  54.1784210  61.0971336
  37.0529747   6.2721739  74.3050842  37.0209045   7.1332808  74.7218475
  37.1427536   5.6570101  75.0329132  72.0770416  60.5808907  81.7425995
  71.3883362  61.0134735  81.2378311  72.4181290  61.2654915  82.3181076
  17.9062309  61.6810493  42.0539780  17.7017765  62.5578995  41.7290764
  18.8372459  61.5661354  41.8636169  15.6682034  13.9614964  66.9916763
  16.0767021  14.5791378  67.5982132  16.2148533  13.1774817  67.0438995
  70.8839951  48.9880257  34.5486259  70.9055634  48.6086349  35.4271622
  71.7028198  49.4789429  34.4795685  65.3304596  13.7890472  51.3368225
  64.9693756  13.3955746  52.1311951  64.5944672  14.2613277  50.9475975
  86.2281799  19.3065662   2.9055278  87.1186066  19.1074715   3.1948874
  85.6848755  19.1510868   3.6781104  41.7894058  16.6092129  45.0577469
  42.0965347  16.7390709  45.9549866  42.5635262  16.7602596  44.5153847
  55.1698952  55.4902267  72.7088776  54.9210815  54.6709061  72.2810516
  54.9224243  55.3667030  73.6252441  80.6404266  46.6102753  36.5826073
  80.9417343  46.1601791  37.3718224  80.9928589  46.0897865  35.8607254
  18.2624874  41.2487679  23.9801540  19.1147556  41.4443283  24.3695507
  18.0618916  42.0165253  23.4448566  41.7210960  41.3346291  14.5592365
  41.2432404  40.5123825  14.4506187  41.8636627  41.4059181  15.5030708
  14.7102032  50.6179390  55.8156128  14.8813181  49.7869034  56.2587051
  14.6877432  51.2650604  56.5205688  14.0231819  46.6345482  56.6254463
  14.6350260  45.9598083  56.9197273  13.6719809  47.0083466  57.4336319
  62.2366142  16.9370975  52.8277817  61.4552040  16.9767952  52.2763710
  62.9647293  17.0732479  52.2215271  44.2563820   2.3340368  75.1691513
  43.7334175   3.0768912  75.4706650  44.6251450   2.6237137  74.3346863
  47.9738731  47.3899574  85.0711594  48.7962341  47.8146515  84.8270416
  47.7481308  46.8513260  84.3127747  76.8863525  26.5412292  78.2708282
  76.0596237  26.4537354  77.7963867  77.4410019  27.0634251  77.6912613
  86.5062103  41.3205414  64.9945984  85.8376465  40.9878082  65.5933838
  86.5824509  40.6445465  64.3212128  79.0452194  10.8453884   4.1144695
  78.7243500   9.9703341   3.8964000  78.3802185  11.2049084   4.7016225
  24.1991787  61.2421265  25.5162945  23.2873859  61.5182953  25.6090298
  24.4604607  61.5643005  24.6536427  41.5003815  57.9170036  19.1026592
  42.4364929  57.7525749  19.2161846  41.3665581  57.8952065  18.1551113
  87.0585175  53.9537849  70.7465744  86.5323029  54.5833664  70.2536697
  86.4483337  53.5750923  71.3794174  76.8710175  34.9605904   5.2294502
  76.3360596  34.4248924   4.6437140  77.1282349  35.7135239   4.6973252
  25.9260006   5.1622205   9.8337212  26.0494022   6.1018171   9.6989546
  25.5238228   5.0952563  10.6997480  26.2432365  68.3429260  85.8008652
  26.7191257  68.0370636  85.0287170  25.9735241  67.5413055  86.2490845
  31.5817814  26.8720398  76.0386200  30.7021923  26.9238739  75.6646271
  31.9767475  26.1088772  75.6169357  14.5315781  27.6386204  26.8157425
  14.5297756  26.8116989  26.3336334  13.6323957  27.7349129  27.1294804
  31.3503971  62.3443565  81.2472992  32.1533356  62.8583527  81.3329163
  30.6450348  62.9802933  81.3667984  16.9718819  54.0709763  12.6955299
  17.9149799  53.9310646  12.7805061  16.7581863  53.7394295  11.8233805
  85.0108032   3.3873174  43.1277809  85.2087402   3.2160330  42.2070656
  84.2611923   2.8240974  43.3204079  81.7884521   8.1003914  47.5643463
  82.5880585   8.3473434  48.0289764  81.5875473   7.2208471  47.8841438
  53.2093086   2.8676064  87.1408997  52.5520401   2.7119858  87.8191376
  53.1293182   2.1164608  86.5530090  37.5548706  28.0780392  20.4578972
  38.2991982  27.4806595  20.5310211  37.0900574  27.9844513  21.2894173
  30.9040470  71.1431961  19.5087547  31.3157368  70.9176254  18.6745701
  31.2023754  70.4645767  20.1143188  19.8852348  25.2494450  15.8172045
  19.2766857  25.8580589  16.2361202  20.4887314  24.9955635  16.5154667
  49.4553452  22.7123737  84.8863907  48.5060463  22.8180981  84.8240280
  49.8109665  23.5255299  84.5278625   8.8882504  10.1704340  61.3690033
   9.4296751  10.3225660  60.5944443   8.1037245  10.6982908  61.2202797
  82.0961075  48.4241676  68.8294983  82.5648727  48.1943741  68.0271988
  82.7858658  48.6499023  69.4536057  51.4212570  68.7519226  55.4011116
  51.3172798  69.6652832  55.1343002  51.4865570  68.7871246  56.3554306
  85.7127609  27.8210125  21.0199947  85.8133850  27.3471298  20.1944389
  85.3042526  28.6503391  20.7718582  28.8252773   4.4941268  20.3267612
  29.5755386   4.4975572  19.7323475  28.2123604   3.8718059  19.9352493
  37.5918007  41.7467728  22.2804279  37.6180038  41.4118576  23.1767426
  37.9465561  42.6334152  22.3455772  10.8218899  23.2992287  64.4685440
  10.6348600  23.9912109  65.1029053  10.0100622  23.2053490  63.9701958
  16.1697369  35.5412102  13.2669964  15.4710188  36.1950455  13.2441063
  16.6685925  35.7513084  14.0564480   7.4417424  62.4183273   0.6557014
   8.2102480  61.8477745   0.6458280   7.1489553  62.4415474  -0.2553247
   2.2175775  52.8535919  63.1902809   1.4358940  52.8635063  62.6379204
   2.8201647  53.4626770  62.7635117  12.7345505  65.6849060  55.4512596
  12.1940441  65.2780685  54.7740822  13.2080803  64.9550247  55.8503532
  79.6440201  34.3932915  50.3860664  80.1938629  33.6127968  50.4549026
  79.1733170  34.4288712  51.2187767  81.9043579  42.2896881  61.0835762
  82.5412750  42.2789993  61.7980385  81.1276779  42.7024460  61.4612465
  73.1525726  69.0688171  74.4800491  73.7892380  68.9176788  73.7814407
  73.5182495  68.6153488  75.2395706  37.1425552  40.1774063  77.3293762
  37.7713318  40.0883064  76.6131821  36.2947311  39.9844131  76.9291611
  13.4108477   1.6731833  21.2098160  14.0023928   2.3928578  21.4297600
  12.9882421   1.4486361  22.0387993   1.4816781  14.2096043  16.6397972
   2.3625755  14.3476477  16.9879284   1.2905375  15.0083580  16.1481781
  30.2745838  71.3240051  76.7847366  31.1561127  71.6771545  76.9048233
  30.1739693  70.6858063  77.4909973  64.3383179  36.5075111  81.7255020
  64.1744080  36.3479767  80.7960358  65.2624054  36.7536583  81.7669449
   9.9280176  42.5024605  18.5936546   9.8270235  41.5799904  18.8283558
   9.1991806  42.6794701  17.9989319  15.8644543  52.4924469  72.6327896
  16.5881824  52.4396133  73.2570190  16.0186920  53.3078232  72.1557083
   9.9423046  65.1920929  42.6094589   9.3544331  64.9104004  41.9085426
   9.7402773  64.6082916  43.3406181  14.5900688  21.3809357  14.3540564
  14.3191156  22.2923088  14.4645805  13.9289598  21.0031757  13.7740002
  42.7286339   1.6198276  28.0545635  42.0422592   2.1978321  27.7213478
  42.2754059   1.0351722  28.6620121  79.0441284  19.1684513  11.3601522
  79.5077057  18.5152702  11.8842516  79.7082672  19.5107155  10.7618217
  29.2136345  59.5835609  68.0519714  30.1538620  59.6347885  68.2239532
  28.9852333  58.6729813  68.2388229  65.2752762  61.3133583  60.9734344
  65.9896851  60.7958755  60.6018677  65.6374054  61.6757584  61.7819901
  82.2554321  66.2754211  23.1531906  83.1016769  66.6197891  23.4386997
  82.4645157  65.7162018  22.4049988  24.8438778   6.1990910  17.5754299
  24.1477623   5.7710843  17.0769691  25.4014988   6.6025400  16.9102077
  76.5295944  70.2035980  81.5038452  76.1101990  70.0453949  82.3496094
  77.0888901  69.4389267  81.3670807  18.8488922  68.1566086  25.5238590
  18.9944000  67.6157608  26.3000965  19.0783730  69.0429611  25.8030605
  57.0703163  48.6826706   7.3009152  56.2587357  48.8832893   6.8347392
  56.9912872  47.7571526   7.5319982  39.8630600  57.1151085  76.8092499
  39.1472511  56.7409134  77.3228912  40.1088829  57.9091301  77.2839508
  47.5545387  69.1203995  32.4426041  47.5551834  68.9135895  31.5080147
  46.8194160  68.6208496  32.7979507  72.5932465  27.1986732   5.7413039
  73.3683243  26.6533566   5.6067042  72.6187363  27.8322964   5.0242944
   7.7924318  13.2788315  52.6947899   8.6889582  12.9858389  52.8579674
   7.3545403  12.5137129  52.3218613  77.8116531  31.4355335  65.6663742
  77.6641006  31.6269894  66.5925522  78.2773590  32.2030754  65.3343735
  70.2314606  54.5305786  74.4535217  70.0108032  55.1839027  75.1173859
  69.8686676  54.8829308  73.6408386  18.8316917  12.0182028  10.0340919
  19.4620266  12.2472162  10.7170744  18.8904667  12.7359352   9.4035072
  76.6298447  31.3805809  52.6767578  77.2962570  30.6949806  52.7223816
  75.9448242  31.0120106  52.1189613   0.0354116  12.8860340  87.4519196
   0.4255984  12.5112934  88.2415771  -0.4297349  13.6636438  87.7604599
  64.7833481  36.5848389  12.4767246  64.8812103  36.8726540  11.5690804
  64.2927399  35.7651367  12.4164867  65.7010117  44.9239998  74.9651794
  65.5865326  45.5843658  75.6485901  66.3080215  44.2888489  75.3451309
  72.9722061  23.2391033  61.3168602  72.0281448  23.2641125  61.4729004
  73.2728882  22.4638538  61.7910042  74.4313736  48.6949348  68.0545502
  73.5680466  48.5454330  68.4399719  74.7460632  47.8204651  67.8254166
  80.0514603  10.1182404  15.7435436  80.6376877  10.7740765  15.3661232
  79.2892303  10.1167974  15.1645460  14.5887842  18.8870564   3.7854497
  15.0313892  19.7349091   3.8239012  14.6332731  18.5528030   4.6812887
  30.8233700  37.3114662  77.2253265  30.8456631  36.3630257  77.0980682
  31.6629086  37.6188087  76.8833542  64.8997879  40.8930016  73.0236893
  63.9868736  41.1160927  73.2054825  65.2349701  41.6404572  72.5285187
  45.9698753  52.8487015  28.8953552  46.0088501  52.8783722  27.9394093
  45.6008644  51.9879837  29.0934219   0.6395142  36.1375542  16.4656258
   0.7438338  35.1874237  16.5166492   0.5384573  36.3175583  15.5309496
  30.5941124  34.3142929  88.6317596  31.2010002  33.5941925  88.8031464
  29.7771168  33.8840675  88.3794632  78.4139481  48.8228226  80.1846924
  77.7876968  48.1027794  80.2594528  78.0540466  49.3828316  79.4968796
  79.2187500   2.5823786  77.9275894  78.5279007   3.1283150  77.5522156
  78.7992859   1.7353009  78.0783768  62.3762054  49.1051865  14.5914831
  61.8594666  49.9108963  14.5853930  62.0134621  48.5934601  15.3145237
  32.4282341  51.0047951  79.0726776  32.3821754  50.0489311  79.0935287
  32.2523727  51.2727852  79.9746170  71.6801376   2.2931948  27.8791580
  70.7887573   2.5424190  28.1232204  71.5757828   1.4739501  27.3952370
  43.4361572   8.5825348  26.1291122  44.2680244   8.1776438  25.8835621
  42.7695694   7.9897127  25.7820473  76.7766800  67.9356461  78.1662750
  76.3917923  68.8115692  78.1371460  76.9551086  67.7831650  79.0942535
   5.0402412  36.8242111  37.2874870   4.5665722  36.1148148  37.7217979
   5.4091730  37.3400078  38.0044746  61.9970818  59.9390182   4.2981734
  61.8139992  59.0167885   4.4776344  61.5589600  60.4122353   5.0055251
  78.2126846  23.2479725  64.9276733  77.4608917  22.6691227  65.0540237
  78.9378738  22.7964516  65.3594894   7.1802115  44.5237465  62.6477852
   8.0148153  44.8039169  63.0235176   6.6523738  45.3215904  62.6151657
  21.4812431   8.1423883   7.7232742  20.7400131   7.5686984   7.9174161
  21.1687527   9.0200834   7.9428940  80.0288391  20.5423317  45.8886108
  80.4986572  20.4115715  45.0649605  80.6325150  20.2272606  46.5613213
  31.7574120  67.2612839   7.7190342  31.8222656  67.8587341   6.9739947
  32.6215134  66.8533020   7.7748075  58.0733490  71.2184143  34.7176895
  57.3523026  71.0275345  35.3175926  58.5423050  71.9438782  35.1300087
  13.9627123  38.0868340  26.4114437  13.6954594  37.6191521  27.2026978
  13.1452408  38.2457161  25.9395027  49.7004471  66.3656006  10.2558632
  49.6759949  67.0710831  10.9023399  50.1597672  65.6515274  10.6978531
  20.8030300  10.6639614   0.4083612  21.5496407  10.8432198  -0.1631894
  20.6772804   9.7169657   0.3482049  24.8965435  44.7602234  23.6763134
  24.4780350  45.5545464  24.0081806  24.6144714  44.0714989  24.2782459
  67.6996078   9.0762062  51.6151543  68.0040665   8.3749142  52.1911125
  68.4314270   9.2301178  51.0176697  69.1850967  17.6703320  77.5615540
  68.6200714  18.4100666  77.3384476  68.5836105  16.9336262  77.6697769
   9.0558662  69.8947601  61.4835777   8.8493185  69.2173386  62.1275291
   9.9477205  69.6925125  61.2008667  13.6658316  49.7694969  77.5534439
  13.4757919  50.2005081  76.7201691  14.6006212  49.5679741  77.5111465
  63.2475891  63.6463356  77.3431473  62.4667549  64.0576706  77.7137299
  63.0095558  63.4542847  76.4361267  67.6292648  57.7400513  72.8854294
  67.9615784  56.9119759  72.5388794  68.2894669  58.0157433  73.5213165
  12.8442469  11.0724516  48.8110886  13.0813389  11.9997892  48.8031731
  11.9539843  11.0498438  48.4601555  57.4658966  71.3021545  55.6384125
  58.0380363  72.0100632  55.3421745  57.4997406  71.3507385  56.5937805
  58.9595146  22.5953159  73.5240097  59.8666039  22.4510155  73.2545624
  58.6957855  21.7692757  73.9293900  60.2719345  29.8752327  68.0401840
  60.2036247  30.2620640  68.9130707  61.2117119  29.8565598  67.8593597
   6.6257734  30.5181198  22.7172451   6.8903899  29.7680511  23.2497940
   7.3205132  30.6054974  22.0646095   8.6966419  12.8306694  40.7515106
   8.1934805  12.8245296  39.9372482   8.0364113  12.9058256  41.4404793
  60.4269142  11.8007402  80.5880890  60.6593323  12.7120161  80.7663879
  60.2219925  11.4332085  81.4478302  25.7665195   0.7273197  64.2773590
  25.7243690   1.0189985  65.1880569  24.9584961   0.2309466  64.1471939
  84.5097809  10.6800632  32.0464020  84.7893295  10.6049232  31.1340237
  83.8736038  11.3952608  32.0438576  24.9131489  61.0495682  81.5878372
  25.7763424  61.2190666  81.9651947  24.4562817  60.5376854  82.2552795
   1.7085767  54.4996758  10.8734264   2.0483675  53.6764374  10.5226364
   0.7680163  54.3494797  10.9683952  25.9177628   9.5229368  75.4112854
  26.6794701   8.9466925  75.3482285  26.2552147  10.3910198  75.1903992
  36.9948044  50.2841988  26.3324528  36.6481972  50.0295258  27.1875763
  37.9307632  50.4165230  26.4831314  16.8816433  35.8983269  19.3415165
  16.8160000  36.6248589  19.9612541  16.7313004  35.1162376  19.8725224
  79.7456818  66.1501846  55.3237572  80.4454651  66.2141113  55.9737167
  79.1688004  66.8885117  55.5195084  85.0234146  68.9003143  13.6124859
  85.5974503  69.0331268  14.3668594  84.6766663  69.7712860  13.4190931
  31.5208302  35.4432831  74.5175018  31.6515636  34.7417984  73.8794937
  30.8933392  35.0831451  75.1442261  25.7571201   5.3660436  65.9405518
  26.5908966   5.0579658  65.5853882  25.2760658   5.6874185  65.1779633
  65.0707474   4.5166678  79.0987091  65.5223846   5.3498526  78.9643097
  65.4803467   3.9186387  78.4735489  31.1926174  63.3979454  46.3144264
  31.1131306  62.5314064  46.7131996  32.1062012  63.4494133  46.0334511
  23.8384876  47.5251999  86.2180634  23.6749268  47.9941521  87.0363312
  24.2489128  48.1750107  85.6475143  80.9303055   3.2761066  79.7975235
  80.5261459   3.9325421  80.3649597  80.3781052   3.2626283  79.0157776
  33.7003174  34.7800217   8.6035433  33.2722168  34.1612129   8.0119066
  34.3991585  34.2725105   9.0161963  64.5510941  33.6390381  39.5849419
  64.4148178  34.5665665  39.7782249  64.0061951  33.1787872  40.2232895
   6.3812761   4.9514890  36.1581688   6.0240412   5.8276978  36.0136909
   5.8069930   4.5646758  36.8190804  15.0621328  65.1899948  47.1838875
  14.8864393  64.9574661  48.0956421  14.2668257  65.6361847  46.8929749
   7.8501482  32.2608261   9.6568050   8.1553383  31.5222416   9.1299448
   8.6185656  32.5295563  10.1603451  57.0266228  43.1651535   3.8032410
  56.4025230  43.5465546   3.1857765  57.0738564  43.7994232   4.5185747
  81.1367416  25.9315243  40.4694061  80.9835510  26.7913628  40.0776863
  80.5480652  25.3440990  39.9954681  63.7784996  65.1898117  20.6433678
  64.6819763  65.4898148  20.5435562  63.6568069  64.5567017  19.9358425
   3.1356840   9.2068367  66.5620499   3.7443399   8.6922073  66.0320282
   3.1268027   8.7665243  67.4119186  -0.0736057  33.3461151  53.0197983
   0.0905210  34.2806396  52.8934822   0.2660931  33.1594315  53.8950043
   4.3586502  50.9641876  70.2507858   3.9182539  50.9634132  71.1006622
   3.7238240  51.3581314  69.6524277   7.0200753  58.0401497  33.6330719
   6.2145262  57.9150581  33.1314011   7.0866952  58.9882431  33.7466850
  21.9023857  63.4596939  39.8690491  21.0444489  63.0352745  39.8623619
  21.9699039  63.8496552  40.7406006  45.9068413   0.0071739  63.5734901
  46.0599174   0.7897645  63.0440063  46.6067619  -0.5944173  63.3196564
  71.9568787   2.2582936  46.8630409  71.9159698   1.9774920  45.9488716
  72.6013718   1.6751837  47.2640991  12.0086727   5.7420092  35.3207626
  11.6044855   6.1347079  34.5470352  11.3511305   5.1289287  35.6493988
  82.8472061  65.4348068  48.7158012  83.4106827  65.0798340  49.4033508
  83.2345963  65.1163712  47.9004707  81.8459091  50.8290749  82.5466232
  81.9792709  50.7781754  83.4931259  81.0239258  50.3625717  82.3951416
  71.8461914  63.7018852  86.5312347  72.7951279  63.6879387  86.6559677
  71.6594696  64.5849380  86.2125092  29.5778885  64.5063248  74.2506332
  29.6016998  63.5723114  74.4586639  28.7287216  64.8030319  74.5779190
  14.1811495  18.1249180  18.8860111  14.8117943  18.2293930  19.5984745
  14.0940685  19.0020027  18.5126896  20.5537376  34.6792946  88.1839218
  20.2773170  34.6194572  89.0983810  19.7626839  34.9378052  87.7110138
  35.0205383  11.2585506  40.9295120  34.6667938  10.3730984  40.8454247
  35.8421097  11.2358408  40.4388618  16.1284885  51.4431801   0.6312239
  15.3416643  50.9502220   0.8638824  15.8888874  52.3586502   0.7752342
  43.7729111  24.5869770  18.8470612  43.4081879  24.0068359  19.5153751
  44.6628571  24.2629414  18.7084084  75.0627975  57.1133499  27.9887886
  75.1633072  57.9397774  28.4611759  75.5338516  57.2486343  27.1665707
   6.5191913  41.9604912  54.5110817   6.5924535  41.3921928  55.2778282
   7.3095264  41.7794113  54.0023460  81.1404419  10.2796526   7.4412885
  81.5836563   9.8280792   6.7230449  80.3296814   9.7873154   7.5697198
  36.0168266  21.1302185  83.1066437  35.9922104  20.7678528  83.9922638
  35.5886688  20.4674873  82.5647049  14.1185770  24.8175087   6.2031875
  14.0132446  24.3883781   7.0522952  13.2437363  24.7987843   5.8151979
  79.6136017  47.9091606   1.5736740  80.3551636  47.3041344   1.5575913
  79.9126892  48.6403046   2.1142344  24.7230492  67.7242813  15.4219570
  24.9459114  67.5881805  14.5010662  24.2011356  68.5266647  15.4260149
   6.7997918  69.0402985  68.9872742   7.4860926  69.5613785  68.5705032
   6.8731380  69.2486572  69.9186401  58.8649864  13.0004253  66.9314346
  59.6743431  13.3954601  66.6072006  59.0709076  12.0697079  67.0185776
  77.8051376  71.0108185   5.6435881  77.1100235  70.5725632   5.1526928
  78.6002731  70.5298691   5.4140773  64.2548828   2.6737649  25.4624748
  63.8121605   3.2741284  26.0623035  64.1939163   1.8196099  25.8901825
  63.2415047   7.7255588  30.2417030  62.9659157   7.5792670  31.1466236
  63.4233246   8.6641941  30.1954689  55.2800217  11.6707249  47.5971298
  56.1048088  12.1478825  47.5061378  54.6805229  12.3022995  47.9945564
  49.7318649  28.2780514  27.7534561  49.6302872  29.2182541  27.6053619
  50.1921577  27.9615078  26.9761753  83.4705505  40.6981163  49.0079384
  84.0017471  40.1895638  48.3952103  82.8389359  40.0690613  49.3566360
  79.8990784  44.8587608  21.1218700  79.1151733  45.0550041  21.6349144
  80.4466476  44.3391342  21.7104187  77.8508224  49.7844810  40.1718407
  78.3203659  50.4155312  40.7173080  76.9487305  50.1042747  40.1580963
  54.6638412  55.3275185  54.8426781  54.0506325  55.5421486  54.1397285
  55.4186783  54.9465218  54.3940201   2.6983480  33.7368431  42.5956078
   2.0712914  33.9700546  43.2801819   2.1561048  33.4348259  41.8669167
  39.0280647  65.9433060  58.0648727  39.5121956  66.1066666  58.8742981
  38.7930908  66.8148193  57.7462959  18.5442238  67.7319336  37.6194420
  19.2606373  67.5463638  38.2265244  18.9642334  68.1728973  36.8809433
  72.1981125  54.2272339  50.7847214  71.4159546  54.7056236  50.5097656
  72.8897476  54.8887291  50.8019753  65.6496277  47.0907593  72.0013275
  64.7671356  46.8869553  72.3110275  65.8372726  47.9560051  72.3651581
  40.9092293  69.1439438  27.8899364  40.6879311  68.4679108  28.5304317
  40.7648811  68.7259979  27.0409851  43.4880180  62.2174759  57.2711525
  43.5716705  61.2763748  57.4246330  42.5491066  62.3576317  57.1485481
  15.0621634  62.6274910  53.0392609  15.3382359  63.4360542  52.6077042
  14.9982309  61.9874382  52.3304062  48.3950615  32.3771515   6.5804086
  48.5214767  32.4169159   7.5283904  47.4693680  32.5849113   6.4532962
  86.3262482  64.6306534  63.0124207  85.6266479  65.2344589  62.7630005
  87.1007233  65.1857986  63.1031952  63.1136246  58.9586182  30.9548588
  63.4404449  58.7488594  30.0799751  63.8500175  59.3896332  31.3886547
  23.2399426  44.9194069   5.3266406  23.9258766  45.0966072   4.6829581
  23.6970272  44.9111061   6.1676140   3.4270759  36.4780464  89.3972855
   3.0076869  37.3111572  89.1821823   3.4234893  35.9886589  88.5746613
  50.7093925  62.9932327  51.1807823  50.8408852  63.7157326  51.7947350
  51.0862961  62.2321472  51.6222878  11.4805698  49.1805763  27.7657814
  12.0611353  48.5688858  28.2185612  11.6667461  49.0444260  26.8367844
  67.2249756  51.6529922  62.0551872  67.5311813  52.3251305  61.4463348
  67.0097122  50.9051323  61.4978752  28.9535866  48.0615997  10.4138718
  28.2775764  47.9878273   9.7402267  29.4984741  47.2840309  10.2925529
  40.0778999  63.9715233   7.9377723  39.7431526  63.5450325   8.7266197
  40.8493881  63.4585419   7.6971793  69.7140427  18.6788483  20.5633087
  69.3836746  18.3460922  19.7288265  70.6632843  18.5699444  20.5056648
  77.9426880  68.9337769  85.8722916  77.9616470  68.0538025  85.4961014
  78.4353790  69.4703751  85.2513580   5.9617090  23.7614384  60.8054695
   6.5253177  24.4848576  61.0797768   5.7465453  23.9578857  59.8936882
  42.1623840  25.9821606  21.7856827  42.7209435  25.2727032  22.1033535
  42.2875023  25.9788914  20.8367004  46.7267303  40.6547508  13.8883762
  47.2883911  41.3663177  13.5810671  47.1579132  40.3343735  14.6806335
  80.6522522  18.8246422  34.9748917  80.3865356  17.9054375  34.9486313
  79.8810577  19.2876320  35.3022118  70.7259445  13.9146938  45.4296875
  71.0507507  14.6455240  45.9556351  70.3119659  14.3295984  44.6729126
   4.7448187   8.5028543  45.5071907   5.6928868   8.4164925  45.6068916
   4.4860287   9.1134262  46.1974525  14.3278637   3.7278395  78.2236786
  13.4195986   4.0294037  78.2422638  14.5440016   3.6759627  77.2926407
  45.7187996  70.8833160  68.9408493  46.1978035  71.6277618  69.3049774
  44.8402977  70.9583740  69.3134460  29.7464352  69.4671936  57.8316765
  29.8319778  68.5415268  58.0598106  28.9921265  69.5001602  57.2433243
  62.5001411  57.1447258  66.1487503  63.4016037  56.8723221  66.3201828
  61.9634628  56.5036964  66.6148911  60.9164925  54.9965744  67.1625061
  60.1290855  55.1506386  66.6405029  60.9113541  54.0544014  67.3313828
  46.4778633  21.6794319  87.3510818  47.1278687  22.0177841  86.7352600
  45.8541718  21.2028828  86.8032303  59.8465500  49.6814880   0.6126490
  59.4358253  50.3118782   1.2043821  60.7197952  50.0385780   0.4509192
  76.2496109  36.6050644  17.0376911  76.0937653  36.1410217  17.8602524
  76.7399521  37.3865623  17.2927570  78.0934906  16.8121662  32.7445412
  77.5467300  17.3360863  33.3300247  78.2957153  16.0233727  33.2476692
  43.6020775  62.8976212  50.0759163  43.9985428  62.5755005  50.8854141
  43.5836067  63.8489342  50.1803017  39.7010956  56.8851700  12.1331892
  40.1865578  57.1357040  11.3471928  38.8885040  56.5033722  11.8012848
  73.9507904  52.3759842  84.4720917  74.1925964  51.4565010  84.3611145
  73.3827896  52.5660629  83.7254410  32.6696472   1.6674377  61.7861748
  33.2434654   1.4821311  62.5295639  31.8726234   1.1698726  61.9689674
  38.1066856  55.6455193  75.0728607  38.7882271  56.1266289  75.5421906
  37.3762436  56.2613106  75.0138397  48.2584915   4.6002612  69.3592758
  47.4788017   4.6183777  69.9142380  48.7823524   3.8779275  69.7057343
  36.7034111   6.6042423  69.0179596  37.5677223   6.3428850  69.3355865
  36.8853683   7.1942286  68.2864990   5.9248433   9.8298998   7.5654941
   5.4561400  10.0683012   6.7656727   5.4615111   9.0594177   7.8939948
  22.7258415  34.5621796  13.8740854  22.4133739  34.2588768  14.7264948
  23.3730869  35.2359886  14.0821466  15.1873903  38.4036140  68.1515884
  15.9519558  37.9171753  68.4598846  15.2447252  38.3600960  67.1970978
  34.7841797  18.1289921  23.1842880  35.6149254  18.5953312  23.0914402
  34.1179276  18.7809525  22.9668293  42.8356743  24.5063095  16.2293129
  43.1169090  24.5122185  17.1442471  43.1700516  23.6796856  15.8812952
   3.1349242  29.0446472   8.1408081   2.3683884  29.1851940   8.6965981
   3.8619447  29.4229393   8.6353464  73.7936935  22.4280796  65.7125397
  74.4598694  21.8145294  65.4027100  72.9971008  22.1713982  65.2480164
  64.3709717  57.0897675   2.9163764  64.9120255  56.4839478   2.4099348
  63.4713478  56.8242073   2.7256327  26.4369545  54.2028503   4.1751819
  25.7990112  54.4755936   3.5157344  26.4939728  54.9464417   4.7752252
  47.9218979  55.2534790  26.2351780  48.1690559  55.2342796  25.3106365
  48.1633339  54.3881912  26.5656586  39.3695564  62.4403343  15.5247221
  39.4401436  61.5903854  15.0901651  38.4922676  62.7513657  15.3014469
  46.4900017   0.2895916  13.6141729  46.3769493   0.4879883  14.5437374
  46.5239906  -0.6662298  13.5756750  34.8317490  10.8802729  28.7384872
  35.7664070  10.7288971  28.8789577  34.4656487  10.9523315  29.6199684
  44.3344727  57.8962097  20.0175533  44.2257195  56.9698906  19.8022881
  45.1887016  57.9436607  20.4468212   8.3425751  60.2092323  16.2868576
   7.6801205  60.2250977  15.5961075   8.0098495  60.8121490  16.9517021
  47.3909149   1.0516328  88.6044769  47.9200134   0.2815229  88.8123703
  46.4877014   0.7357790  88.6303864  74.1887817  66.2633896  39.4761429
  74.1371460  65.5190659  40.0757675  73.2801514  66.5413895  39.3606453
   0.8540739  14.2941866  74.8604507   0.9777996  13.3472500  74.7953720
   0.0933325  14.4748430  74.3083038  37.9014511  13.3532410  88.2802048
  37.0235519  12.9953051  88.4121475  37.7843781  14.0382318  87.6219406
  21.6922970  38.7974930  26.1856194  21.6355839  39.1734657  27.0640602
  20.9827442  38.1558304  26.1534538  33.1215096  59.2458000  78.8378143
  32.5981941  59.3448296  79.6331558  32.7005539  58.5300179  78.3617020
  75.9857025  60.0830765  70.0058594  75.9727554  60.7253418  70.7154770
  75.6131210  60.5470238  69.2560806  75.3877487  53.9331207  86.6251984
  74.6983032  54.5306053  86.9148788  74.9532623  53.3497009  86.0030441
   2.3696728  10.8144779  27.9513626   3.1071703  11.2290516  27.5036373
   1.8152049  10.4843340  27.2443962  77.9914017  45.5789185  23.2488880
  77.2766953  46.1829910  23.0475883  78.7520905  46.1441803  23.3832779
  73.5782318  36.9926720  64.6037521  73.2305527  36.4165192  65.2844849
  73.5900269  36.4510727  63.8145943  49.0490799  70.5189819  76.0487518
  48.3114433  71.0811768  75.8119812  49.8142548  71.0912781  75.9920959
  27.7108364  33.9850883  14.8891993  28.6386356  34.2125778  14.8286324
  27.5239811  33.9893188  15.8279753  44.8951149  47.6555634  77.6763763
  45.6935959  47.5761452  78.1982574  44.9986687  47.0070915  76.9799576
  80.5739136  48.9100647   9.7645521  80.0160065  48.7242165  10.5198202
  80.5117569  49.8581543   9.6483793  53.8773613  57.1797028  78.9877014
  54.2336960  57.6997490  78.2674179  53.6369896  56.3454056  78.5847092
  67.3337708  37.8947563  13.6144571  67.2309341  38.7835922  13.2744188
  66.7306366  37.3668633  13.0912113  72.6281891   2.7902148  33.2050018
  71.8601379   3.3578370  33.2693024  73.3565674   3.3901017  33.0443077
  60.1741447  28.3935261   5.4342594  60.3148918  29.0573826   4.7591934
  59.5267601  27.7993870   5.0546184  37.9502220  33.3376389  11.1562805
  37.7382126  33.5091705  12.0738106  38.9031715  33.2484741  11.1432772
  63.2336731   2.9479387  56.7584724  62.9991188   2.2875738  57.4104958
  64.1587753   2.7849133  56.5745392  68.4382324  35.7572479  44.7405968
  68.0823746  36.6225739  44.9426003  69.1044464  35.6095848  45.4118538
  80.6235733  37.4487991  71.6602478  81.1465149  37.2404137  72.4344177
  80.7450714  36.6974411  71.0797882  50.1140671  63.7171860  58.1435356
  51.0300636  63.9869614  58.0771637  49.9987030  63.4858131  59.0651588
  80.1699448   3.7255063   6.7774591  80.8297348   4.3863964   6.5673714
  80.2029724   3.6487565   7.7310057  33.9466133  57.1591873   3.9338226
  34.4213715  57.9039001   3.5647190  33.9721718  57.3038445   4.8796840
   4.6190648   0.2431543  10.2975740   5.4602485   0.0693551  10.7199907
   4.8301988   0.3233854   9.3674040  29.3046703  69.5841217  86.5412445
  29.5713692  68.8595276  87.1069870  28.4015541  69.3791275  86.2991867
  78.9285736  15.6447830  75.6024323  79.4959946  15.1821070  74.9858246
  78.0758362  15.2203474  75.5080032  81.7696609  32.5998917   9.8353319
  81.3389206  31.8637981  10.2699127  81.1412811  32.8882332   9.1733456
  85.7743073   3.3909264  66.8940582  86.6920929   3.1230333  66.8479385
  85.3664703   2.9808209  66.1313553  68.7992859  69.3604736  76.4000778
  68.0956268  68.8004456  76.7278900  69.5027771  68.7526321  76.1723557
  43.4619064  68.5450974  74.9970093  42.5507469  68.5851135  75.2875519
  43.4201927  68.7079620  74.0546875   2.3879287  15.8876381  38.3211060
   1.5751061  15.4392633  38.0876274   2.9519310  15.1961508  38.6674843
  65.0570374  55.6581192  55.3300438  64.4806442  55.1342545  54.7736588
  64.5893021  55.7263641  56.1623917  39.0743217  29.6022644  84.0001678
  39.4532738  29.6978989  84.8739395  38.8169403  28.6816750  83.9501724
   3.6106641  70.9491043  42.2599373   4.4659238  71.2924576  42.5185318
   3.0688283  71.7276840  42.1316376  53.7262497  60.7715340  70.9687424
  54.5465393  60.7481804  70.4759827  53.4620514  59.8541031  71.0376663
   5.2095227  42.5831337  63.3767700   5.1606421  43.4777260  63.7137375
   6.0649400  42.5343475  62.9500198  78.0957489  68.6877441  37.5604362
  77.3370209  69.2383804  37.3671379  77.9438019  68.3751068  38.4522896
  60.8800583   8.9157677  12.5466957  59.9679146   9.1607409  12.3910904
  61.0260162   8.1610661  11.9762983  55.2631378  58.4161034  40.7201576
  55.4535561  59.2045746  41.2283745  56.0492249  58.2756996  40.1923485
  59.6263580   1.6560366  65.8996124  58.6710892   1.6977137  65.8553848
  59.8434753   0.7834305  65.5715103  49.7491608  28.1960144  82.0274963
  49.2436714  27.3881683  81.9375305  49.6501656  28.4392338  82.9479752
  42.0521584  18.6806717  72.0654449  41.3599052  19.2382870  71.7103577
  41.6049309  17.8708706  72.3112946  25.6342754  29.9136715  78.2715759
  26.5821457  30.0331593  78.2124557  25.3212681  30.0344257  77.3750916
  71.7789841  39.6217155  35.0732040  72.3129959  39.6764603  34.2807007
  72.2424622  38.9976082  35.6316910  22.7066765   6.2862306   1.4751593
  23.6144447   5.9871993   1.5277785  22.6826916   7.0753393   2.0164206
  63.3204765  26.1347713  47.3350220  63.5939178  26.6733818  46.5924873
  62.5778313  25.6297035  47.0039368  32.7256889  70.0325394  13.0339909
  32.9597168  70.8339310  12.5657587  31.7693558  70.0478210  13.0717802
  11.9808273  33.7091103  34.2250061  11.7162123  32.7900734  34.1852264
  11.9398708  34.0096512  33.3171349  48.3840065  25.8732491  11.2583971
  48.2109718  24.9656639  11.5085554  47.5390472  26.2024994  10.9520102
  71.8479614  67.2259064  43.4735374  71.0605850  67.5051575  43.0063286
  71.9607315  66.3082504  43.2257195  10.3531685  42.8345947  61.7954521
  11.3020859  42.8400078  61.6699181  10.0633039  42.0147858  61.3952980
  61.9721870  65.6289291  53.3306198  61.4634590  65.6536102  52.5201759
  61.4044991  66.0402298  53.9823761  77.3615341  51.9443474  72.5603333
  76.7432556  52.6617508  72.4213867  76.8485260  51.2684479  73.0032883
  77.0352325  19.9026318   2.3319142  76.5354919  19.8275394   3.1448414
  76.7888412  19.1277580   1.8268483  53.6529236  55.7333412  26.6499004
  53.8652000  56.3889656  25.9855728  53.8704453  56.1553993  27.4810352
  62.5287514  43.5533333  65.1724625  62.6082497  44.1467171  64.4255981
  61.5853195  43.4494781  65.2964935  41.6616364  67.6261597  67.5058289
  41.4139252  67.7002258  66.5842056  42.5493774  67.2686615  67.4872513
  75.3398666  46.2877541   8.5533133  75.8148651  46.3761826   7.7270017
  74.4350357  46.5105247   8.3344727  33.0479698   7.3458548  79.5007324
  32.5225945   6.7046971  79.9794083  33.5063629   6.8316379  78.8361359
  26.7537422   8.3142967  63.9941597  26.7887707   9.0311632  63.3608322
  27.4778099   8.4899902  64.5950699  10.7361231  29.7296467  85.8317108
  10.7797050  29.3180771  86.6948166  11.6505947  29.8757267  85.5895691
  84.6142044  35.6868095  30.5871906  84.4480591  35.2442398  29.7548676
  83.7659531  35.6891823  31.0306988  19.1559982  37.6161346   5.2869258
  18.6027069  37.5721016   6.0667725  19.0322037  38.5054893   4.9553313
  33.5811691  26.1505756   6.2746854  33.4599190  25.2143307   6.4327269
  33.3755074  26.5636482   7.1133184  12.7197371  53.0350990  87.8113174
  13.2313023  53.6703491  87.3103333  11.8152876  53.1859131  87.5366211
  28.7351704   8.0231838  46.1825333  28.0086079   8.1294041  45.5684853
  28.7349796   8.8310919  46.6958694  81.1495895  61.5908813   3.9202342
  81.4673996  62.2147675   3.2675509  81.7077026  60.8214149   3.8077383
  74.1153107  62.6254654  55.6814995  74.1480331  63.4363289  55.1738968
  73.4817047  62.0779953  55.2177582   8.7147512  27.9757061   9.6071644
   9.0265522  27.1568508   9.9925060   8.8769836  28.6349792  10.2819023
  71.3825836  71.4356003  16.4615231  70.5675201  70.9352341  16.4223499
  71.1036530  72.3344803  16.6360149  43.8477440  12.8139820  26.4204540
  43.5632629  12.5732679  27.3021336  43.2415276  13.5049658  26.1534767
   5.7054849  30.2674580   6.0195785   5.5402756  30.3748322   6.9562798
   5.5303874  31.1307373   5.6449852  13.7604685  34.5501289  68.8099289
  12.9746828  34.1257820  69.1544647  13.7907248  34.2874489  67.8899765
   3.5462792   0.3997316  67.8843231   4.1039805  -0.1210879  67.3064423
   3.3818004  -0.1699540  68.6357422  52.7001152   9.0009718  61.0894814
  52.0951996   8.5958271  61.7109032  52.4056511   9.9095564  61.0262718
  68.0058060  38.2919273  33.5872498  68.1327438  37.5306549  33.0210533
  67.1667404  38.6595879  33.3097191  24.8854523  25.8580627  21.2048435
  24.0913944  25.4521446  21.5525990  25.5930958  25.2762623  21.4822960
  48.5143471  18.5164146  73.8618011  47.9721947  18.4786835  74.6497650
  48.5097389  17.6205215  73.5247803   5.1749291  24.7891998  66.4400864
   4.2285218  24.6496696  66.4728928   5.4090281  25.0536385  67.3297501
  72.0978394  42.0294228  12.3394260  72.6045837  42.4924507  13.0065422
  72.3926620  42.4061546  11.5103388  82.1446762  11.8523808  20.3995285
  82.0331116  11.6837206  19.4639320  81.2612000  11.7860031  20.7618828
  29.6505299   2.8373933   7.5268826  29.8465042   3.0305269   6.6100807
  28.7035751   2.9566238   7.5996461  80.4991989  34.5418320   0.7599499
  80.0424728  35.2240143   1.2521526  81.3016968  34.3841820   1.2573137
  14.0311079   5.0816011  62.2027283  14.9388847   4.7894726  62.2854004
  13.6847801   5.0424905  63.0942192  11.3819923  61.5120506  26.8963013
  10.6091385  62.0594177  26.7573090  11.9869633  62.0711784  27.3837624
  60.2925797  56.6166458  19.0084343  59.6202888  55.9427185  18.9080677
  60.5107193  56.6004410  19.9403076  15.4456339  28.5403042  29.6955280
  15.7154694  28.4103088  28.7863960  15.6847334  29.4467297  29.8890610
  41.8149223  54.6839676  30.3412552  41.3591957  55.4288521  30.7332973
  42.6941833  55.0126915  30.1539860  56.0422974  60.4449768  42.1363373
  56.5288849  61.0736046  41.6031494  55.4082146  60.9779587  42.6160316
  46.3742828  52.4737053  26.1606102  46.0809746  51.9059563  25.4479637
  47.2530060  52.1583595  26.3718777  72.3464127  20.3547764  26.3857098
  71.5913239  20.4681473  26.9629574  72.6595764  21.2446232  26.2234230
  47.1560783  14.6077995  12.4693565  46.6480141  14.5424156  13.2779541
  47.3105011  15.5459595  12.3587160  64.9611969  35.2066612  28.6772366
  64.6777039  35.5578575  29.5213490  64.1648178  34.8444977  28.2888508
  48.1428566  10.3458281  38.5636215  47.2087250  10.1451712  38.6216965
  48.4839287  10.1533394  39.4370346  86.0588150  16.8358459  60.1015587
  86.6624527  16.3545017  60.6673851  85.5240326  17.3512669  60.7053642
  36.8636894  26.1087093  69.9726639  36.2375183  26.1932526  70.6916885
  37.6243057  25.6813641  70.3664551  78.1142883   2.5061419  81.0739594
  78.2020950   1.6817911  80.5954514  78.9718475   2.9233415  80.9917068
  79.2190170  16.0543957   9.5497828  78.7864685  16.0308342  10.4033518
  78.7354050  16.7153912   9.0543671  64.0903549  29.1148186  14.4565125
  64.6552048  29.5168018  13.7965221  64.4312363  28.2257118  14.5540915
  33.1922989  29.4770832  75.7604904  33.9557533  28.9293308  75.5779190
  33.3086014  30.2444630  75.2002792   6.1469560  61.8106728  81.2672806
   5.5543280  61.8134384  82.0189590   6.2687879  60.8837738  81.0617447
  40.1661034  55.7449074  23.0861721  40.4931145  55.2606087  22.3280506
  39.2481041  55.4838448  23.1593761  53.5699120  14.3208561  77.4924622
  54.3400269  14.8560925  77.6839752  52.9033890  14.6324511  78.1047363
  32.3351593  51.3744659  36.1635170  32.0585403  50.4581757  36.1746521
  31.6126423  51.8478050  36.5760155  83.0008698  69.9484406  68.2266235
  82.8566284  69.3764191  67.4728241  82.9974747  70.8327789  67.8603287
  50.3971329  11.5701666  35.2229424  50.8984680  12.3855705  35.2262421
  49.9154472  11.5885038  34.3959770  11.2295561   4.4996262  15.0566988
  11.2690248   3.9797249  15.8594294  11.6244507   5.3383975  15.2949247
  21.7401581  63.1000519  45.3110809  22.5021591  63.6409416  45.5185051
  21.6796188  62.4821091  46.0395775  56.1536789  60.7109489  28.2055054
  56.5930405  59.8611870  28.2386494  56.2911377  61.0857468  29.0754852
  77.0739517  30.3671551  58.5419731  77.1757965  30.2735424  57.5948181
  76.3837357  31.0222931  58.6450539  53.5130768   1.2430112  57.2634468
  54.1731911   1.7336622  57.7530861  52.8744240   1.9033436  56.9945374
  64.6909332  35.8214912  33.9332733  64.7118835  36.5882454  34.5058861
  63.9860458  35.2783699  34.2859535  74.9796448  13.7722645  25.7596836
  74.1072617  13.4436083  25.5425091  75.0062408  13.7669821  26.7164993
  22.7292767  54.3949585  81.3526001  23.3132076  53.6409836  81.2702560
  21.9309864  54.1307220  80.8952789  56.2601662  69.3624496  86.2534637
  57.1730537  69.4175491  85.9709167  56.1690826  70.0568161  86.9059906
  51.4222984  18.8682938  86.1643372  51.9992867  18.9554977  86.9230957
  51.4477196  17.9357376  85.9500275  23.6601982  70.6738663  27.4542999
  23.8476639  71.5227814  27.0537567  24.4763145  70.4295044  27.8907318
  42.5163193   7.3793879  79.5727386  42.8554649   7.8858099  78.8346710
  41.8382950   6.8226981  79.1898346  75.0186920  65.5484924  14.2862310
  74.6820297  64.6525345  14.2745132  74.5658035  65.9649582  15.0194979
  83.2236252  16.3217144  78.2914124  83.7325058  15.9537773  79.0138321
  83.3000641  17.2693272  78.4028473  79.2421646  16.6308231  43.8293533
  79.2552872  16.0276546  43.0862198  79.6111145  17.4439201  43.4844170
  44.4868736  70.4118958  30.3111362  45.0413361  70.9993591  30.8246422
  45.1010666  69.8124237  29.8873100  76.3296432   0.3388600  85.1252365
  76.1598663   0.7894470  84.2979660  77.2686844   0.4527951  85.2717056
   1.0706236  57.9151573  31.0557079   1.1822909  58.6784172  31.6224480
   1.3578955  58.2135201  30.1927567  18.7843056   9.4880419  69.1142807
  19.5655575   9.3444719  68.5801773  18.3105488   8.6572886  69.0738525
  81.3531570  16.2497082  40.1510124  80.7691040  15.8272982  40.7808418
  82.1977158  15.8183260  40.2808685  65.5229797   9.0189714  65.9499893
  65.3066025   9.0823307  65.0197220  65.0065613   8.2775888  66.2660522
  81.3908920  33.1947021  79.3894806  80.5906677  32.8255768  79.0158234
  82.0981750  32.7944679  78.8837051   0.3454969  32.2025795  38.0039635
   1.1529479  32.3125343  37.5018044  -0.2138568  32.9253159  37.7193489
  17.7223835  55.7097855  23.3768215  17.5511265  55.5576363  22.4474373
  18.4016876  55.0742531  23.6023712  75.6730576  63.7450981  61.4957771
  74.8919525  63.6180725  62.0342636  75.5970078  64.6424408  61.1713943
   7.2305675  53.2944221  86.6656036   7.7688069  54.0177994  86.9869308
   7.3158355  53.3371239  85.7131653  50.0082016  54.3181648  67.5861969
  49.4916458  53.6209183  67.9902267  50.3366508  54.8314095  68.3243942
  28.5267067  37.3636665  84.4411469  28.6179485  36.7822075  85.1960068
  29.0613480  36.9567566  83.7593765  62.4726639  33.0480614  42.1571236
  62.7981606  32.2153854  42.4990768  62.3032341  33.5772438  42.9365425
  66.3938217  70.4022903  40.0492668  67.1565628  69.9296799  39.7159576
  66.1718979  69.9537659  40.8652382  80.6142349   1.4500045  30.8893871
  81.2137299   2.0955927  31.2636280  80.2193298   1.0214127  31.6487236
  38.0225754  28.4561653  74.1743546  38.7772102  28.4856052  73.5862350
  38.3008804  27.8882389  74.8928452  58.9153252   6.6913729  59.3527527
  59.1091270   7.5997829  59.1215286  58.0065117   6.5636554  59.0807648
  13.4592009  54.3133316  74.3831635  13.2323418  53.8847008  73.5579071
  14.2357664  54.8336830  74.1772232  76.8397369   5.9926105  50.1400986
  76.5934601   5.1190338  49.8360519  76.7681885   6.5459270  49.3623123
  52.0627899  48.7036362  32.1836128  51.8165283  47.9373322  31.6655712
  52.2118340  48.3595428  33.0643044  68.8386536  27.4335232  52.3607979
  67.8981781  27.6108265  52.3780174  69.2139816  28.0725002  52.9666672
  50.3561249  24.9360142   7.2682562  49.6725273  24.7954826   6.6131368
  50.8047218  25.7307968   6.9796200  16.3176956  34.7513428  70.8010254
  15.6824560  34.0686264  71.0168915  15.8378363  35.3540077  70.2329025
   2.8048968  50.9830475  72.6874161   1.9896439  50.9107018  72.1910706
   2.5394182  51.3458366  73.5324783  21.1941929   3.1351304  38.1809578
  21.9143906   2.6461964  38.5790672  21.2036514   2.8692780  37.2614670
  23.6147785  51.8962936  19.6572971  24.4255619  51.4063416  19.7944431
  23.6003208  52.0772209  18.7174625  86.4813004  63.5405807  57.7340927
  87.4189301  63.7295723  57.7709465  86.1323166  63.8998260  58.5498047
  72.5018311   9.1738987  32.2894249  73.2310562   9.0555401  32.8980751
  71.9349365   9.8159275  32.7168045  80.4824448   0.2962548   9.8284225
  81.0953827   0.9423754   9.4776134  80.9870300  -0.1787397  10.4887257
  37.1165161  55.2121201  71.6136017  37.1043663  54.2846603  71.8500443
  38.0405502  55.4075546  71.4580612  15.9227810  14.4604845  73.8490219
  15.7824202  14.6050472  72.9132690  16.3282204  13.5948610  73.8994827
  15.5559406  59.1057167  72.4217987  15.4742794  59.4609528  71.5367126
  14.7352600  58.6351471  72.5676804  26.0755787  55.3663826  59.2835960
  25.8447590  54.7485542  58.5898781  26.6879272  54.8844872  59.8395081
  64.2715378  20.4753056  59.7354507  64.7624054  20.1801815  60.5023804
  64.8678741  20.3334942  59.0002632  33.8083000  30.1041069  18.1602898
  34.3115234  30.0533905  18.9729557  33.4625626  29.2200680  18.0370998
  86.7225342  70.4123230  78.3934250  87.0968399  70.1842575  79.2443695
  85.8444824  70.7347488  78.5966492  37.2776642  68.8709869  86.4727554
  37.7304802  68.4225006  85.7585754  37.5518875  68.4030533  87.2614746
  59.5617447  17.1248436   8.8330469  58.7439308  16.7342701   8.5250387
  59.6094513  17.9677086   8.3818998  47.1928444  35.7751656  72.3605042
  46.6642494  35.4962997  71.6128082  46.6011620  36.3158531  72.8837662
  12.7313070  28.0391827  66.7909851  12.5167685  28.8673172  66.3615646
  11.8826494  27.6660595  67.0292892  81.2597351  44.4708443  38.3424644
  80.3824692  44.3231010  37.9891739  81.1516342  44.3970718  39.2906761
  36.7661057  70.1778870  16.2630234  36.5231705  70.3404236  17.1745033
  37.1381760  71.0071411  15.9627953  22.3276100   8.8826590  19.7664948
  21.7799320   8.3013916  19.2388496  21.8754559   8.9389582  20.6082897
  42.6370621  11.0344114  84.3464661  43.1035767  11.7229776  83.8726807
  43.3096313  10.3833170  84.5463562  44.2298012  54.5744400  26.3191261
  44.8873749  53.8816223  26.3810539  44.0073318  54.6110458  25.3888569
  18.6794147  46.1245766  29.9919205  19.5465279  46.1518250  30.3964024
  18.3330154  47.0093002  30.1081181  65.4877014  13.9913855  11.5402899
  65.3603287  13.6110897  12.4094172  65.0165558  14.8240080  11.5717802
  19.6773796  37.1208076  26.3202686  19.6943054  36.3504677  25.7523556
  19.0993195  36.8736000  27.0420494  25.6029797   1.7582603   2.4539273
  25.7328701   2.5694325   2.9452114  24.8259907   1.9234974   1.9198713
  10.2799759  40.1633530  55.6618195  10.6710577  39.3050194  55.4988670
   9.5299091  40.2013664  55.0683670  11.6357918  68.1190262  44.3086662
  11.9599209  69.0189438  44.3449936  10.9929905  68.0672379  45.0160255
  58.5989799   6.8954220  33.3998451  58.0183487   7.3402724  34.0172653
  59.3083153   7.5194411  33.2459908   7.5828977   6.0980473  11.7387571
   8.4533806   6.1762710  12.1291046   7.4117622   6.9604158  11.3602533
  68.8169632  40.8022575  14.2728939  68.1733017  40.6728325  13.5763426
  68.3615494  40.5374107  15.0720730  44.8831062  50.9222565  32.3482513
  44.8340721  51.0782585  33.2913780  44.1567345  51.4279785  31.9837494
  45.2304764  61.6425705  27.7711544  45.6635933  60.9568443  27.2628059
  45.2782402  62.4197693  27.2144527  76.4336395  43.6681900   5.0438375
  77.2026291  43.8915939   5.5682197  76.2813034  42.7407494   5.2251554
  77.5835648  41.4920578  10.4513474  77.4213028  42.4324150  10.3763256
  78.3429947  41.4254761  11.0301991  49.4975662  45.5999641  75.4503479
  50.1586685  45.8391800  74.8007660  49.1539726  44.7605515  75.1444702
  48.8297043  48.5857964   5.0123672  48.4813690  49.4765205   4.9736114
  49.7753639  48.6938171   4.9109378  54.9763985  48.8100891  39.2026176
  54.5823860  48.9826393  40.0577278  55.0269318  49.6695862  38.7843590
  82.4483719  69.9490585  40.8301201  83.1746521  69.7132416  40.2529373
  82.3908768  69.2232437  41.4515114  11.6074915  10.1186543  27.3442631
  12.2848511  10.7354164  27.0667381  12.0690203   9.2864237  27.4472942
  48.4918747   7.4167347   8.4394331  47.5538750   7.2329273   8.3883982
  48.8134956   7.2697110   7.5499525  32.6443863  67.2485275  10.5976143
  31.9984894  67.6532898  10.0186386  32.2148323  67.2195282  11.4525251
   7.7095780  63.6828728  16.0109444   8.6520729  63.8329315  16.0845413
   7.3261843  64.2249146  16.7004585  70.7634583  18.1607609  48.6042557
  70.1079483  17.4768085  48.4673309  70.2524185  18.9487953  48.7888412
  71.9496689  27.6920624  15.8907347  71.6746445  26.7950859  16.0805340
  71.1310730  28.1723652  15.7664995  72.1605301  46.3694878  27.6091557
  72.4115982  47.0743217  27.0121555  71.2933121  46.6217041  27.9262428
  40.3978386  59.9431610  29.1158695  39.9830780  60.4406471  29.8206482
  41.2915955  60.2835426  29.0762768  43.6888771   1.8856227  17.5934944
  44.0951920   1.0481399  17.8165665  43.8810196   2.4517148  18.3410587
  66.1839523  50.7889938   6.2407055  66.2876129  51.6989632   5.9624248
  65.9173431  50.3247604   5.4472060  69.3253708  25.0478802  77.5487976
  68.5405045  25.2192059  77.0283661  69.6588974  25.9167938  77.7723694
  28.7760639  18.9501648  84.8968277  29.3391666  18.1777782  84.9475098
  29.0474625  19.3920517  84.0922699  79.0695267  65.7413254  84.3716278
  79.4322968  65.1244736  85.0073395  78.5828552  65.1927643  83.7564316
  70.7943268  19.2816925   1.8459132  69.9857864  19.7250137   1.5890658
  70.5101776  18.4155827   2.1380541  40.4096527  27.4422150  73.4763489
  40.6080742  26.5405388  73.2236786  41.0586433  27.9697514  73.0107880
   0.1071123  57.6796303  65.1797028  -0.5342005  58.0578079  64.5780945
   0.9268053  58.1261520  64.9676743  12.6007862  61.7147369  11.2759275
  12.9016600  62.0101929  12.1352367  12.4651842  62.5216331  10.7791758
  48.7207336  49.3767700  19.6946030  49.0765152  50.2003250  20.0283871
  48.4462357  48.8996048  20.4776707  76.1754150  47.5547180  76.0975189
  75.4826889  47.6602936  76.7496033  75.8583984  48.0334549  75.3316574
  40.6352692  39.3225555   9.4052410  41.0148964  39.5066223  10.2644472
  40.2970123  38.4301605   9.4790440  81.1892776  17.4079227  84.1702957
  80.2868042  17.1090565  84.0587234  81.1164551  18.3568974  84.2721405
  45.5546875  26.3518696  78.7270432  45.1618805  27.1057186  79.1670914
  45.8712082  25.7966938  79.4396591  57.3024979   8.6621180  56.8591423
  58.0145569   8.3592415  57.4225845  57.4514618   8.2171936  56.0248260
  51.8253899  65.4338760  73.3490601  51.1833725  66.1438141  73.3547974
  52.5173340  65.7319183  73.9394913  22.5543728   7.4260235  74.0317535
  22.4251366   6.4845552  73.9170074  23.2961273   7.6368356  73.4646683
  77.7541580  14.0603542  78.0793991  78.6544037  13.7351027  78.0783005
  77.4731216  13.9904432  77.1670609  20.3025951  64.8096695  71.8477783
  20.9330444  64.2877655  71.3514099  19.6908340  64.1675262  72.2078247
  45.4645691   4.9577141  69.9380112  44.8406448   4.5518126  69.3361893
  45.3025131   5.8972821  69.8532715  11.8841963  70.7890320  35.4509506
  12.0944510  70.4198456  34.5932007  12.4466448  71.5600739  35.5242386
  32.2375069  36.0218811  23.4936218  31.9261608  36.3284454  24.3452759
  32.9283371  35.3933525  23.7032280  16.1831760  12.7277517  48.2427139
  16.6688423  12.6590948  47.4207344  16.4379730  11.9488068  48.7372360
  37.2312965  55.0896149  89.4211197  38.1879807  55.0764084  89.4495926
  37.0219345  55.3484001  88.5236664  11.2593670  23.5079117  79.1223526
  11.2166119  22.9646740  78.3354034  12.0856600  23.9840488  79.0401077
  68.4869690  29.2371578  25.7876682  67.9400024  28.9659023  26.5248814
  69.1075287  29.8599052  26.1662407  31.2257595  71.1514282  47.9610672
  31.5586376  72.0078735  48.2292595  30.9724960  71.2688904  47.0454826
   9.4612503  31.9785004  46.7886772   8.6354446  31.6603851  47.1534767
   9.5130129  31.5725327  45.9233780  39.5682259  48.6289444  73.5301514
  39.4585533  49.5562820  73.7404938  39.0271416  48.1717148  74.1738892
  15.6582060  44.4028053  16.0915871  16.0422516  44.9912949  15.4416494
  15.8095207  43.5256615  15.7395239  40.7358780   0.8438647  47.6928825
  40.8448715   1.7027956  47.2847252  40.4483948   0.2743365  46.9792824
  17.9036083  47.8417168  80.8382950  17.9125519  46.8938866  80.7049866
  18.8113823  48.1116943  80.6994019  61.8895340  52.6591415  46.9597740
  61.4827080  51.9185181  46.5101013  61.4727554  52.6745262  47.8213387
  69.3272781  60.9655380  22.7352715  68.4218750  60.6655388  22.6548424
  69.2559128  61.9120903  22.8584633  34.2590446  19.3684540   8.4668875
  34.1284714  19.0530128   7.5726390  33.4941139  19.9167290   8.6415491
  67.1677551  16.8992100   9.0010214  67.5612488  16.0319042   9.0968113
  66.4538727  16.7706833   8.3764534   0.6785043  19.9729900  28.4994869
   0.1970598  19.9059029  29.3240738   0.8631031  19.0660172  28.2554474
  71.2600021  51.7179260  15.9155416  71.9267654  51.0435600  16.0455017
  70.7889633  51.4407196  15.1297235  20.1833134  29.2371006   9.7474699
  20.0749321  28.5898857   9.0506210  21.1273575  29.3900909   9.7875452
  68.4009705   8.1820602  66.6679840  67.9123154   7.3770971  66.8396835
  67.9427338   8.5880890  65.9321823  48.5090332  28.0394344  77.4818649
  48.4390526  27.6876469  78.3693237  49.1937218  28.7056656  77.5416183
  39.1288338  40.3798943  75.2472992  39.0825157  39.4272766  75.3285828
  39.1283035  40.5400658  74.3035965   1.2758509  25.7797527  36.3069344
   1.5464240  26.6943340  36.3879471   0.4893334  25.7137966  36.8484802
  84.7051620  59.2917328  73.9479370  84.5917969  59.5285721  73.0274582
  84.9827805  58.3759117  73.9271774  26.0249691  55.1410027  89.1359406
  25.4375992  55.3266907  88.4033127  26.7551880  54.6633835  88.7423782
  12.6611719   6.6933203  39.0619164  12.7418566   5.8380580  38.6397209
  11.9136934   7.1049438  38.6282387  75.5901184  65.5836258  71.4993515
  76.0071182  64.7488480  71.2860718  76.2966614  66.2265854  71.4391403
  54.1355782  67.7054138  11.6865778  54.3560867  68.2604828  10.9385767
  53.6801796  66.9560623  11.3027563  22.2558384   8.3996897  25.9693069
  22.8736897   7.7807231  25.5802441  21.3936520   8.0612793  25.7277584
  48.0577164  59.4411011  70.1996765  47.4604149  58.9174995  69.6655426
  48.7445145  59.7154083  69.5919876  75.0431671   4.8939595  60.2951736
  74.7142029   4.0204220  60.5071754  75.2814560   4.8420339  59.3695641
  73.9015579  13.8851328  15.3810205  73.2362137  13.2647800  15.6788731
  73.9457016  14.5412912  16.0765343  35.5845833  16.1027164  84.5728836
  35.5332985  15.2359371  84.1700211  34.6919060  16.4442463  84.5207825
  19.8562069  44.3588676  61.1538124  18.9071465  44.4648323  61.0883446
  20.1923904  45.2520294  61.2278290  41.8903961  61.8340607  11.8091516
  41.5344200  61.2345314  12.4649544  42.7532425  61.4759827  11.6005745
  57.2303772  41.0168343  87.3426971  56.3709831  40.7773285  87.6895447
  57.8520126  40.6711044  87.9832153  54.4042130  16.6858253   4.9583797
  54.0339050  16.0237370   5.5421104  54.8259087  16.1823139   4.2620444
  52.6532059  36.5786362  63.8656006  53.4425011  36.2858849  63.4100342
  51.9367371  36.1321297  63.4144516  74.1548691   5.6597190  25.5531006
  75.1024780   5.6050086  25.6767292  73.8072815   4.9055519  26.0291729
  43.1124725  31.3913918  76.9181442  42.2747917  30.9554882  77.0746994
  43.0505943  32.2118912  77.4072037  20.3048840   2.8861673  61.7302437
  20.9882355   3.4183280  61.3227272  20.2596149   3.2040212  62.6319923
  34.6039009   1.8602604  24.4038315  35.4285011   1.9014330  24.8881588
  34.3134232   2.7705884  24.3476448  58.7023811  41.0695229   7.0963674
  58.5837326  41.6557655   7.8436804  59.3430099  40.4249458   7.3969440
  78.9974060  14.0886898   4.6240406  79.2611389  14.5461950   5.4223919
  78.4955139  13.3350792   4.9345379  71.9419098  58.1277428  62.3661385
  71.1226501  58.4359703  61.9787903  72.3946304  58.9266968  62.6362305
   1.0299376  21.1132622  33.6708488   1.2320299  22.0299568  33.4835968
   0.4280834  20.8533802  32.9733810  71.5117340  28.5583630  61.0228462
  70.7083664  28.6241474  61.5390892  71.2736282  28.0054092  60.2786827
  64.0807953  62.3922539  14.2548771  64.4750061  61.7560997  14.8516483
  63.5063210  61.8707657  13.6942883  67.4103241   1.6132054  46.2265472
  68.1517334   1.9193423  46.7488785  67.6351624   1.8534636  45.3276825
  57.1876488  47.6043892  38.2050323  57.5178223  46.7320900  38.4202461
  56.3681908  47.6777420  38.6942596  20.6251259   5.4031715  82.6286850
  20.5339165   4.4664607  82.8032837  19.7254620   5.7260685  82.5779495
  49.0975723  37.1694641  22.2117252  49.4952164  37.7017403  22.9007797
  48.2095528  36.9970512  22.5246601  73.1496353  53.1709518  21.0616016
  73.3773880  53.8445663  21.7023830  73.4949875  53.5023651  20.2326698
  74.0847702  42.5571442  81.2469711  74.7417984  42.5633354  81.9430389
  74.4526291  41.9826736  80.5754852  11.3164587   9.7986822  62.5414543
  10.5766888   9.9322405  61.9488869  11.9278727  10.5022097  62.3236160
  51.4634590  52.9166908  74.2293167  50.6005325  52.5506630  74.4232559
  51.3842049  53.8453674  74.4472885  82.8271255  37.8285294  49.6976013
  83.5606308  37.2543144  49.4774094  82.0718842  37.4282532  49.2667580
  53.4097977  52.1064262  81.8927231  53.7136688  51.3315277  82.3654099
  53.3863335  52.7970924  82.5550385  66.9176865  21.6702328  11.4392071
  66.3008347  21.5015793  12.1514435  67.3084259  22.5166836  11.6561670
   3.5193183  10.6011200   6.1451325   2.5976348  10.8565245   6.1838641
   3.9066646  11.1983519   5.5052037  55.5893478   3.8382804   3.3133893
  56.5075760   3.6396344   3.4967697  55.5846481   4.1287045   2.4013238
  20.0163155  37.2725449  74.8440323  20.0857372  37.4658279  73.9091263
  20.2323666  36.3426018  74.9130478  66.7918854  61.8193436   1.2601012
  66.2152100  61.2881203   1.8091685  66.8121262  61.3607712   0.4201424
  38.4646912  69.6718826  32.1502266  39.3792763  69.6388397  31.8697338
  38.2315903  68.7582626  32.3151398  64.0626297   2.7353361  43.5135956
  64.2443008   2.6362286  44.4481544  64.3200607   1.8972859  43.1293640
  38.3683891  51.6653862  60.8988876  38.4852982  51.5014610  59.9631004
  38.7296715  50.8882103  61.3251572  32.6041794   8.4742565  67.6313629
  33.3174057   8.6522961  68.2444153  32.0699043   7.8128514  68.0710526
  15.5294609   9.3586760  56.4854698  16.4060440   9.7273664  56.5945549
  15.6763182   8.4185944  56.3810120  73.4539719  40.3392639  49.3560181
  73.2646179  41.1735420  49.7853813  73.5945129  39.7253723  50.0768661
  55.3676529  66.1197357  26.8688145  56.3090134  66.2055588  26.7181320
  55.0034866  65.9262009  26.0050087  22.5677948  11.4385204  87.8205338
  22.5014248  12.3880730  87.7196503  23.0415306  11.1474113  87.0413895
  34.8949203   3.2566221  70.7355499  35.5290337   2.9873922  70.0709915
  34.1572876   2.6577735  70.6193085  10.5833130  53.1867981  77.4405289
  10.2332935  54.0029182  77.0832214  11.3559446  53.0032806  76.9061203
   7.5756950   4.7402973  55.5374832   8.3811045   4.9252462  56.0205383
   7.8144345   4.0364375  54.9343109  37.2462044  20.2268658  30.9690056
  37.4188538  20.5509129  31.8529835  36.5174713  20.7625542  30.6556110
  42.8052864  31.3014755  88.7497711  42.0246735  30.7510357  88.8121796
  42.4870300  32.1883965  88.9180450  59.0739021  40.7873344  26.5722504
  59.5696869  40.7851791  27.3910427  59.7353935  40.6644974  25.8913898
  77.0321426  62.7845497  38.7473984  77.0955963  63.7376137  38.8096619
  77.2536697  62.5887260  37.8370094  17.2470417  68.7095795  22.6481152
  16.5594215  68.8621597  23.2962914  18.0387745  68.5690918  23.1673965
  71.7453995  28.3608265  43.1730919  72.0807800  27.6775913  42.5926247
  72.2430649  29.1430225  42.9349060  66.1319580   5.1352625  58.0830078
  66.0697174   4.2673769  58.4819183  65.2632217   5.2915335  57.7127266
  21.3068657  69.5294418  41.8723717  22.1218071  70.0224152  41.7770958
  21.3484764  68.8630447  41.1865044   8.5100336  36.1234818  73.3133392
   7.7435155  36.0509987  72.7446365   8.6525574  35.2342644  73.6377029
  63.2400742  22.6160698  60.7432365  63.3571434  21.8207626  60.2236099
  64.0612946  22.7098083  61.2259827  21.3090420  47.1765404  28.8914375
  21.0680065  47.9895706  29.3354187  21.9956188  47.4340744  28.2761993
  85.9417648  38.9692802  37.4706612  86.7371521  38.4910202  37.2364426
  85.6094818  38.5164566  38.2457542  22.8272247   8.5326643  47.1378555
  23.5058174   8.0264511  47.5844994  23.2892590   8.9786158  46.4280090
  34.2050781  60.7665367  49.8877945  34.9257584  61.1293602  49.3728065
  34.4459839  60.9461098  50.7966118  37.0807457  70.6779938  11.1514282
  37.4174614  71.3399429  11.7553139  36.4132500  70.2119141  11.6548634
  80.2765274   7.9332681  36.0772285  79.5390015   7.4979787  36.5047836
  80.1610413   8.8603382  36.2856369   0.3040904  36.0456734  85.4595642
   0.2954625  36.8355980  84.9190292  -0.4166053  35.5151482  85.1199036
  74.1043549   8.7413912  46.7770386  74.8494949   9.1414261  46.3287392
  74.1900787   9.0276794  47.6863899  30.7177544  10.3790741   6.5755391
  30.0554619   9.9832182   6.0090590  30.4032211  10.2128115   7.4641657
  36.8802223  53.2753448  14.7232733  36.4309616  52.4347801  14.6346750
  36.6461754  53.5808029  15.5997143   8.9396305  68.3760910  35.9698410
   8.2882166  68.7194138  36.5814133   8.4249229  67.9314423  35.2963486
  52.4788895  41.1261520  24.8448658  52.2152939  40.7909622  25.7018356
  53.3177948  41.5585670  25.0045109  50.8656349  26.9135075  25.7964764
  50.2699661  26.4432449  25.2131557  51.3324356  26.2240353  26.2686577
  17.7691364  41.3804512  16.7831211  17.3232288  41.6239586  15.9718866
  18.4105949  40.7222824  16.5155792  38.0425682   6.3983226  37.2201080
  37.8220787   7.2293677  37.6408005  38.3327370   6.6441116  36.3416901
  84.0838623   1.1633509  80.9355316  85.0392532   1.1045589  80.9393692
  83.8875427   1.8295887  80.2768860  30.1241970  46.5347214  27.2707996
  30.1843853  47.4516144  27.0026264  30.6537075  46.4826469  28.0664997
  73.6375275  29.5249023  18.2014866  73.3168488  29.9625072  17.4128799
  73.5827332  30.1927071  18.8850555  73.3884201  22.2081013   7.6842341
  72.4466019  22.0412006   7.6474948  73.6847458  22.1087208   6.7794991
  57.5387955  58.9127235  71.4165802  57.9248619  58.6268845  70.5886383
  57.7258110  58.1994743  72.0269318  64.0799484  39.1782455   5.2779055
  63.1333656  39.0369339   5.2935905  64.3918991  38.6310158   4.5571690
  49.9791298  49.3316994  69.3310165  49.5030556  48.6514549  68.8547211
  50.6854858  48.8630753  69.7756271  26.8933964   1.5237778  79.4402466
  27.4007130   1.9137565  78.7283630  27.5522537   1.1783636  80.0425949
  79.6076050   7.8899941  55.0451775  80.4487991   7.6148295  54.6806107
  79.1107559   8.2047768  54.2900085  73.6107025  31.0061016  48.5257263
  73.6758881  30.1984158  48.0161934  72.7388382  31.3463058  48.3248482
  49.1209030   4.0124164  80.9484100  48.9619255   4.9561872  80.9643707
  50.0703888   3.9309559  80.8585663  74.9813232  52.8121262  32.6940193
  75.2468338  53.2988396  33.4743004  74.7104111  51.9562798  33.0262375
  64.3809738   9.6691170  25.4625950  63.6174469   9.8533335  26.0096970
  65.1127625  10.0734806  25.9286613   9.9191065  11.4383163  51.9194412
  10.4816694  11.7087936  52.6451111  10.3720741  10.6896677  51.5313988
   6.8167701  62.8890495  87.4120331   7.5157981  62.9026833  86.7582703
   6.0112891  62.8168716  86.8999557  14.7849960  57.3182983  52.0545425
  14.6586657  56.5677452  52.6350136  15.5947924  57.7254448  52.3622665
  75.4044418  61.1534386  18.0298977  75.8962250  60.5670929  17.4549370
  75.8085480  61.0398254  18.8901463   0.4422201  57.4182739  23.8346214
  -0.3376564  57.5034447  23.2861958   0.7537706  58.3160896  23.9490528
  46.9776993  47.4718704   6.5490146  47.7703018  47.5445023   6.0172887
  47.1217880  48.0758820   7.2774663  17.7447910   6.3628888  63.3676071
  17.5453339   5.9910235  64.2267685  18.6355801   6.0672770  63.1796150
  85.1720047  43.5440521  23.9639130  85.4679718  44.3818893  23.6080189
  85.9103012  42.9507828  23.8254223  85.6575089  19.7568398  48.8260460
  85.3742599  18.8433170  48.7875557  86.1471786  19.8901730  48.0144577
  55.5733948  10.9708710  44.6038361  56.3637543  10.5238323  44.3009911
  55.4742851  10.6918430  45.5140877  25.7798080  55.3067474  25.2449722
  25.6124916  56.1313515  25.7013359  25.0781479  55.2450638  24.5968189
   0.4749081   4.0162101  37.6126099   1.0544543   4.6683726  37.2188568
  -0.2668497   3.9601295  37.0102119   9.6646338  42.8607979  68.0590363
  10.6096859  43.0119896  68.0748367   9.4373617  42.6699371  68.9690628
  68.3819046  42.3282928  36.8421211  68.1892242  41.5642242  36.2986984
  69.3267670  42.2854385  36.9892311   7.7511368   8.4762287  22.5251274
   6.9369240   8.1477509  22.1438255   7.7155595   9.4227371  22.3869724
  29.9247684  59.0895309  16.0500603  30.3941174  58.7334061  16.8044605
  30.3276043  58.6625671  15.2939825  69.4810104  27.0309277  59.2257500
  68.7846069  26.3811378  59.3207550  69.6811752  27.0323715  58.2897148
  70.9609146   5.0083385   2.3908625  70.6282578   5.8149853   2.7844236
  70.2871017   4.3548179   2.5782502  49.5092087  68.9281998  13.3451681
  50.2537994  69.0030212  12.7483282  49.8822517  68.5673447  14.1494436
  32.3011665  41.0374756  12.9407730  33.0058746  40.6899567  12.3941031
  32.4680672  41.9793320  12.9765596  55.0904503  62.2167587  22.5554676
  54.9345703  62.6970329  21.7422810  55.8729286  61.6944580  22.3789310
  66.4200058  68.3219223  77.5425873  66.2335434  67.6414413  78.1894379
  65.7388687  68.2144165  76.8787155  79.3151093  17.1410446  47.0515366
  78.8145447  16.5369778  47.5999603  80.1665573  16.7171841  46.9437752
   7.6539330   5.4936066  79.4898148   6.9727244   5.4928260  80.1622620
   8.4182615   5.8728943  79.9236069   8.1411886   3.6623814  60.5050240
   8.7506104   4.3657842  60.7287674   7.4532003   4.0937243  59.9982224
  68.7842712  20.3618279  73.9892960  68.9429169  19.4708767  73.6774139
  69.4553299  20.5050201  74.6566772  58.0203743  24.8143024  59.9662437
  58.1014938  25.0467205  60.8912468  58.7457390  24.2105198  59.8064919
  39.9137115  23.4561653   2.4143963  39.9461098  22.7151871   1.8093071
  40.8287277  23.7136745   2.5269368  82.8384247  39.6016884  69.6201019
  83.3522720  39.5012016  70.4214096  81.9523773  39.7948990  69.9264069
  58.0984993  21.5706444  31.1761742  58.1170921  21.5387211  30.2196884
  57.2462196  21.2039585  31.4115353  29.2859592  64.3499527  81.8358841
  28.4334583  64.7557678  81.9933243  29.9202061  65.0005798  82.1369629
  51.7554245  52.4989014  31.3220196  51.0165939  51.9413071  31.0781937
  52.0369377  52.1646461  32.1736412  66.6977768  29.5333805  73.3223114
  67.1702118  28.7798042  72.9685364  65.8031998  29.4289379  72.9981918
  21.4265976  35.0596390  84.7852173  20.8767796  34.2829132  84.6821213
  21.0550365  35.6985512  84.1769638  31.7297611  47.8306732   5.9205031
  32.0783424  47.7543526   5.0323043  32.1354256  47.1082878   6.3999028
  76.0741882  57.4101944  49.1289291  77.0157242  57.5493851  49.2307281
  75.6727524  58.0428848  49.7245674  62.3135071  70.2050476  29.2681026
  63.0969772  69.7265930  29.5391884  61.6395493  69.9337082  29.8913078
   5.8868690  10.4069653  43.1513596   4.9536638  10.6059542  43.2272758
   6.0489755   9.7549648  43.8331604  17.4621716  37.0256500  68.9463806
  17.2510967  36.2822266  69.5111771  17.8629227  37.6664734  69.5337296
   0.9728817  69.8273468  80.8525391   0.2814047  69.2467651  81.1703720
   1.3912128  70.1589432  81.6470642  21.0540981   6.0403585  10.2526236
  20.8484707   5.7593007  11.1442261  20.6836586   5.3566003   9.6945181
  54.9230309  38.1370125  56.9740715  55.5128593  38.7438011  57.4214478
  55.5020638  37.5796967  56.4541130  41.7750168  18.9057560  16.4063301
  41.6833839  19.7062244  15.8895273  41.8209038  18.2047997  15.7561083
  32.8458900  53.5541763  62.8429832  31.8941231  53.4702797  62.9006996
  32.9864159  54.2535934  62.2047844  51.5489807  44.9997940   6.7300348
  51.2218933  44.9066086   7.6247764  50.8259087  44.7013283   6.1783881
  49.5357704  34.3557549  27.8345032  49.3081703  35.2220764  27.4969902
  50.4921303  34.3303032  27.8035278   3.2023053  63.9657288  69.7148972
   3.6098318  63.3083572  69.1509705   2.4857852  63.5002022  70.1463089
  16.8810863  59.3021584  66.1937408  16.8838024  58.4374542  66.6042404
  15.9826250  59.4176369  65.8844528  42.8199997  52.5339699  34.4856033
  41.9449501  52.4252815  34.1131744  42.7588463  52.1454277  35.3582611
  65.6726151  26.4289379  33.1251297  65.6485748  27.0442753  32.3923187
  66.5944443  26.3970356  33.3809471   2.7360079  64.3661652  53.5439835
   1.9490960  64.4985657  54.0726357   3.3724067  64.9846649  53.9027138
   6.0320258  32.3643341  82.3731537   5.1158581  32.2857895  82.6390457
   6.4975505  31.7410088  82.9308090  54.8523598  34.6746635  88.7290649
  55.7830048  34.7628212  88.9348907  54.4987030  35.5576744  88.8360825
  81.7765045  36.4240265  33.6755829  81.9671249  35.5816650  34.0882835
  81.7122040  37.0394440  34.4058990  65.9760513  15.5405483  60.1604767
  65.1517563  15.0810900  60.3206673  66.5013123  14.9207258  59.6543541
  58.0225143  53.3987160  56.8165894  58.9678574  53.5307312  56.7449913
  57.9238625  52.4625206  56.9899025  10.2829237  70.4561920  22.4360924
  11.1865120  70.3038406  22.7127647   9.7847452  70.4894104  23.2527599
  62.3536797  38.2106628  53.7774239  63.1045952  38.7194748  53.4717064
  62.1924667  37.5776215  53.0777817  39.9072456  68.5013733  25.3420601
  40.0011292  69.3938904  25.0091381  40.2232666  67.9455490  24.6297264
  42.3143654   3.8591995  20.1286945  41.8889275   4.7166176  20.1369457
  41.6286125   3.2542768  19.8457737  25.5954361  13.2977228  76.6926346
  24.8642788  13.7009792  77.1606293  26.0210838  14.0259972  76.2402267
  17.0131264  38.1171417  54.9958076  16.1621189  38.5131073  55.1835098
  17.0701466  38.1136322  54.0403137  43.5224342  38.4818726  71.3685608
  44.3485413  38.4703979  70.8851852  42.8651314  38.7176590  70.7138901
  24.9352856  52.6154327  38.0274239  24.5892181  53.1438141  38.7466431
  24.6901264  53.0966721  37.2371483  35.7098236   8.4663191  44.5254173
  35.3679085   7.9199719  43.8177261  35.4121132   9.3503485  44.3107300
  24.3936749  62.5781441  53.4895554  23.5405807  62.2577171  53.1966591
  24.2206917  62.9729462  54.3442154  40.6483765   1.8197470  85.1262894
  40.9060631   0.8986650  85.0883636  39.7603493   1.8349100  84.7693481
  48.7141380  48.3581963  74.4816742  49.6575851  48.5163307  74.5153656
  48.5916939  47.5373230  74.9585419  79.2923508  55.4988213   3.7944300
  80.0215530  55.6810455   4.3871236  79.2000885  56.2978210   3.2754719
   0.5321104  14.0531559  37.5099792  -0.1057532  14.0428410  36.7963562
   1.1058460  13.3085957  37.3291740  14.9094067  21.3419018  19.0119133
  15.6336422  21.7606583  18.5467701  14.8401012  21.8273773  19.8339481
  39.5538597  59.7761154   8.7435102  40.3608742  59.9932022   8.2767820
  39.2548943  58.9617386   8.3389921  29.1842213  61.0538712  17.6046391
  28.5575142  61.5897636  17.1185436  29.4393387  60.3663673  16.9894295
  14.4633608  53.0331039  35.3637238  13.5523243  52.8681526  35.6066971
  14.7988605  53.5967903  36.0608063  10.2192678  53.3174095  29.2241516
   9.6332979  52.5653725  29.3096466  10.0369320  53.6650887  28.3511658
  46.3645439  60.8262405  77.1430511  46.5746994  60.7085876  78.0694580
  46.3284950  61.7753601  77.0242920  83.9836884  31.4017277  46.3943329
  83.3226089  31.6588116  47.0370712  83.8741226  32.0245934  45.6758156
  22.2328110  59.1710320  11.2176514  21.7719402  59.7925529  11.7811584
  23.0920868  59.5681381  11.0755854  84.2089615  19.0253143  87.7597885
  85.0761642  19.2472687  88.0988007  83.7191696  18.7323551  88.5282364
  66.5209961  49.9837761  15.9952850  66.2462997  49.4284439  16.7249279
  66.1352539  49.5717010  15.2222195  31.8735771  17.1019154  54.5606194
  32.7304497  16.7943687  54.8562813  31.2464046  16.6048603  55.0858078
  50.5390816   3.9184401  66.7268295  51.1861839   3.3854125  67.1887512
  51.0007973   4.2369113  65.9511871   1.1803199  49.8087845  80.5558090
   1.2273796  49.6186104  81.4927521   1.8880439  49.2920303  80.1706848
  32.4204178  59.3979301  73.4552536  33.3551979  59.2716637  73.2925491
  32.0010681  59.1825409  72.6221924  56.8919716  56.4940605  52.8078499
  57.3940659  55.7495880  53.1393547  56.5498276  56.9209976  53.5932770
  63.0988350  30.1514664  41.0802650  63.1351624  30.0469608  42.0310478
  64.0017624  30.0214710  40.7903481  61.6547737  48.1668205  69.1822052
  61.6891441  47.9742355  70.1192017  61.8294945  47.3265228  68.7584152
   1.4440246  51.6283073  42.1253624   1.4480307  50.6731606  42.0628815
   2.1620827  51.9084740  41.5577965  35.0606194  19.1151047  85.1846085
  35.7478104  18.8082123  85.7760544  34.5947914  18.3200073  84.9256516
  36.7492447  16.8396301  35.5509872  36.1058617  16.1659584  35.7711105
  36.4959831  17.5951271  36.0813789  35.7643967  69.6205444  54.8030167
  34.8540764  69.6515503  55.0972748  35.9801331  70.5297318  54.5954933
  13.8921967  59.5410156  10.1003590  13.9477196  60.3167877  10.6583252
  13.0080585  59.2042465  10.2456808  55.9835052  48.7557030  88.7289200
  56.5554619  48.9572067  87.9883194  56.1780853  49.4357872  89.3737869
   4.7400560  56.2730522  86.2000046   4.6700811  56.6302338  87.0853043
   5.2478809  55.4685898  86.3057480  33.3381424   0.5136783  54.0067253
  32.8246040  -0.2320556  53.6962624  33.1370811   0.5706773  54.9408340
  29.8738499  64.5972595   9.1737986  30.4556408  65.0026550   8.5308313
  29.9388523  63.6586990   8.9974136  40.0840263  59.6643257  44.3198318
  40.2380028  59.4748001  43.3943024  40.3269348  58.8570862  44.7732544
  75.2611008  63.7622032  78.8630829  75.2099991  62.8876610  79.2488174
  74.9823914  64.3502579  79.5650406  80.2418060  38.3626747  66.6918945
  80.2037506  38.6904297  65.7933578  81.0700302  37.8849945  66.7377243
  30.5371952  49.5808678  38.6315346  31.0214424  49.2224617  37.8877029
  31.1256256  49.4667244  39.3778267  86.2113571  70.0758591  62.1341820
  86.5120544  70.9475479  61.8773193  86.7109833  69.8735886  62.9251862
  71.8502121  18.3342800  77.4946442  70.9516907  18.1326332  77.7558441
  72.3619995  17.5847549  77.7988205  56.7800827  17.0811634  83.2631226
  56.7004433  16.2408733  83.7145691  57.5622063  17.4830399  83.6412888
  72.6412201  32.6755638  17.8668156  72.8610077  33.5836411  17.6586914
  72.8504105  32.5855446  18.7965279   3.0665891   8.0870657   4.6441150
   3.1724682   8.9304552   5.0842481   3.9521577   7.7262435   4.6016054
  24.9715195   5.3457932  36.3790169  25.7199154   5.4297400  35.7881813
  24.2246838   5.1949329  35.7996140  72.9559555  35.0214539  87.0681229
  72.9815445  35.9772949  87.1122971  73.1176605  34.8198700  86.1464691
  65.9455261  36.0266418  84.7473145  66.0739822  36.1192627  83.8033066
  65.4756393  35.1984482  84.8449783  31.4743614  67.0023956  13.0535078
  30.8590984  67.7356567  13.0575647  31.7031250  66.8765945  13.9744158
  20.3150444   8.0782681  60.2841415  20.9841175   8.6986742  59.9948845
  19.4894485   8.5519943  60.1831245  39.8267059  17.6742306  43.5904770
  40.2696419  18.3370571  43.0606651  40.4856758  17.3966351  44.2268219
   9.1834326   3.9270737  68.6176682   8.3120403   4.1917424  68.3229523
   9.7738590   4.2433047  67.9338303  79.1042938  63.5276299  19.4083290
  79.2460556  62.6934891  19.8559246  78.2175598  63.7864265  19.6592636
  26.8237038  23.2233677  88.2017212  26.0461159  22.6886787  88.0414200
  27.5286922  22.7635555  87.7458801  54.1083565   3.8191535  48.6554337
  54.7560425   3.3498197  49.1812325  54.5627823   4.6102514  48.3657875
  61.1436615  35.2731628  31.1279545  60.3951836  34.7614479  31.4348068
  61.6913910  35.3858795  31.9048195  82.4646301  31.8381977  19.7757797
  82.2460175  32.6193504  19.2676067  81.6524353  31.3321819  19.7984924
  50.6203461  43.6617622  20.3572826  49.8991928  44.2336731  20.6201363
  50.9045181  43.2452698  21.1709232  42.0090599   7.5067639  60.5122986
  42.5718460   6.7353482  60.5788002  42.5890274   8.2436323  60.7043800
  57.3510590   8.7900152  52.0978012  58.1346436   9.2221670  51.7579956
  56.6856041   8.9377165  51.4258003  45.2487869  18.3022289  24.5798836
  44.8828316  18.8570423  25.2687149  45.4079094  17.4614334  25.0088062
   1.7240644   2.2883408  67.2948761   2.3105428   3.0319607  67.1559296
   2.3076031   1.5587246  67.5031357  24.1309261  60.7902985  20.7806435
  24.0541744  60.4456062  19.8909645  25.0730095  60.8118706  20.9487019
  42.8088570   6.9656539  66.5760117  42.2868843   7.2358241  67.3315125
  42.2307510   6.3854637  66.0806274  80.4668808  54.0248184  20.1770535
  81.3899994  53.7716866  20.1762810  80.0133972  53.2755814  20.5633583
   0.9477956   2.9985669  43.7564011   0.0759232   3.2173388  43.4274483
   1.0540012   3.5448785  44.5351791  84.1955490  53.9763374  33.9520721
  84.7815781  54.7328835  33.9309158  84.7556381  53.2468681  34.2174034
  39.6657829  50.9616432   9.8472290  39.2415276  50.1223183  10.0254679
  39.1937714  51.5895386  10.3942099  21.1183815  62.3853264  88.8560715
  21.0058632  61.4363136  88.8017578  20.2265148  62.7301559  88.8996353
  39.4945488  67.3332062  36.1065292  40.0241470  66.7241592  35.5919266
  40.1307297  67.9307251  36.4995689  67.4870071  38.8725891  74.1433182
  67.4801941  39.7054214  73.6715469  68.2418900  38.4027214  73.7889099
  46.0649147   7.4350166  25.2735748  45.8840828   7.3205991  24.3406010
  46.2210426   6.5480437  25.5978222  81.9233017  13.6088867  52.7122574
  81.3585052  13.0237312  52.2074509  82.5416107  13.0249481  53.1515121
  23.9535999  49.5453110  49.8643951  23.3134499  49.2127533  50.4935570
  23.9546375  48.8982391  49.1590347  77.1789246  33.8107147  57.4017639
  77.9950256  33.4933128  57.0151482  77.3801498  34.7016525  57.6880684
  28.3948479  57.2908592  26.1953430  27.4692421  57.5260315  26.1306858
  28.8399544  57.9082947  25.6149273  38.3383179  70.4149857  56.0283012
  37.6519508  70.3204346  55.3678551  38.1695595  71.2678757  56.4287148
  57.7098618  57.3056221  10.0442047  57.9738312  58.1123276  10.4866724
  58.0241928  56.6050835  10.6157589  78.9480896  66.4506378  26.0338001
  78.5637894  67.2411194  25.6547432  78.9165039  65.8061981  25.3267384
  75.7830963  41.7133102  59.8538208  76.5809937  41.4444466  60.3091278
  75.9953232  42.5705452  59.4845772  18.3283443   0.1115395  59.5951347
  18.4772243   0.0125578  60.5354919  18.7803726   0.9233521  59.3652191
   2.4471948   2.8015904  34.2334328   3.0921879   3.4239841  33.8975143
   1.6430817   3.0098088  33.7577438  85.1998291   3.4695177   8.3382912
  85.5542145   3.1673443   7.5020289  85.8958740   4.0098681   8.7121553
   2.1706383  64.7272644   6.1793275   2.1574538  64.0164032   6.8202138
   2.9775610  64.5879288   5.6836534  52.1931000  67.3295364   3.7257028
  52.1773529  68.2758865   3.5828757  51.6890068  66.9688110   2.9963212
  15.8791018  59.0888062  54.1393394  16.2192822  59.5960159  53.4022865
  14.9396906  59.0196037  53.9691925  16.9738560  69.3994598  69.1204376
  16.4455242  68.6652145  68.8074112  17.8510704  69.0329819  69.2318802
  64.1320496  16.4113731  39.0495758  63.2607574  16.0863571  38.8227654
  64.7273026  15.9097538  38.4925423  32.4126053   3.5056193  45.6168900
  32.6230888   2.6353056  45.2785378  33.2607498   3.9411039  45.7019348
   3.3776088  25.4050713  88.6836395   2.7404850  24.9079285  88.1706543
   2.9883862  26.2752190  88.7706909   3.0130286  28.1822472  68.2037659
   2.0980642  28.4605045  68.1632233   3.4972398  28.9809933  68.4129944
  11.9408684   0.4779530  79.2410965  11.4058933  -0.2674955  78.9684448
  12.5185347   0.6434524  78.4960175  22.1970901   0.4285011  35.0227623
  23.0652847   0.2336680  34.6698990  22.2251244   0.1015697  35.9219666
   5.5929317  47.3026810  82.6771622   5.0083508  46.5550995  82.5522003
   6.3787026  47.0782204  82.1787491  24.5226803  65.7467880  22.3770103
  24.4010315  65.8634567  23.3192539  24.9251347  66.5644913  22.0844059
  20.1865044  61.6208191  53.2445869  21.1162357  61.4044952  53.3155518
  19.8526840  61.5389595  54.1379471  53.4976234  48.6684151  43.7303276
  54.3832359  48.3879852  43.4994926  53.4497223  48.5534554  44.6793900
  46.3297386  47.7881737  87.7889786  45.6191292  47.1468811  87.7858124
  46.7605629  47.6641006  88.6346893   3.8572381  67.9120789   6.3525372
   4.0476456  67.9451370   7.2900252   3.2582071  68.6437149   6.2038569
  54.8533249  12.0259361  72.9392929  54.7298508  11.3765173  73.6315689
  55.2053642  11.5265665  72.2024536  34.3244667  12.4067678   4.3915706
  33.5714607  12.5242081   4.9707265  34.0754852  12.8521128   3.5816894
  13.0935669  21.4745140  64.7787094  12.3027239  22.0045605  64.6794586
  12.9983234  20.7781906  64.1288681  72.5864334  64.6901855  -0.0062512
  72.3600845  64.0680542  -0.6975963  72.6061935  64.1635437   0.7928052
  43.2495461   3.8755629   2.0392947  43.1612320   2.9400301   1.8570561
  43.6235161   4.2414603   1.2377343  31.3334293  50.2641716  73.5179214
  31.8787937  50.6688728  72.8433685  30.9565125  49.4946175  73.0913696
  27.2723675  29.7257156  73.0290833  27.2087536  30.0419636  73.9302902
  28.1720982  29.4089127  72.9493713  32.3528557  19.4886093  21.9497108
  33.0316658  19.6362286  21.2911854  31.6505527  19.0446701  21.4743996
  28.1935024  10.6534271  40.6654854  28.6890068  10.1031923  40.0588951
  27.7384224  10.0328026  41.2346573  61.1117668   9.5000925  54.5594635
  62.0295296   9.4375801  54.8241005  61.1109505  10.1393127  53.8469810
  61.2089081  59.4303322  65.3762665  61.9144287  60.0756073  65.4219742
  61.6130905  58.6125755  65.6663361  52.9313202   9.6371784  10.3648329
  53.0100746   9.3255396   9.4632168  53.7750244  10.0494900  10.5502930
  64.4453354  48.1576462  52.7072487  64.0160141  48.9989014  52.5516853
  63.9885292  47.5453453  52.1304970  61.5579262  38.0620766  40.5488358
  61.8744278  37.6843300  39.7282486  61.1075821  37.3399391  40.9869499
  11.2614956  45.3809776  47.9728737  11.2400007  44.8991814  47.1460457
  10.3553486  45.3683777  48.2810478  22.3565254  31.1540680  14.8820171
  22.0997963  30.2350826  14.8059216  23.1656799  31.2194881  14.3748484
  17.9268742  52.6732674  23.1704578  16.9952736  52.4575081  23.2128811
  18.3561153  51.8423691  22.9665070  10.5245199  58.2431870  83.9854431
  10.3353043  57.3946648  84.3859863  10.8012362  58.0308838  83.0940475
  20.7101250  65.8671341  46.5919838  21.1814747  66.1080399  45.7944679
  19.8974915  66.3713303  46.5514679  65.5686874  57.2155762  69.1905289
  66.1772156  57.9257088  68.9864731  65.2911377  56.8850708  68.3361511
  86.5738525   3.9735928  29.6773243  87.5165558   3.8254445  29.6025906
  86.1777267   3.1679232  29.3453388  26.7096596   7.7192879  44.5817986
  26.0407391   8.3715439  44.7899818  26.2783852   6.8778796  44.7310219
  12.0893211  31.6781082  31.0176926  12.1694603  31.3390732  30.1261406
  11.6087551  32.5000343  30.9190865  35.3688431  53.0535736  61.9728508
  34.5205154  53.1328964  62.4090691  35.2825165  52.2764435  61.4207153
  67.3564224  42.4521675  86.9186630  67.3917999  41.5096321  87.0817795
  68.0086212  42.6014214  86.2341309   2.7344108  69.9303131  13.5086203
   2.2249062  70.0611877  14.3083134   2.0792158  69.8811951  12.8125324
  76.0345459   8.2411623  26.6882992  76.7878189   8.1265707  26.1089191
  76.3515396   7.9698977  27.5497875  77.6295776  39.0169106  36.1369247
  77.7641220  39.8945732  35.7793770  78.0883789  38.4375343  35.5286026
  15.7184973  55.0752869  71.5798035  16.3067017  55.5190506  70.9688110
  15.2415447  55.7844315  72.0109177  68.3025665  47.1788826   9.4242134
  68.8968277  47.8241348   9.0411501  67.4338455  47.5708542   9.3352890
  68.2836304   1.7122657  73.9909515  67.5401077   2.2609329  74.2407074
  68.2704315   0.9904352  74.6194611  39.9853630  62.1933708   9.9785547
  40.7053337  61.8083649  10.4781952  39.5482674  61.4447403   9.5726795
  14.0514917   6.6248088   6.2687092  13.7898064   7.0166540   5.4355168
  14.7233982   5.9854269   6.0321412  72.2389908  23.7264957   0.4883944
  71.5721512  23.4581356  -0.1436957  73.0432281  23.3090515   0.1798780
   4.8812509  39.8840218  64.4142380   4.6824517  40.6924324  63.9418144
   4.3852830  39.9550896  65.2298355  77.4627228  42.3064957  29.6052170
  77.7486343  42.0584412  28.7260361  78.0754242  42.9918709  29.8718586
  72.8409424  28.3263721  70.1186142  73.4514999  28.0920944  69.4196396
  73.2715912  29.0447216  70.5820160  31.5878239  16.2185535  22.8384151
  30.6930828  16.5518780  22.9059772  31.7522793  16.1629963  21.8970871
   2.5867093  41.9442368  10.2158136   3.0171485  42.3825607  10.9498606
   3.2252266  41.9863091   9.5039454  81.3376312  53.7352600  46.8986130
  81.9420013  53.0013885  46.7872620  80.8718033  53.5406418  47.7118530
   2.6342094  60.9020004  66.6309204   3.0775857  60.0881462  66.3915558
   2.4059696  60.7880135  67.5534973  37.8990173  18.6289959  76.5925674
  38.5414734  18.6146431  75.8831482  37.2342529  17.9937267  76.3265686
  27.1983719  26.3412762  10.5336819  26.5456333  26.8498936  10.0525665
  27.9728699  26.9034004  10.5536814  38.3661232  63.1992683  48.8052025
  38.4160309  63.2827568  47.8529587  38.9714394  63.8629570  49.1358757
  68.1491318   2.4957376  41.0060272  67.2514343   2.3618400  40.7019730
  68.2533875   3.4468496  41.0333824  72.0779266   4.2732449  49.3023605
  71.1582108   4.2710552  49.5675964  72.1880035   5.0964446  48.8264847
  14.8542376  54.3271599  38.2612267  14.8718824  54.8923912  39.0335159
  15.6581287  53.8113022  38.3235512  61.3022881  50.1729202  32.9041443
  61.1635780  51.1130791  32.7897263  60.7647095  49.9419479  33.6617050
  42.8693047  47.6629524  16.6609592  42.3992882  48.4616470  16.9005508
  43.7738571  47.9474335  16.5302372  65.4173126  63.8923225   4.3352461
  65.3646927  63.0169868   3.9515219  66.2265625  63.8815269   4.8463578
  76.3777924  21.8173485  40.7342110  76.2594223  22.5374756  41.3535957
  75.5711060  21.3067780  40.8035164  52.3033676  23.0064793  28.3179932
  52.2828712  23.5852203  29.0801411  52.7634544  23.5105247  27.6468086
  66.9579010  55.8820267  13.9769974  66.3411713  55.7380943  13.2592525
  67.1501846  56.8191071  13.9432735   3.2305951  15.0412493  65.0116119
   2.7907681  15.0200720  64.1617126   3.2936432  14.1222038  65.2716370
  61.8441544  68.8740768  36.7698441  62.5046425  69.5616074  36.6844940
  61.0134277  69.3172760  36.5974960  14.4188108  20.3485527  86.2874146
  15.2383137  19.8589993  86.2168121  14.6259460  21.0796490  86.8695068
  40.0628242  19.5308857   7.1050858  40.2466316  19.6262379   8.0396204
  39.7649612  20.3979321   6.8298826  21.9850826  12.9952335   8.0736113
  21.1695652  12.5924139   7.7754483  22.3166065  12.3973160   8.7435493
   5.3383174  67.1346207  80.8892822   4.8082576  67.9296875  80.8332825
   4.9967504  66.5697250  80.1961288  82.0563354  28.5848484  80.5945740
  81.1541519  28.8981571  80.6588364  82.0291901  27.9150944  79.9112549
  58.1411018   8.7653103  12.2637253  58.3671417   8.3200130  13.0803337
  57.2809448   9.1504707  12.4311028  16.8368664  10.7888088  18.8969612
  15.9048815  10.6788235  19.0854816  16.9189777  11.7010794  18.6190205
  55.4849548   2.4655888  36.3388176  55.7026863   1.5611510  36.5642471
  55.2647820   2.4340200  35.4078178  67.9146805  56.0542183  88.1967850
  68.8022003  56.3965683  88.0903015  67.6474075  55.8024864  87.3128052
  31.8810349  47.9643517  16.2280502  31.1181240  48.4351463  15.8925648
  31.7771263  47.9868813  17.1793270  35.2131653  57.4719543   0.9623700
  34.5167427  57.1811028   0.3736123  35.8187370  56.7316818   1.0011612
  60.0598793  57.2831383  30.4315262  60.9589844  57.2847786  30.7599144
  59.7992134  56.3623352  30.4516678  63.0912704  67.2285843  81.8495483
  63.5819931  68.0399628  81.9802704  62.5957451  67.1150513  82.6605911
  17.0463543  28.0765495  84.8720474  16.3052597  28.2494202  85.4526749
  17.3509903  28.9445858  84.6075821  22.7033501  14.9024944  17.2393684
  23.2765312  14.6033506  17.9452076  22.6037121  14.1383266  16.6716099
  38.1591988  56.1573372  43.1336861  38.8337440  56.1865578  42.4551849
  37.4421692  56.6846123  42.7814369  69.3431625  44.4491158  53.1714249
  69.8044662  45.1958580  52.7895775  70.0218582  43.7852592  53.2934952
  67.8784714   0.5920792  84.2797775  67.7161331  -0.0271886  84.9913864
  67.0171738   0.9590579  84.0804825  76.1699524  55.9391289  84.6281662
  76.1341629  55.4020729  85.4197006  75.3036804  55.8412132  84.2329254
  30.3263588  20.1408348  73.9901123  29.7910938  19.9830723  73.2124023
  29.7175808  20.0474243  74.7228470  33.4318047  36.5656853  78.5951843
  33.5737190  36.9903603  79.4412003  33.4211426  37.2857056  77.9645615
  24.0110683  70.5863495  16.4941330  23.1588917  70.6189423  16.9288330
  23.8518867  70.9586105  15.6267700  38.7420692  42.9497414  71.8997192
  37.8974686  42.9780426  72.3492508  38.9166222  42.0167007  71.7764206
  47.7941513  22.8536644  11.1366081  47.5107536  21.9424419  11.0618124
  48.1061592  23.0801392  10.2604856  73.6345291  69.3162537  30.7080994
  73.4301910  68.9136887  29.8640518  72.8909760  69.8925552  30.8848629
  56.2971916  24.3486137  27.5864296  56.5055084  23.5094204  27.9970245
  55.5693054  24.6939964  28.1032734  53.2114563  63.9166908  25.4409580
  53.4864082  63.4825783  26.2485352  52.3070717  64.1822281  25.6077213
  52.1442604  21.1777611   1.1218853  51.9007034  21.4089737   0.2255299
  52.3411522  20.2418480   1.0827389  37.1657295  12.7010508  11.1213055
  37.5779877  12.6386576  10.2596874  37.7972450  13.1837807  11.6545897
  57.7584610  54.2902451  54.2058372  58.2876434  53.8170242  53.5637627
  57.8738403  53.7996178  55.0195961  46.3814812  41.5319939   5.7139821
  45.6366501  41.2543831   6.2472653  46.9869728  41.9321480   6.3380713
  70.5053558  31.1528149  18.9975986  70.0033951  31.9661083  19.0507221
  71.2957611  31.3904247  18.5127983  20.5056496  67.5725021  82.8885422
  21.3120327  67.1697388  83.2106552  20.4553795  67.3067474  81.9703445
  63.6648941  69.2054749  21.9732800  64.4521255  68.6860962  21.8097134
  63.5188828  69.6827927  21.1565304  58.2299500  67.4724350  68.2336349
  57.5660667  66.8075485  68.4164200  58.2183800  67.5669556  67.2811813
  51.9862213  18.3988609   9.2286043  51.1088905  18.7465153   9.0684366
  52.3516159  18.2590389   8.3550091  41.4033470   6.2172709  26.2084351
  41.1389999   5.6270480  26.9141178  41.0728035   5.8015962  25.4120750
   3.8219724  69.9928131  29.9968605   3.5920050  70.5530930  30.7380943
   4.5336127  69.4426727  30.3241920  46.5776863   2.6056583  52.2871857
  46.9085655   2.2016852  53.0894051  46.1330681   1.8941150  51.8264771
  75.2857742  68.0947418  59.2760620  74.4756393  68.0216064  58.7715187
  75.9542313  68.3105774  58.6258278  72.3600922  31.3611813  24.4000587
  72.6549072  32.1546974  23.9532413  72.9644470  30.6807251  24.1034718
  82.5768280  48.7646065   4.1154428  83.2164383  48.5843391   3.4265082
  81.9104614  49.3031502   3.6886435  73.5779343  54.2721596  62.3674393
  73.9367447  55.1583252  62.3205261  72.8920135  54.2558479  61.7000008
  38.1513176  59.6048164   0.7464004  37.3078423  59.3925934   1.1460755
  38.7672577  58.9912338   1.1468629  61.0286102  63.5636520  54.9438286
  60.6529999  63.6891937  54.0724030  61.0075264  64.4341202  55.3414116
  37.6102180   1.9102567  84.8615341  36.7220345   1.7041188  84.5702133
  37.8343086   1.2026750  85.4659729  13.6734285  57.6919212  16.5177975
  13.9315672  58.2558136  15.7886734  13.2553482  58.2845154  17.1425152
  82.3771133  18.3445721  26.7671604  82.3161392  17.3954239  26.6593018
  82.4899750  18.6799335  25.8777637  25.1529140  46.9006042  75.6338501
  25.4224949  47.4733849  76.3518219  24.7224655  46.1623802  76.0650940
   0.6291918  42.0291557  25.5984230   0.0585123  41.9883423  26.3658161
   1.2404816  42.7398338  25.7920589  12.7021837  69.1655045  30.2223530
  12.1460543  68.8170013  29.5255756  13.3366785  69.7196198  29.7678146
  33.0148354  24.2445412  82.4976044  32.2688522  24.0084496  83.0489655
  33.3930931  25.0140419  82.9230728  47.7153473  22.1617203  21.8873081
  46.8521004  21.8944550  22.2029152  48.3117752  21.4947796  22.2274513
  58.0360451  58.9297104   3.0891871  58.3661919  59.7891502   3.3510973
  58.2113876  58.8819962   2.1493945  11.2072964  56.2085648  73.8468094
  10.6061954  55.5230370  74.1382828  11.7495651  56.3935394  74.6135941
  51.4295273  45.1638908  65.3520508  51.3729324  44.2314148  65.5606766
  51.1093445  45.2278786  64.4522629  28.5848999  62.8472595  32.0763130
  29.4088326  63.2285461  31.7730217  28.8334846  62.3032646  32.8236427
  68.0458679  25.0074558  65.2830963  68.4195099  25.8820839  65.3910065
  68.0984344  24.8389435  64.3423157  83.3701782  22.2328949  80.4959488
  83.5909348  23.0167007  80.9990845  84.0291595  21.5886841  80.7547226
  80.1737061  57.8100586  80.7382278  79.4339523  58.3854256  80.9330597
  79.9220734  56.9632683  81.1068192  17.2134647  52.1168060  37.2649994
  17.6451588  52.3986893  36.4585152  17.9312057  51.8579445  37.8429871
  29.6105919  11.5621338  47.4883194  29.5900650  11.4802532  46.5348511
  30.1909561  12.3054190  47.6524467  33.5928993  59.3738213  46.2887802
  32.8527260  58.7683372  46.3307838  33.3758469  60.0614662  46.9182777
  57.4923897  47.8899612  76.9250488  57.6213150  48.6725426  76.3891602
  57.3423119  47.1880722  76.2917557  62.6482353  49.3226700  88.9015884
  62.3158531  48.9590378  88.0809021  62.5041466  48.6299286  89.5462418
  25.3070183  16.0267220  28.3793850  25.8332691  15.3135052  28.7407894
  25.9358559  16.5734940  27.9083881  55.8227196  69.7194290  16.6239014
  55.7331467  69.0859680  17.3358955  55.7664299  70.5727158  17.0539837
  45.7913132  31.1449089  83.3331375  45.8977623  31.9760666  83.7958221
  44.8584518  31.1059628  83.1222153   5.9535780  69.8937912  25.9047871
   5.9929876  69.6787415  24.9728909   6.3325000  70.7707672  25.9644508
  53.3644485  13.6991749  26.0617332  53.0153160  13.7149382  25.1706161
  53.6748810  12.8016682  26.1815052  22.6031132  22.0444469  77.0546799
  22.3130493  21.4670868  77.7609024  22.0295086  22.8080597  77.1187363
  57.1280899  28.7986183  69.4200363  57.4810066  28.4273529  70.2286453
  57.1706238  29.7456188  69.5527573  69.7544861  20.7712479  48.6780014
  69.1928940  21.3871994  48.2074203  70.5810089  21.2402287  48.7926750
  25.9902515  30.1285782  19.0649395  26.0752754  29.3444290  18.5226192
  26.7759914  30.1280651  19.6116085  75.5306473  41.3769150   6.6894026
  76.2177887  40.7679443   6.9599981  74.7940216  40.8151550   6.4484873
  63.9737511   1.2637213  23.1167374  64.4556656   0.4370565  23.0919514
  64.5106125   1.8376393  23.6632080  36.7254753  36.6144028   2.7956440
  36.5614510  36.4225006   1.8723346  36.2649612  35.9219780   3.2696736
  71.0162201  39.7389984  51.5425568  71.4488068  39.0099640  51.0980186
  70.5823746  40.2240524  50.8406143  83.8218460  21.9127789  25.9782696
  83.5231934  22.1736050  25.1070595  84.7660904  21.7897034  25.8808842
  71.7415466   5.7482834  69.6307831  71.0958557   5.1955066  70.0709534
  72.2080612   5.1518402  69.0452499  50.9595757  19.3749828   4.8624034
  51.8294640  19.1900787   4.5083709  51.1284218  19.7847462   5.7108235
  36.9063454  23.6034603   3.5559931  36.8272057  23.7257786   4.5020413
  37.7786255  23.2282867   3.4351335  23.4511490  63.5823517  68.3040390
  23.2611141  64.0669708  69.1073151  23.0167599  64.0832672  67.6136627
   1.7139175  29.6054554  76.8130875   1.4970485  29.5391903  75.8831406
   2.0455356  28.7377625  77.0441132  83.7930832  26.3874779  26.9906712
  84.4363022  26.0795403  26.3521767  83.0805893  25.7503357  26.9392605
  73.6317215  62.9090843  11.0618286  73.3685226  63.7138710  10.6154280
  73.2756348  62.9981079  11.9458561  30.4139233  63.6096725  39.8033409
  31.3329964  63.8685646  39.7361488  30.0669365  63.7264023  38.9189186
   3.4466808  65.8375168  35.8308182   2.9746096  66.5163116  35.3485107
   4.3312383  66.1883774  35.9341774  13.5340805   2.2474241  80.3913116
  13.8236771   2.6814773  79.5888367  12.9938402   1.5179935  80.0874939
  45.1416855  52.1399727   5.9449363  44.5559654  51.7117386   5.3206143
  45.5054131  52.8820229   5.4619260   8.3345852  10.2669334  65.7126465
   8.3950891  11.0199575  66.3004684   8.0916910  10.6425781  64.8664093
  64.5831985  38.3581810  75.0297928  65.5031204  38.3646278  74.7653275
  64.4470978  39.2102966  75.4440460   1.9629141   7.5452371  80.0296326
   1.2768880   7.6448550  80.6896896   2.6261773   8.1905832  80.2742538
  31.5121708  61.1535759  62.5271835  31.7022915  61.8119087  61.8588409
  32.2103806  60.5059166  62.4308701  86.0804825  43.3379173  20.7926769
  86.2003479  42.9921875  21.6771755  86.3662567  44.2495918  20.8511047
  83.1128998  34.1140060   2.0170622  83.0574417  33.2256432   2.3691514
  83.9365997  34.1274834   1.5296611  82.0177612  24.3560333  27.0614834
  82.4800110  23.5189037  27.1035404  81.1290054  24.1255455  26.7908745
  30.4681396   5.9306288  38.2194786  30.7246456   6.8518305  38.1767654
  29.5134792   5.9506741  38.2861977  37.9689713  52.3688736  11.4962149
  37.9089127  53.3191986  11.3986864  37.1083260  52.1067772  11.8230553
  72.5223160  20.9809875  78.2002106  72.3336487  20.0562439  78.0405655
  73.3823242  21.1217976  77.8042526  72.0766296  36.0029297  40.5168686
  72.7818756  36.0472603  39.8712006  71.6244659  35.1821404  40.3217087
  17.7762165  36.3541908  80.5233383  16.9732361  36.2696838  81.0374527
  17.5653877  35.9499817  79.6816788  73.5707321  47.1031036  77.7378922
  73.5956650  48.0594177  77.7707214  73.8038559  46.8268700  78.6242218
  61.5991669  27.9910126  84.3676987  61.2261772  27.9235630  83.4887466
  62.4894714  27.6514130  84.2767868  72.1389313  10.4992857  13.8965530
  72.6384888  10.6830940  14.6920948  72.6711731   9.8610163  13.4216194
  75.4081345  33.1691360   3.5103748  75.4132767  32.6484985   2.7071681
  74.6559677  32.8414230   4.0034122  64.3856659  54.5750542   9.2975321
  63.5268135  54.2104073   9.5111475  64.3004379  54.8742065   8.3922834
  20.5699062  55.6315765  51.9973793  21.3941212  55.2143211  51.7467766
  19.9517460  54.9062424  52.0868187  66.1168976   8.3199482  79.9516296
  66.9720993   8.2809916  80.3798218  66.1451797   7.6228147  79.2963104
  56.4200363   9.2323809   6.9132924  56.6549416   8.3064051   6.9734449
  57.1805878   9.6464128   6.5054049  65.2383270  11.8699102  76.2990494
  65.0121918  12.6009331  75.7239838  66.1510010  11.6728296  76.0882874
  62.2200737  68.5090179  63.1877213  62.4620285  69.1518250  62.5210190
  62.0230713  67.7135315  62.6931229   6.0687003  37.3266563   6.2668810
   6.5052242  38.0202255   6.7614918   5.6739211  36.7674370   6.9359498
  18.7238312  21.5710659  16.4649563  18.8500824  22.2531738  15.8053970
  18.0966969  20.9668522  16.0676384  62.1529045  12.5329590  45.7537994
  62.5380554  13.2797508  45.2953339  62.5850945  11.7688398  45.3722725
  82.6278000   1.8931742  34.5433655  82.8038635   2.2449982  33.6707497
  82.7465820   0.9480711  34.4490089  33.6447601  47.8529205  33.6636353
  33.5662689  48.3634872  32.8577881  32.7963791  47.9544716  34.0951042
  18.9733562   5.3460975  47.4966240  19.2523899   5.9765053  46.8325768
  19.7434101   4.7970343  47.6441994  69.9041138  10.6272039  12.3722858
  70.6928253  10.7289171  12.9050331  69.7270966   9.6865826  12.3835983
   1.0110996  11.9502516   6.4891295   0.1650277  12.1564627   6.0917993
   0.8060249  11.7614899   7.4048510  72.2218399  24.5361691  12.1408520
  72.2616425  24.9458504  13.0050335  71.7592545  23.7111855  12.2879629
  78.1621170  23.9791908  30.8535175  79.0528259  24.1337337  30.5388947
  77.6070709  24.1421795  30.0908966  41.9747276   6.6830931  46.7195015
  41.8237343   7.2405934  47.4827995  42.9138870   6.7578506  46.5503235
  69.8789749  55.6624146  39.6655922  70.6614227  55.9203568  39.1782837
  69.2187500  56.3100319  39.4187584   7.0151553  21.5956593  71.1648026
   7.0217013  20.9293518  70.4776230   7.8288770  22.0824986  71.0341339
  50.4156380  70.0222931   8.9224434  50.3081856  70.8016205   8.3771667
  50.5372887  69.3075867   8.2974358  74.8515854  39.9303284  55.0333138
  74.2960205  39.1514511  55.0028305  75.7427292  39.5865784  55.0960426
  59.1015854  48.6862144  73.0247650  59.8882904  49.2049866  72.8568268
  59.0053024  48.6985741  73.9770355  39.6072617  64.5458298   2.5845571
  40.3847427  64.9428711   2.1919787  39.8675385  63.6439438   2.7718756
  14.0500755   2.3782423  25.0642776  14.0429516   3.2090278  24.5889072
  13.1961355   1.9881506  24.8776035  56.6582909  67.7742920  37.4520035
  56.4687347  66.9874344  36.9409676  56.5115433  67.5109711  38.3604965
  19.1962948  10.2983274  71.5544815  20.0569878  10.7113676  71.4849472
  18.9563904  10.0911217  70.6512985  74.3571548  35.5262222  77.9796600
  73.5008621  35.7690659  77.6274796  74.2846756  35.6901970  78.9199219
  61.1047974  39.0512924  62.6741142  61.0964622  38.2990074  62.0823097
  61.5315552  39.7459145  62.1725082  58.6669159  20.6335869  45.6481552
  58.2483902  19.7878361  45.8086967  58.7870331  21.0106621  46.5197144
  28.7290306  58.0897903  42.4928017  28.8976269  57.9687080  43.4272232
  27.8113670  58.3583069  42.4478188  45.2651978  62.0340385  68.6629944
  45.6246681  61.4652672  67.9821777  44.3999062  61.6689148  68.8478928
  30.5631886   3.2877960  50.6602211  31.4356365   3.4491532  50.3010139
  29.9689522   3.4478910  49.9270859  76.0772858   5.4270988  83.2550812
  76.9525986   5.2136097  83.5783157  75.6995239   5.9834647  83.9362411
  13.8846025  37.3824997   9.2714796  14.0181179  36.4402580   9.1685972
  12.9849892  37.4637566   9.5882225   2.8471298  25.3047943  24.3664894
   2.4793024  26.1829529  24.2676296   3.0928345  25.0466309  23.4781132
  61.6374054  11.4451008  13.6898117  61.4640045  10.5774364  13.3246775
  60.8487434  11.9501867  13.4919977  62.6629066  65.0202713   2.6876090
  63.1775665  65.8269043   2.7141595  61.7528534  65.3158493   2.7134469
  63.7557335  63.1064606  19.1129093  64.3470001  62.3774719  19.3005486
  63.8488350  63.2542229  18.1717777  67.6547165  42.9500961  50.1456833
  67.4261169  43.3033447  51.0054474  67.1799316  42.1205826  50.0936127
  79.8781281  63.2994461  36.6103249  79.7988510  63.0594826  35.6870918
  79.5010071  64.1776581  36.6627731  63.0790634  69.7973251   1.9735852
  63.2282257  69.9643860   1.0429537  63.8326340  70.1928101   2.4117100
   4.6969881  17.8722992  15.5044012   4.6052957  17.2460880  14.7862892
   5.6162128  17.8069916  15.7632322  32.9362946  36.6790352   1.7283900
  33.0530052  35.7332916   1.6379573  33.5315056  37.0568161   1.0809025
  83.5506744  21.3083839  34.8591995  83.7855377  20.7259750  34.1367912
  83.4132156  22.1603222  34.4450302  58.8683548  63.4774590   7.3690743
  59.4099617  62.8928146   6.8388953  57.9981308  63.0791588   7.3517313
  49.6804619  47.4066658  63.4160004  49.8651810  46.4762688  63.2876396
  49.4214783  47.7211571  62.5498276  44.9573021  57.1923981  26.6070824
  44.6403084  56.2991753  26.4733028  44.1715889  57.7362518  26.5513458
  29.6361656   8.7436399   3.0091386  29.2946415   9.3917618   2.3930779
  29.3195000   9.0355806   3.8639629  15.0289268  14.9688816  51.2000809
  14.8136320  14.0537691  51.3802147  14.2317963  15.4504700  51.4211845
  30.2621651  64.4295425  16.6338234  29.3270435  64.3483734  16.4462318
  30.3124065  65.0995178  17.3156166  39.7003326   3.7074809  18.9984684
  39.4980087   3.1867454  18.2212105  39.9320755   4.5703607  18.6550083
  54.0358696  12.7570124  65.8429871  54.2339439  13.0693331  66.7258530
  53.1000557  12.5569105  65.8640442  72.0246658  46.0760803  74.4557419
  71.7767792  46.2751579  73.5528870  72.4176254  46.8862648  74.7804184
  85.2385864  55.8782959  40.8353691  84.6402740  56.1692505  41.5235558
  85.3343658  54.9374542  40.9832687  73.2498093  37.1424255  21.4233112
  72.8504791  37.9676514  21.1480484  72.7492142  36.8800545  22.1958370
  40.1131706  59.5651169  57.3580894  39.5730782  58.8407173  57.6739578
  40.9504128  59.4537697  57.8084946  29.6223431  64.1360779  53.0929451
  29.0195160  64.4050369  52.3997726  30.1672497  64.9073944  53.2490807
  54.2358284   9.2477741  56.5384102  55.0763283   9.2810402  56.9952278
  54.4337769   8.8241644  55.7031860  23.1058655  64.7846222  61.0660133
  22.4871216  65.0632629  61.7411003  22.5536404  64.4757538  60.3477631
  12.5721388   8.2039986  59.1405258  13.0657425   7.4082427  58.9421310
  11.6550951   7.9318089  59.1062546  48.5629158   9.8948498  63.8316345
  47.6768608   9.7260475  64.1520157  48.9441605  10.4852457  64.4814911
  74.5075150  17.6605682   8.1292553  75.1420975  17.1066093   7.6746535
  73.6989441  17.1482773   8.1291275  81.5216904  59.1391068  35.9044533
  82.1387482  58.5260429  35.5049362  81.3853607  59.8110962  35.2365685
  79.7944260  27.8578625  67.4737930  79.4685364  27.1200752  66.9583359
  80.7402802  27.7184258  67.5201416  10.5950489  19.6464367   0.9100174
  10.9259586  19.6725254   0.0122144  10.5451326  20.5652523   1.1736772
  19.5333405  70.3480072  72.1470032  19.7250385  71.0300369  71.5033188
  19.5033360  69.5387115  71.6367340  66.8228912  66.8312912  32.3139153
  66.2967758  66.2323380  31.7841187  67.2026749  67.4404984  31.6807766
  53.7457809  54.7590561  78.1830826  54.5851784  54.5183411  78.5751266
  53.2630119  53.9345131  78.1256790  19.2164345  44.2263870  23.0386105
  20.0298271  44.6519623  23.3097420  19.1619072  44.3915710  22.0973492
  23.0653629  35.4282455  72.4362183  23.7571335  36.0898209  72.4373932
  23.5278854  34.5978737  72.5493011   2.5670645  47.5225296  19.3054962
   2.4985886  48.4298439  19.0082989   3.1125567  47.5682259  20.0907230
  65.0562592  45.8640442  10.7836857  64.8948288  46.4779358  10.0672293
  64.5248413  46.1955910  11.5074987   2.0257668   9.6848459  19.9823780
   2.8235009   9.1559896  19.9696255   1.7507095   9.7255335  19.0664520
  61.3905296  32.1745567  75.2311020  60.4587708  32.2934074  75.4153061
  61.7518616  31.8195248  76.0432663  56.4868660  68.2498322  30.5392208
  55.9724197  68.2394867  31.3463554  56.5949936  69.1789398  30.3359985
  21.4116611  44.0653992  41.8632240  20.8239822  43.9123154  42.6031075
  22.1650791  44.5157967  42.2449799  58.1016617  46.3044510  48.2726288
  57.8886719  45.3712921  48.2635536  58.3565598  46.4831505  49.1777954
  53.4480858  59.6724777  33.8923721  54.1024742  59.0138931  33.6594048
  52.6631241  59.1664352  34.1021042  74.2637939  26.0172787  67.7453918
  74.3362579  25.8945961  66.7988586  75.1526413  26.2329063  68.0277023
   0.9621364  69.6586990  11.3020582   0.3694833  68.9099579  11.2358770
   1.6669188  69.4615707  10.6850863  73.5959015  31.0779381  13.4421291
  73.0793686  31.1187515  14.2469654  74.2573166  31.7618618  13.5470791
   9.0582371  28.0839024  82.6928482   8.9990816  27.7349701  83.5822220
   9.3680096  27.3468571  82.1665039  80.8181076  24.6059418  22.7195454
  80.7385101  25.4738255  22.3237190  80.1392517  24.0842819  22.2914600
  30.1199551  17.4175739  75.8165131  30.8586063  16.8137474  75.7389145
  30.1387157  17.9245224  75.0047989  50.8456841  11.1333332  18.4306412
  51.2019730  11.5887947  17.6678543  50.4864426  10.3194447  18.0774250
  74.8735123   9.5277548  88.3203049  75.0767212  10.4628515  88.3433762
  73.9803619   9.4851036  87.9786987  44.5498924   6.9679055  46.2795677
  44.9547539   7.7373261  46.6799583  44.7721100   7.0362062  45.3510284
  69.3806763  53.1402473  47.4207458  69.3233185  53.0398941  48.3709412
  69.2588959  54.0778084  47.2711334  55.1413307  61.9205170  83.8043060
  55.7219849  61.3401642  83.3121109  55.4312477  61.8353386  84.7125549
  59.2476654  62.7898979  68.2848511  59.5213547  62.4497566  67.4330139
  58.2926331  62.7267303  68.2723694   9.3803387  49.4161453  83.7712631
   9.7587938  49.0974159  82.9518661   9.1672344  48.6221085  84.2614899
  26.8216915   7.1674795  25.5899467  26.3533611   7.3914304  24.7857418
  26.1338387   7.0697622  26.2483845  35.3021774  67.5711136  42.5701981
  35.3185081  66.8970871  43.2496452  35.0629272  67.1005630  41.7717209
  10.9565554  48.4567528   5.4310904  11.0009241  47.9076233   4.6483259
  10.2672720  48.0596581   5.9634781  85.8551102  44.8243599  74.3231125
  85.7829971  43.8848038  74.4912338  85.8157654  45.2266464  75.1907806
  46.3693848  45.4629364  14.4691153  46.9384422  44.9251862  15.0197773
  46.7255936  45.3622894  13.5863819   0.1277243   9.6351871  61.4343529
  -0.1128154   8.7118559  61.5107193   0.1861796   9.9430609  62.3388023
  52.9286385  28.4753304  32.7465210  52.5381241  27.9145412  32.0762634
  53.7718163  28.0656681  32.9400635  14.4020824  53.7901611  84.1107483
  15.0009174  54.2971954  83.5625229  13.7464962  53.4524651  83.5005035
   8.2491779  32.4771843   3.8906279   8.3422918  32.8132324   2.9992049
   7.8390756  33.1936760   4.3750758  30.0893421  53.6672020  63.9577980
  29.8651810  54.5225067  63.5911407  29.7581081  53.6971169  64.8553619
  84.6985931  39.0385628  88.3473358  83.9855728  38.7644615  87.7705383
  84.6128235  39.9905434  88.3984451  84.2035599  63.3509865  69.6170731
  83.8992920  64.0032196  68.9860077  83.6508713  63.4863815  70.3867722
  42.1641922  21.4947758  14.7805767  41.5983734  21.8653622  14.1032696
  42.9447021  22.0487900  14.7701597  33.8302650  36.7869225  17.6232033
  33.4160767  36.8624344  18.4828415  33.0993195  36.7761230  17.0052757
  70.4782486  61.1700821   9.6604481  70.2510910  61.2378464   8.7330647
  69.7374191  61.5674553  10.1181574  68.7519226   7.3689637  25.6162224
  69.4609985   7.8756413  26.0121040  68.6087494   6.6427035  26.2230816
  80.5818405  31.6312218  63.7966576  79.8951263  30.9896832  63.9785309
  80.7287140  31.5638943  62.8531914  41.7337952  41.0275192  84.3670273
  41.9010963  40.9502563  83.4277344  41.3179283  41.8838921  84.4665909
  51.2933922  37.6541519  76.5969772  50.7084160  37.2336159  75.9667511
  52.0943298  37.8268356  76.1020889  15.9779243  70.4749603  54.6782951
  15.1121931  70.0668640  54.6640892  16.3677387  70.2390900  53.8364868
  35.3917732   4.2688236  81.0817642  35.3026237   4.9901247  81.7046661
  34.4995728   4.1042504  80.7765884  45.9346085  17.8474064  13.7269697
  45.0937996  17.4391823  13.5205030  46.2330475  17.3952160  14.5160761
  79.1887207   7.4535789  57.5189095  79.3364944   7.4358373  56.5733490
  78.6487274   6.6823030  57.6914482  73.8145905  49.4368324  84.3880157
  74.0625763  48.5770340  84.7278366  72.8976364  49.5396538  84.6426773
  70.7801743  13.0966873  59.3553734  71.6604004  13.1467524  58.9826393
  70.3385849  13.8824425  59.0331688  31.4236889  34.9531212  80.0710831
  31.8541431  35.3679695  79.3235245  32.1025200  34.9096642  80.7445297
   6.4098735   3.5200884   7.2670159   6.6239266   2.9887428   6.5001488
   6.7339330   3.0103834   8.0095911  82.9496918  52.0259056  74.1299820
  82.2730255  52.6996918  74.0638733  82.7473679  51.5621910  74.9425507
  67.2962799  25.0340881  40.6511383  66.7882538  25.6886578  41.1303864
  66.6613541  24.6179180  40.0681267  37.0668373  54.3551865  52.1405830
  36.8784256  55.0882072  51.5545692  36.7992249  54.6652718  53.0057182
  10.8869267   1.6340286  66.9229736  11.5857058   1.1204749  67.3281937
  11.0565834   2.5331397  67.2041321  58.8504372  12.3563709  59.2182388
  58.7842445  13.2587433  58.9058685  58.8904190  12.4351730  60.1713524
   0.5185079  67.5517960  27.1663265  -0.1675722  66.9033203  27.3244457
   1.0093576  67.5862198  27.9873695  12.7108555  20.6039352   5.9360080
  12.2086840  20.3968525   6.7241526  13.5397482  20.1392784   6.0511665
  13.0001621  68.4486847  51.3547058  12.2264786  67.8851242  51.3613243
  13.0848465  68.7498550  52.2593346  30.6154404  61.6245041  72.0216293
  30.3333759  61.9454422  72.8781815  30.0999298  60.8301888  71.8818359
  51.4244423  46.8147659  73.6354752  50.9516182  46.8563423  72.8042450
  52.1131020  47.4743843  73.5525513  23.7275925  24.3264904   1.6246744
  23.9585590  24.7791710   0.8135225  24.5676765  24.0578671   1.9966042
  73.8582916  46.0704193  36.5369148  73.1839828  45.4407692  36.2817993
  74.1458282  46.4609604  35.7116699  21.4950771   5.4255004  65.4253616
  21.3755112   5.7020631  66.3339081  22.1039391   6.0663037  65.0580902
  62.7620125  -0.1285132  34.6659355  62.2666550   0.6079886  34.3075790
  62.9581947   0.1302691  35.5663643   6.1438828  33.8506241  15.2972031
   6.9489951  33.4333878  15.6036968   5.4416533  33.3511467  15.7138872
  47.3630524  20.2754478  65.7273941  47.4183884  20.9491596  66.4050980
  47.0469818  20.7403984  64.9527054  17.5594006  71.2554016  79.0293274
  17.8650494  71.7986221  78.3028870  18.3596840  70.9854889  79.4797974
  20.4246902  58.0373726  87.3030243  19.6661949  57.5482979  87.6219635
  21.1596661  57.7003746  87.8153458  48.5007057  64.4595795  20.5019321
  48.1337852  63.7746696  21.0609474  47.7441902  64.9817886  20.2350750
  27.6760082  61.7955246  64.8908768  28.5921135  61.6638031  65.1350784
  27.1807594  61.2980156  65.5416107  40.8973618  44.2397232  70.9556961
  41.6746521  44.0982399  71.4960938  40.1625824  44.0440063  71.5370941
  44.1772270  26.7641182  76.1146774  44.7092628  26.4052811  76.8248901
  43.2737350  26.6301670  76.4010162  44.0847168  28.0572357  81.1638947
  44.2423630  28.9693470  80.9201126  43.7379456  28.1039524  82.0548553
   5.7348275  11.3059301  49.5980377   5.3734708  12.0338869  50.1037369
   6.6802268  11.4556189  49.6047592   7.3005280  41.9123955  86.9536057
   7.9806399  42.0663948  86.2978897   6.4905796  42.1963882  86.5298538
  42.2329140  32.6176109  69.4162598  42.2256622  33.5278778  69.7122345
  41.4933395  32.2125702  69.8692551  69.9514084  60.6935616  64.0107727
  69.8433075  60.6782532  63.0598183  70.8185654  60.3164825  64.1593552
   7.0059514  17.6726818  72.4694443   7.5478544  18.0740013  73.1487885
   6.1433015  18.0711575  72.5846939  71.4961777  42.0301132  21.9221363
  71.1766739  42.2030869  22.8077068  71.8939514  42.8556328  21.6455173
  62.1403427  24.0719929  16.8071899  62.6351891  23.5291367  17.4209194
  61.2702293  23.6738071  16.7829971  26.5511303  61.2818069  84.9603577
  25.8310890  61.9002419  84.8366318  26.8402424  61.0701332  84.0727539
  52.8287315   1.3647065  37.6268349  52.6725731   1.3119534  36.6839333
  53.5278893   2.0120909  37.7179680  75.9521027  60.3090820  85.3444519
  76.3032761  59.4209137  85.4081726  75.1789780  60.2215271  84.7869263
  64.8956680  71.3724289   6.1599655  64.7731628  72.2386246   5.7714696
  64.8117981  70.7659073   5.4242187  40.0745277  45.1197243  77.5630722
  40.2439728  46.0607109  77.6085052  39.6814346  44.9060135  78.4092560
  77.9420395  16.4057255  61.2742310  78.8406982  16.7252235  61.3552437
  77.9221954  15.9584885  60.4281731  61.4758720  17.2742691  68.1101608
  61.3377342  17.9293404  67.4260330  60.6495018  16.7929630  68.1512680
  70.9846573  46.0567284  77.8816071  71.8925858  45.9395485  77.6020203
  71.0376129  46.6653595  78.6184845  22.1743813  20.7224617  87.7758408
  21.4767876  20.4788933  88.3843384  22.8741512  20.0927963  87.9492645
  43.7518616  30.3431492  22.5004101  44.2347603  29.5746002  22.1964817
  43.3011246  30.6666985  21.7204189  81.2790451   5.5913281  77.0077667
  80.4896164   5.8325524  77.4923782  81.0448990   4.7799354  76.5571518
  33.4933548  23.7014198  77.8470840  34.3904419  24.0315475  77.8968811
  33.1495056  24.0644627  77.0308762  42.5780678  18.6520672  82.5328217
  41.9018974  18.3915176  81.9074097  43.0361252  19.3744583  82.1032104
  57.7138977  55.6801033  21.5502663  57.4352379  56.2312202  20.8189316
  56.9771080  55.7019043  22.1609192  26.9053364   2.3043509  60.8218727
  27.0602913   2.6613657  59.9473686  26.3879414   1.5135764  60.6695251
  67.4094009  32.2099152  40.5770264  67.9964600  32.9615707  40.6583023
  66.6054459  32.4851685  41.0176201  39.1336708  53.8160896  68.1262512
  39.1478500  52.8638115  68.2221375  38.2275925  54.0621109  68.3126068
  54.9378967   9.2924232  24.4876595  55.6760368   9.0579891  25.0501728
  55.2803535   9.9809427  23.9176636  22.9505539   5.3761330  61.0529137
  23.7340336   5.9157777  60.9472046  22.9043446   4.8606582  60.2476921
  59.9001541  52.4565010  32.2749023  60.0690956  53.3483391  32.5787392
  59.2588120  52.1096458  32.8950691  83.9569931  43.6265373  64.1822281
  83.2958450  43.0164566  64.5092163  83.8803864  44.3911972  64.7528915
  72.4338074  28.4586983   8.2759714  72.6599731  28.1990795   7.3828435
  72.9515228  27.8772049   8.8328018  75.1163101  34.5747871  43.5548096
  74.7959671  34.0366631  44.2787132  75.2731476  33.9523010  42.8447762
  40.3137741  13.3376608  63.9409523  39.6907043  13.5395441  64.6389923
  41.1076469  13.8144112  64.1832504   2.5577493  57.7611389  63.8003120
   1.7869225  57.5683670  63.2665520   3.1304450  57.0042839  63.6761208
  54.7873077  64.1834259  86.4646454  55.0709763  64.9062881  85.9049683
  55.4471626  63.5031815  86.3301315  55.6108551  24.4842052  18.2614403
  55.6156235  24.0814857  17.3930931  56.5360870  24.5649948  18.4930706
  16.7128563  55.8060760  84.9602203  16.7003593  55.6241150  84.0205536
  16.4615917  56.7271309  85.0291824  20.0809708  27.1511574  21.6963806
  20.7950668  27.0542088  21.0663815  19.2859859  27.1180439  21.1642780
   3.5682857  29.2402706  74.1210938   3.5411413  30.0893650  73.6800385
   4.4402399  28.8968735  73.9261475  47.8709183  69.7217026  36.7630615
  48.5080490  69.0143356  36.6633911  48.3178825  70.4964371  36.4221153
  84.1538773  65.3550034  79.0657730  84.1436462  65.3006439  78.1101685
  84.7683105  64.6733475  79.3378754  27.5555439  62.8903732  16.0838089
  27.2528362  63.7740898  15.8749037  27.1733150  62.7026672  16.9410706
  71.4863510  11.3172741  81.6372910  71.9338303  10.6197815  82.1163483
  71.6782150  11.1369801  80.7170105  18.8230743  35.2562332  77.6319351
  17.8836517  35.3975487  77.5146866  18.9465332  34.3208275  77.4706650
  67.9319229  56.9579163  44.5942307  67.1446075  57.4905281  44.4815407
  68.1445389  56.6549988  43.7114716  20.9978008   5.9819031  31.9473515
  21.5040874   6.3248081  32.6837769  20.1221695   5.8366194  32.3056755
  21.5347614  31.4753475   1.2049084  21.5565109  31.7381516   0.2847495
  20.6279812  31.6215286   1.4743782   5.3774614  26.2185555  85.8830109
   4.8874874  26.4857254  86.6606827   5.2610703  26.9414787  85.2665100
  81.1272964  56.4796944  53.1660767  81.7286758  56.1172447  52.5155373
  80.5699158  57.0787849  52.6694489  73.2327194   9.8957195  62.1808815
  72.9473343   8.9866219  62.2721405  72.9375076  10.3213768  62.9858055
  77.2084503  11.9044561   2.1637380  76.8818207  11.0147781   2.0295107
  77.9049606  11.8084373   2.8132677  12.7358131  61.4954147  46.9664116
  13.1269627  60.7100677  46.5837059  12.6385574  62.0981483  46.2291946
  71.4834213  55.6722641   2.5719810  70.7088776  55.1616402   2.8077221
  71.8919830  55.8884773   3.4101684   9.9185677  19.8191147  38.7838478
  10.3131151  20.6708870  38.9710541  10.0263634  19.7076244  37.8392906
  86.5084610   7.1515093  64.7573318  85.7187653   7.4974065  64.3414383
  86.7846909   6.4339118  64.1872559   9.2722683  18.6146202  13.2795630
   8.6500492  19.3419704  13.2855797   9.8119040  18.7546196  14.0576534
   2.6974211  35.5035324  62.6541328   3.4413531  36.0940971  62.7725945
   3.0942528  34.6543922  62.4599342  78.7941437  60.4021034  19.9362926
  78.8807602  59.5944557  19.4298973  77.8808670  60.4083481  20.2228546
  79.3606873  23.0046177   3.2596953  80.2330475  23.3698006   3.4075236
  79.0042267  22.8727188   4.1382008  34.7103195  64.9303970   4.5381861
  35.0192528  65.6398773   5.1015973  35.5094147  64.4948425   4.2415833
  18.3350163   6.7917724  68.7238312  19.2851696   6.7302375  68.6255569
  17.9863796   6.4472318  67.9016495  57.1327667  26.1932583  68.5112762
  57.0474892  25.6739273  69.3108139  56.9987144  27.0968761  68.7971802
  57.7564468  11.2821131  87.8574600  57.8053284  10.3564110  88.0960312
  58.6524086  11.5141449  87.6132431  76.9774399  70.8648376  26.8190365
  77.7777557  71.2405319  26.4521961  77.2829056  70.1532059  27.3816166
  64.4120255  33.7505875  68.0097885  64.7340240  34.2063217  67.2320633
  65.1347656  33.8040047  68.6351089  80.9979858  20.7249241   5.3518581
  81.0802994  21.6782684   5.3276086  81.6278076  20.4135265   4.7017932
  11.9509363  50.4586258  66.1010818  12.1201038  50.5115471  67.0417252
  12.8086958  50.2862511  65.7127914  27.3901272  67.3950119  83.5182800
  28.1181507  67.9339142  83.2087708  27.2461720  66.7607269  82.8160095
  60.4743919  57.1923065   2.0848410  59.6630058  56.9809151   1.6231091
  60.9204941  57.8159866   1.5119121  72.0770111  28.0463161  24.2963371
  71.7122498  28.3422623  25.1303596  71.3485794  27.6050167  23.8594551
  54.1872139   2.7486131  14.6360874  54.2747307   3.6924226  14.5026855
  53.4252739   2.6572239  15.2082148  49.1335907  39.6336670  71.1855240
  49.5653038  39.9061623  70.3758316  48.2512817  39.3813515  70.9133224
  23.3766479  55.0157242  52.7636070  23.3419380  55.2172012  51.8284950
  23.4244938  55.8707581  53.1912270  76.4345627   2.8971229  46.4982834
  76.0147934   3.7567773  46.4663048  75.7895203   2.3012917  46.1173058
  41.5286789  69.2326965  31.8380451  42.3713074  69.4866714  32.2144775
  41.7506485  68.5849838  31.1691399  84.9654236  57.6685562  81.8576965
  85.0494843  56.9686584  82.5052338  84.3122559  57.3441010  81.2377472
  81.8674698  34.4032593  38.3625832  81.9617157  35.3192749  38.6238632
  80.9240723  34.2800255  38.2574692  79.4537659  47.4946022  48.9197311
  79.7240448  48.1333084  48.2600060  79.6858902  47.9002609  49.7550735
  53.2245903  69.8972015   2.8313031  52.7638435  69.3790894   2.1713798
  54.1174469  69.9741058   2.4949572  57.0473480  14.9962912  66.7895889
  56.8131409  15.2863207  65.9079590  57.8130455  14.4362411  66.6619797
  62.7251205  45.7616043  52.4261284  62.8759346  45.6599159  53.3658867
  61.8171654  46.0573349  52.3598824  50.4162941  54.0208130  37.6512108
  49.6224594  53.8494644  37.1445580  50.4058189  54.9662590  37.8003769
  46.8066711  68.5562668  78.5802078  46.2087898  69.1470642  79.0381699
  46.5523872  68.6242599  77.6599121  58.9719925  53.1290092  52.0212517
  59.5002136  53.8763962  51.7408409  59.5846672  52.3936691  52.0330276
  17.4510689  61.4443436  31.3559208  17.7529545  60.6103096  30.9960842
  17.6091061  62.0782547  30.6563396  41.5365334  12.2094831  68.1971436
  41.4737434  11.6854811  67.3985748  40.8098869  12.8294067  68.1345901
  59.3936234   7.6129317   0.4546290  59.0005760   7.8287697   1.3003011
  60.3271065   7.5149975   0.6423828  53.0655479  28.0884304  54.4180260
  53.9832153  28.3152599  54.2674828  52.9878426  28.0238037  55.3698730
  61.0414200  56.7270622  24.7920494  61.9152870  56.4361839  24.5313282
  61.1730843  57.6164894  25.1203976  72.5097733  42.7451820  50.8684692
  72.2029800  43.6440811  50.9871521  73.2862167  42.6817017  51.4246559
  41.3484116  62.5851021  40.6262054  41.8321915  62.3525429  41.4187355
  42.0138741  62.9336510  40.0329895  46.4071045  71.6971207  48.2620049
  46.2335434  71.5677338  49.1944008  46.2549629  70.8378830  47.8685646
  62.5710411  34.9878159  52.8232422  63.4380074  35.2745361  53.1102753
  62.6978493  34.0796432  52.5486908  60.5968056  20.4561291  87.5105667
  60.9888840  19.8572025  86.8751221  59.8243675  20.8050995  87.0658340
  69.1255798  35.3741951  59.2126656  68.4143829  35.8717842  59.6161957
  68.6832886  34.7198105  58.6719322  66.0931931  66.1987381  45.6773567
  65.2168655  66.4643173  45.3985138  66.1596069  65.2802887  45.4160652
  44.0014305  25.1167431  12.5732346  44.4101105  25.7087860  13.2046595
  43.0795593  25.0923157  12.8297253  31.5002556  57.9896584  17.8925323
  32.0410004  57.2161560  17.7327728  30.7654839  57.6648865  18.4129829
  18.2721958  52.0063324  87.8670273  17.9365597  52.6588058  87.2523270
  17.4987183  51.7076950  88.3453369  10.0604095   1.9939989  56.5479965
  10.7767324   2.6270359  56.4992256   9.9372520   1.8434044  57.4852180
  24.4509811  27.2789879  79.9557419  25.2696514  26.8783112  80.2480927
  24.6934681  27.7770557  79.1751328  14.2190313  51.5182343  60.4669266
  15.0690527  51.8271179  60.7804337  13.7162142  51.3507080  61.2640076
  16.6064510  22.7062817  67.8958893  17.3980789  23.1858921  68.1398773
  15.9826784  22.9021873  68.5950012  50.1871758   2.1865275  41.5216560
  49.5319214   1.5604366  41.8296890  50.4030228   1.8915514  40.6369896
  79.2547607  60.4969025  73.6100006  78.5467606  60.9961052  74.0171432
  78.8209000  59.9690170  72.9396744  24.9327621  52.8588181  72.3220749
  24.4085007  52.1749077  71.9053650  25.8332787  52.6599884  72.0656281
  76.9716949  35.7052650  62.2979050  76.6599884  35.0808678  61.6427689
  76.5211105  36.5221558  62.0836678  22.4481525   3.3869584  13.7474728
  22.4417191   2.8148599  14.5148668  22.6508503   2.8040047  13.0158234
  68.2881165  37.6040802  24.2117138  67.7853012  38.1118965  23.5748978
  68.1742630  36.6944656  23.9362640  82.0949631  34.5433273   7.0629869
  81.2110443  34.1938782   7.1761661  82.1710892  34.7020912   6.1221204
   6.6820140  57.0170021  75.3777313   5.8042612  56.6387520  75.4297714
   6.5383883  57.9623718  75.4211044  84.6316605  21.6143723  58.1442566
  84.3763962  22.4747238  58.4772301  85.5869141  21.6078434  58.2049026
  80.2387238  14.9815807  12.4801483  80.6334763  14.5498133  11.7225342
  80.8620148  14.8342323  13.1914997  41.9528809  53.8395920  27.7560425
  42.6722069  54.3298454  27.3579807  41.7639961  54.3088875  28.5686398
  77.8508682  36.2465515  -0.1251477  78.3887863  36.3620415   0.6581357
  76.9990845  35.9649658   0.2086406  72.7773895  67.0382385  21.8801632
  72.5265350  67.9156799  22.1689644  72.1451187  66.8217468  21.1948891
  37.8845291  19.3893433   3.1764219  38.3475647  18.8650246   3.8298125
  37.0052643  19.5006714   3.5379860  31.2142506  64.3407440  34.0230255
  31.1621399  65.2722244  33.8088608  30.3522778  64.1287460  34.3812027
  18.5691910  67.6578598  56.6722298  18.2390747  68.4487762  57.0984917
  17.7870655  67.1324234  56.5036125  62.1259079  43.7303238  20.1988659
  62.8461609  44.1184845  19.7020798  62.1536942  44.1734428  21.0468674
  19.9694843  69.9590836  53.9411621  19.0717182  69.9119186  53.6124954
  19.8761749  70.2284088  54.8549385  35.6732559  54.4074173   6.8698430
  35.8034134  53.8636703   6.0929055  35.2137794  53.8376694   7.4866905
  46.9409294  11.7279682  74.4458542  47.5220947  11.1489458  73.9526901
  46.6017113  12.3398447  73.7925797  61.6002312   1.9325094  22.0362740
  61.9920692   2.7510262  21.7317696  62.2263794   1.5899519  22.6741028
  81.3063049  34.9576797  43.9694176  81.2155685  35.7568970  43.4505234
  80.7509918  35.1048622  44.7350502  13.8332224   0.2232600  18.7010384
  13.6986504   0.7123972  19.5127449  14.3193159   0.8245932  18.1368179
  73.6601944  42.5308304  24.1692276  74.4197235  42.3002701  23.6342602
  73.6390533  43.4876976  24.1553726  61.4211578  12.3999004  61.7131386
  62.0500565  12.8658724  62.2641296  60.5652733  12.6901312  62.0285034
  24.9993820  27.2435627  26.4178314  24.7621479  26.3495369  26.6641445
  25.4898052  27.1450195  25.6017399  15.3380671  51.1139679  26.1174622
  16.2293320  51.4613037  26.0822964  14.9400959  51.3915710  25.2923641
  19.3621464  48.6128769  33.3218536  19.5984573  49.5295029  33.4639435
  19.3137379  48.2388649  34.2016258  46.0246201  63.2045517  21.7701721
  46.1131248  62.3366661  21.3762550  45.0823097  63.3727264  21.7699337
  21.9690838  67.9546204   2.2931256  22.8718491  67.7752914   2.5559731
  21.9708023  67.8475189   1.3419374   3.6168661  14.6519651  26.3794918
   3.1923656  14.4576769  25.5438595   4.0163283  15.5122700  26.2508965
  57.3050957  38.8646851  13.6256084  56.8176537  39.0946503  12.8345642
  56.6336899  38.7674828  14.3008871  85.8209229  68.3322678  67.3590927
  86.1141510  67.4301682  67.2307892  86.5617523  68.7671661  67.7813110
  24.8282146  49.7023964  11.0776100  24.1371937  50.2409325  10.6919956
  24.5165405  49.5099945  11.9619589   4.3006968  41.5371399  59.3585205
   3.8595104  41.7272758  58.5306129   4.6522851  42.3811264  59.6419029
  36.2331085  70.0121841  58.0447197  36.0605240  70.8892288  58.3871155
  36.8451347  70.1532211  57.3223877   6.4995732  63.6034164  64.5365067
   7.2908278  63.9783707  64.9232330   6.8215742  62.9269753  63.9407120
  17.5889301  61.6311684  22.2317543  18.1994534  61.6951790  21.4973183
  16.7343807  61.8340797  21.8512249  27.5570889  50.7141304  28.5716591
  27.3236008  49.9323997  29.0722713  26.8162613  51.3076057  28.6949177
  82.2837601  55.2657127  39.3039513  82.5477905  54.6430626  39.9813194
  82.9363022  55.1578522  38.6119995   3.8508728  27.3872795  70.8240433
   3.7974048  27.3467484  69.8692017   4.3247018  28.1994629  71.0031433
  38.7167358  48.5812416  10.7803993  38.3889084  47.8601456  10.2430124
  38.8343697  48.1979446  11.6495819  73.2536240  -0.1220977  20.0979919
  73.3764114   0.5362155  19.4140491  73.5942917   0.2906266  20.8916149
  13.3004637   0.6195680  85.7762985  13.7903671   1.3797170  86.0899887
  13.8223915   0.2819790  85.0483856  69.4271011  44.4670181  33.4804153
  70.3174515  44.1388855  33.6062508  69.2742004  44.3896751  32.5386772
  48.0045052   6.4017491  75.3833084  48.0836868   5.6546931  74.7901230
  47.1805038   6.8197927  75.1333237  53.8460770   9.0347471  16.7670498
  53.7557755   8.9199076  17.7130356  53.3423080   8.3139086  16.3891048
  86.3234940  26.1421432  63.7587547  86.0458603  25.5345345  63.0732193
  86.8838043  26.7731590  63.3069725  13.3203392  62.4888268  13.7251625
  13.6833591  63.2259903  14.2161160  13.3826046  61.7466812  14.3264780
  71.5257263  36.7939339  74.0196609  70.7093964  37.0021057  73.5652390
  72.1624374  37.4141731  73.6644974  44.3486938  10.5283709  58.2965202
  45.1855011  10.1530561  58.5706100  44.2745781  10.2976952  57.3704910
  42.6975136  56.3200722   5.5808368  42.4183388  55.4232140   5.7650571
  42.7764931  56.7282181   6.4430499  81.4650345  58.2056122  48.2268410
  81.8296432  57.6058578  47.5760002  82.2045746  58.4206276  48.7952499
  69.2663345  46.1757469  63.5248909  69.5101471  45.2504349  63.5007324
  68.6571655  46.2820778  62.7942467  12.9786491  34.8832169  71.8654099
  12.5379076  35.7203140  71.7196503  12.4615850  34.2503319  71.3670807
  80.4192581  19.2670727  43.2857323  81.0639725  18.9333363  42.6618767
  79.9075165  19.9021168  42.7846565   9.2325296  33.2661819  27.6671047
   8.6450624  33.0472717  28.3904266  10.0038080  33.6430130  28.0906143
  84.2152023  45.4667702  26.4324112  83.4595261  44.8798485  26.4591541
  84.8961105  45.0028992  26.9196663  68.6241608  51.3906059  55.7254906
  68.7259598  50.4393654  55.7572289  69.5194397  51.7258148  55.6771049
  55.9426804  20.2997017   1.0087490  55.4088707  20.7151718   0.3315009
  56.8447914  20.4998398   0.7589982  60.7302437  68.1558838  30.7398853
  60.4907112  67.2323151  30.8165016  60.2818375  68.5810547  31.4709072
   8.6312675   7.2115588  17.5037079   8.6440039   6.2955379  17.7811527
   8.7969475   7.7070618  18.3057423  41.5804291  68.8254623  37.4409332
  41.7344246  69.5727921  36.8629951  41.2379303  69.2123718  38.2466774
  23.1665020  50.7281303  22.3270264  23.9746075  50.5098267  21.8627625
  22.5465660  50.9565048  21.6343842  84.5929947  53.2548943  38.9085579
  85.0987015  53.2353897  39.7210312  85.1984863  53.6104774  38.2580452
   3.4144728  62.6843071  64.7034454   3.3223367  62.0547218  63.9883499
   3.0812201  62.2230148  65.4731140  63.6163177  51.0323296  44.2699280
  63.9071350  50.8368683  45.1606865  62.9349747  50.3838005  44.0926857
  25.6844673  31.6669445  80.3026657  25.7991867  30.9526978  79.6758270
  26.5745316  31.9615326  80.4956284  19.9028816  29.6387444  55.2725296
  20.6619682  29.2573700  54.8314247  19.3585701  29.9781990  54.5620880
   8.1508379  63.8245583  81.4118042   7.7403288  62.9711647  81.2724152
   7.8975196  64.0697098  82.3017273  34.5556068  60.5263100  32.4444504
  34.7051315  59.7267151  32.9489517  33.9020729  61.0097122  32.9498672
  48.5408592   4.2277951  73.4806747  49.3965569   3.9829106  73.8328781
  48.3537560   3.5605421  72.8203735  80.1687393  38.7842140  85.0235748
  80.1025620  38.6903038  84.0732956  79.5164795  38.1755257  85.3704071
  46.7351646  38.1605644  75.7052383  46.4343872  37.9512291  74.8209610
  47.5405884  37.6541443  75.8104248  72.2932358  18.2776375  20.3701916
  72.8414307  19.0620842  20.3513298  72.9117889  17.5512562  20.2927284
  40.1889343  38.8865814  14.3234692  40.6415329  38.2055397  13.8259058
  39.3331718  38.5077171  14.5243788   3.7797031   7.9701867  27.9702168
   2.9034965   7.5860591  28.0008717   3.6258597   8.9121628  27.8977947
  56.3390694  59.4973297  21.9520969  56.7155876  59.6644592  21.0880775
  57.0735092  59.1764679  22.4754276  73.4825516   2.4912171  50.5668907
  73.7046280   1.8315591  49.9098015  73.1137238   3.2166123  50.0629082
  34.8961945  31.1349831  88.5621872  34.8465347  31.9812603  88.1176834
  35.8299751  30.9248447  88.5735626  51.6511116   7.6982183  74.8640518
  50.9312820   7.9308286  75.4505386  52.2988319   8.3910179  74.9933548
  12.6018105  28.5692635  11.2317686  12.3093700  27.8656406  11.8111000
  13.5460968  28.6236343  11.3787374  83.2152557  70.1207581  58.9522972
  83.2390442  69.2692490  58.5157318  82.9400406  69.9233093  59.8475647
  82.6339340  19.7945156  52.3980217  81.7469101  20.1289291  52.2653847
  82.5139847  18.9925098  52.9065819  47.6483574   5.7128801  33.6378441
  48.2510300   6.3308349  33.2241402  48.2108002   5.0074730  33.9576797
  81.1947250  26.3624191  57.7921944  80.6463547  26.0711117  57.0637283
  80.9431915  25.7969322  58.5223923  27.8756676  34.7877045  77.8728409
  27.5765686  35.6613388  78.1249008  27.1814232  34.2010193  78.1729431
  53.5911179  10.8739347   5.5444660  53.9854698  11.2367640   6.3376079
  53.0228539  11.5719023   5.2186627  19.1148872  62.1132278  19.8813190
  19.3644619  62.5896835  19.0895271  18.8310432  61.2554626  19.5652428
   6.1711407  70.8716431  36.4059715   5.6345816  71.0644531  35.6371040
   5.7584105  71.3638763  37.1156158  85.7655106  68.2060013  30.2251396
  85.5870132  69.0470505  30.6458530  85.2144089  67.5808945  30.6960468
  28.4173775  51.5962677  21.3249226  28.3606052  51.4666557  20.3782387
  29.3516560  51.7170448  21.4945316  42.2582779  65.2838593  32.0581284
  41.9864616  65.5925751  32.9224434  43.0887070  64.8342743  32.2146149
  26.1734295  25.1570892  86.0590973  26.2877274  24.3674641  86.5879211
  25.2287445  25.3113575  86.0600891  43.5444107  58.1734390  12.5923929
  43.3104553  57.2477112  12.5251245  42.9943047  58.5086746  13.3003712
  84.9838791  52.0737305   6.0582523  85.4790115  51.2629089   6.1750622
  84.6912231  52.0465317   5.1472950  65.9679413  35.3388634  77.0374146
  66.4329681  34.5186653  76.8723297  66.1260147  35.8656845  76.2540283
   6.2286925  65.1019363  74.7866821   6.3525319  64.2354889  75.1741867
   6.8707495  65.1412888  74.0778503  74.7192917  39.5080338  12.5235786
  75.2073441  39.2357330  13.3006802  73.8130951  39.2642059  12.7122488
   6.1058745  39.0860863  45.9732933   6.5663447  38.2491150  46.0339279
   5.1910663  38.8460312  45.8258781  30.7139797  62.0570374   9.0072784
  31.5938187  61.7934151   9.2767553  30.3183670  61.2557411   8.6642895
  17.7764549  10.4927111  28.6490612  17.3971119   9.7341986  29.0928974
  18.7221394  10.3727655  28.7358017   9.6817980  61.0554924  81.3850250
   9.5676489  60.5410576  80.5859222  10.5659008  61.4154091  81.3139267
  81.3626328   6.6978736  28.1068897  82.2267380   6.2928576  28.0326195
  80.7617493   6.0491490  27.7403831  27.1492519  24.3708954  48.4067345
  26.4522266  23.7155628  48.4371872  27.5042953  24.3844090  49.2955475
  44.8283806  12.4963732   2.9716043  44.9415283  11.6962175   3.4846163
  44.0810661  12.9367313   3.3763728  73.5832596  55.4733887  38.1998901
  74.2715302  56.1378021  38.1672134  73.2161942  55.4651031  37.3159065
  65.4800873  66.7022552  79.8354492  65.8288040  66.1722107  80.5521545
  64.5486374  66.7934647  80.0362320  23.3182907   3.8893304  26.3177185
  23.6773930   3.1138146  26.7488251  22.9483948   3.5586360  25.4991531
  59.2108345  54.4315338  46.7390709  59.8260765  53.8496590  47.1853104
  59.4314537  54.3474121  45.8114510  41.1013069  37.8061218  19.3924484
  41.4938545  36.9787025  19.6708603  40.2445259  37.5595131  19.0441074
  49.4234505  23.3372517  13.3771267  49.9909477  23.3881092  12.6079769
  48.5359726  23.3171253  13.0190630  16.0294399  15.2263317  16.4583626
  15.9902029  16.0906792  16.8677464  16.5567532  15.3582001  15.6704664
  87.0461960  26.0142365  66.2847290  86.8938675  26.1639729  65.3516617
  86.4888992  25.2667866  66.5014648  77.8526535  11.5876522  29.9568806
  78.0118866  11.6361141  29.0142632  77.0132141  11.1343670  30.0349903
  62.2651901   7.1438413  64.5265656  62.9618378   7.7346549  64.2404633
  62.1562271   6.5318136  63.7987022  15.2325087  52.4227257  76.2428284
  16.1294098  52.1174774  76.1063614  15.2553129  53.3487091  76.0014420
  47.2338638  68.1204910   2.7850544  47.9398422  67.8936386   3.3903382
  46.5679893  68.5309296   3.3367620  64.3095551  15.9442959  74.6717682
  63.6022644  16.2255440  74.0913620  63.9121094  15.2721853  75.2254181
  82.4250793  23.8450718  84.4598770  83.1367188  23.4756985  84.9827118
  81.6656342  23.3022518  84.6715927  75.1614609  57.6878510  23.6766777
  74.4467010  57.7013016  24.3132076  74.8430710  58.2203102  22.9477406
  58.4566002  51.5058136  38.5027962  59.1372452  52.1147537  38.7894058
  57.6359520  51.9238625  38.7635765  78.4680328  60.8010063  68.2951889
  77.6855774  60.4064636  68.6803207  79.0240936  61.0115662  69.0453186
  57.0775566  48.0326042  11.7993050  57.2058334  48.3680763  12.6865673
  56.9924698  48.8166084  11.2567844  32.7875290  12.1487150  78.4559708
  32.8717117  12.1315994  77.5026321  32.7839699  13.0794592  78.6794281
  53.4682198  25.1078014  26.7562733  53.8922501  25.9377728  26.9743958
  53.2941551  25.1673717  25.8169193  51.6256866   3.9290543  59.6710052
  51.9356461   3.4471436  60.4377632  51.4102745   4.7994175  60.0061111
  86.3968277  42.7915535  12.1205568  85.6823044  42.4304581  12.6452475
  86.4953537  42.1760178  11.3941679   3.9233823  39.5121422  69.6605759
   3.3344591  38.7591324  69.6118164   4.1440687  39.7030334  68.7489319
  53.5587502   7.3823318  13.2105484  53.0240440   7.2158670  13.9868279
  53.0029068   7.1211514  12.4763422  62.3554840  60.3236847  74.4175873
  61.7352142  59.8302498  73.8809128  63.2034149  60.1791801  73.9976273
  72.2106705  54.4970703  64.9047394  72.9335251  54.6055832  65.5227509
  72.6304779  54.2137833  64.0924911   6.5921707  10.1199961   2.9954472
   7.2845411  10.7384167   2.7621856   6.4750438   9.5844431   2.2107840
  45.4368401  61.1600456  79.8556519  45.5237656  60.2882957  80.2412949
  45.3757401  61.7494850  80.6073608  38.9328079  10.4745483  60.1339302
  39.5712433  10.5778160  60.8395958  39.4634171  10.3410006  59.3485336
  75.6753616  43.7535934  20.7923641  75.6149445  43.2035942  20.0112839
  75.8079071  43.1353264  21.5109825  49.1758156  70.3987122   0.1877335
  49.6721306  70.0190811   0.9128423  49.8384247  70.8127899  -0.3651852
  66.8957825  53.8475723   9.3163767  66.0573273  54.2281380   9.0548429
  66.9077530  53.9270172  10.2701988  59.8332253  10.5055199  24.2256737
  59.3379593  11.3217297  24.2945404  60.2579765  10.5546255  23.3692818
  77.5872879  58.1861382  66.7617493  76.6412964  58.2805862  66.6503372
  77.7603607  58.5272369  67.6392059  57.0303688  71.5119629  58.6434631
  56.3573303  70.8760223  58.4009171  57.4004326  71.1703644  59.4574623
  32.1835022  58.5853348  55.2815437  32.6362877  59.2469826  55.8044586
  32.7828293  57.8391037  55.2683754  18.1165638  61.2918205  24.8611946
  18.1181774  61.4672356  23.9202061  17.2209530  61.0125389  25.0512333
  53.8042030  69.3070374   9.5310993  53.4513206  69.1070404   8.6640873
  53.7691650  70.2618027   9.5895500  55.8618927  21.8638554  77.5149918
  56.3546448  21.3481178  78.1533051  55.3183403  22.4460735  78.0458450
  10.3771811  70.4128342  19.7024784  10.0723038  71.2553711  19.3657265
  10.4347801  70.5400543  20.6494350  32.6923523  62.3394508  33.5776901
  32.0933876  63.0686531  33.7381172  33.2652702  62.3269653  34.3443985
  66.1412811  53.1004524  83.2206802  66.4726562  52.4435692  82.6083679
  66.9085693  53.3620987  83.7296448  50.0119705   9.3528967  26.8529167
  50.9038734   9.2680645  26.5159454  49.6018753   8.5097666  26.6600819
  60.4047966  40.2201347  59.7898712  60.3030968  40.8561020  59.0817490
  59.6279640  40.3429260  60.3354759  21.3280067  58.9799881  73.3832169
  20.5234337  59.0170479  72.8659973  21.6111240  59.8918152  73.4514008
  44.1679192   3.3638206  68.1858444  43.8451996   3.0583913  67.3380280
  43.4466171   3.1943922  68.7918549   3.7661693  70.7354736  77.8485718
   4.4333320  71.0938644  77.2631836   2.9387844  71.0686951  77.5012589
  41.4823189  60.2056923  61.7104034  41.3148079  60.2980194  62.6482964
  41.4181709  61.0967827  61.3667831  83.4823761  53.8100624  43.3718452
  82.8589249  53.6754761  42.6581078  83.1865540  54.6134529  43.7999649
  22.1178265  42.0657539  77.4335251  21.5951500  41.7031364  78.1487579
  21.6784954  42.8856163  77.2075958  13.3440399  66.3705750   1.5344667
  13.6779613  66.6559372   0.6839981  12.4321365  66.6613998   1.5435776
  26.4222584  28.2162514  22.4102077  26.3990993  27.5683651  23.1144371
  25.9556465  27.7994022  21.6858177  71.2404785  19.5465717  60.3748932
  71.3829727  19.2506199  59.4758148  72.1195984  19.7164707  60.7132912
  85.8704681  40.5234680  19.9351139  85.4526138  40.9307213  19.1763172
  86.7183380  40.9620552  20.0057354  72.3908157  69.7648849  64.9495239
  71.6462326  69.3059464  64.5606842  73.1578522  69.3764114  64.5288391
  19.4767056  54.9436226  31.6219807  19.4172440  55.5591431  32.3526192
  19.0667152  54.1430016  31.9493103  60.5568733  39.6734619  31.5723400
  59.8993530  39.0663681  31.2327290  60.1086197  40.5186081  31.6044750
  36.3785477  26.0337524   2.2496853  36.3546867  25.1098709   2.4988933
  35.7353134  26.4527454   2.8214571  51.8868790   4.6222377  54.5387764
  52.2462578   5.3126097  55.0959702  50.9999809   4.9178009  54.3331451
  65.8481674  67.2969894  57.2177086  65.2499466  66.5692978  57.0479088
  66.1461563  67.5695724  56.3498764  22.2524929  61.1974220  13.1778698
  21.9009972  61.7217941  12.4583435  22.5191498  61.8404579  13.8348579
  25.9562721  12.5291471  70.6315079  25.2724361  11.9027681  70.3943405
  25.5606384  13.3865099  70.4745560  70.9670486   5.0932059  38.7860184
  70.7272873   4.1885099  38.9866867  70.8682709   5.1621685  37.8364296
  27.7757797  58.3124619  51.9071198  27.0300179  58.5943489  51.3773918
  28.4797688  58.9161491  51.6700592  32.4814186  43.8462486  37.9751472
  31.6901417  43.4779816  38.3682060  33.1750069  43.2301483  38.2109146
  22.9248734   2.7200356   2.2528243  22.5995064   2.2674959   3.0310111
  22.2546291   3.3753715   2.0590768  20.4635353  16.9514980   6.7165546
  21.1209927  17.6253967   6.5438023  19.7755871  17.1172237   6.0719662
  30.9000072  54.1694107  43.8595848  30.7193069  54.7557182  43.1248589
  31.7022858  54.5154991  44.2504807  21.4961796  15.0174570  79.3797913
  20.6375713  14.8020897  79.7439957  21.4870167  15.9706087  79.2923355
  25.9379330  20.1432209  76.3190308  25.7714958  20.2156982  77.2588654
  25.9478912  19.2012062  76.1495056   6.1030989  62.9650116  78.7708969
   6.2094574  62.7682076  79.7015915   5.8418298  62.1320496  78.3782883
   6.6812420  71.3102112  85.0639267   7.4666104  70.7735901  85.1710281
   5.9646511  70.7470627  85.3564987   4.1872158  57.2790070  43.6997299
   5.1109967  57.4699287  43.5372200   3.8836179  58.0078278  44.2409172
  55.1733017  71.0702133  67.7170563  55.4867134  70.7846832  68.5752411
  55.9033546  71.5679169  67.3488922  14.9112692  70.6358337   1.9879277
  14.9246035  70.8081894   1.0464680  14.7032204  69.7041397   2.0579262
  39.3744049  31.7424374  20.1291103  39.1916733  32.6731300  20.0000553
  38.5171432  31.3201656  20.0741272  40.9732590  27.0301323  11.1418667
  41.4608154  27.3970070  11.8793764  40.5868797  26.2251930  11.4868555
  79.8765106  56.0021515  57.2194366  79.0335617  56.4220123  57.0480194
  79.6527023  55.0998230  57.4473572  78.5583878   1.1916163  11.6034870
  79.2865219   0.6885440  11.2388353  78.9622650   1.7509348  12.2670221
  84.2904968  41.5403671  17.9671116  83.7801743  40.8658409  17.5189838
  84.4787674  42.1886520  17.2885017  21.2904205  70.5102921  76.0062485
  20.3371639  70.4303360  76.0399704  21.4775887  70.7650757  75.1027603
   1.7275509  31.9909077  86.6978226   1.5346200  32.0705757  87.6319885
   1.1057554  32.5821838  86.2735596  65.1880646  35.1194878  53.4064407
  65.9547119  34.6094170  53.6678162  65.3788681  36.0087090  53.7049675
  82.9616089  26.7037640  77.3853455  83.6869812  26.4192944  76.8293381
  83.1822357  26.3715324  78.2555008  20.9059258  48.7763252  88.3437424
  20.8062191  49.4469643  89.0194168  21.8343430  48.5449715  88.3710709
  62.7087440  31.1967983  77.3586731  63.0363350  32.0281181  77.7019348
  63.4718513  30.6189690  77.3619232  32.6514778   8.7457314  21.3703594
  33.5384789   9.1033192  21.3304558  32.7054596   7.9174976  20.8935509
  14.8480024  26.7174873  56.9244537  15.1550684  27.3377247  56.2632065
  14.4404573  26.0127926  56.4209213  54.9266243  61.0886497  16.8715363
  54.3012810  60.9510193  17.5830364  54.4068756  60.9912415  16.0736599
   3.9011378   6.1720867  83.2467728   4.6466441   5.7601142  83.6834946
   4.2655873   6.5298834  82.4372101  22.4004498  34.6594849  58.3183098
  22.5304203  35.0805397  57.4685707  22.5166492  35.3645134  58.9552307
  69.8331223  64.3351746  75.5858765  69.7177353  63.4730759  75.1862488
  70.7451935  64.5627060  75.4053726   3.7181914  52.0120239  23.9737835
   4.3986840  51.4332924  23.6299362   3.9428346  52.1234627  24.8975506
  29.6783714  49.1530457   4.0967441  30.3607998  48.4974022   4.2404613
  29.4017410  49.4077415   4.9769936  59.2222710  15.9531517  48.5724220
  59.8346138  15.2822151  48.2705765  59.5802116  16.7738323  48.2339020
  32.9047165  70.1259460  35.0766335  32.0806274  69.9549637  35.5325623
  33.3810158  70.7194366  35.6572685  16.7278347  36.6969376   3.2746480
  16.1070461  36.5367661   2.5638752  16.5710831  37.6062584   3.5291936
  57.9104652  52.5203514  33.9878159  58.1239471  51.6742134  34.3811455
  57.1612778  52.8369026  34.4925423  35.3499298  14.2234287  12.4782324
  36.0805511  14.8409767  12.5108080  35.6171875  13.5700960  11.8317327
   7.1414828  71.2382126  11.1507702   7.6844301  71.6000290  11.8511505
   7.7687249  70.9221725  10.5004492  51.2028770  29.5395947  14.7313490
  51.2885361  28.7236023  15.2243519  51.2041626  30.2246170  15.3999109
  18.4396896  55.9483795   7.9794970  18.9139500  55.1170044   7.9907575
  18.7489319  56.4110985   8.7582731   2.9384184  39.6328621  12.2299852
   3.3060389  40.2584381  11.6056919   2.3769205  40.1618576  12.7966566
  59.6035423   0.3222151  53.6636162  60.2819061  -0.1214524  53.1544800
  60.0671310   1.0248115  54.1193314  82.6294937  24.1144218  20.2800560
  82.4420700  23.2524452  20.6516781  83.1739502  23.9318466  19.5142441
  63.9818001   9.2241964  76.4100189  64.5291367   9.9528742  76.7027283
  63.2870064   9.1679459  77.0660172  16.1916065  31.3347645  72.4909973
  16.7714481  31.0110264  71.8016357  16.3113708  30.7186184  73.2136612
   4.4025021  20.2941227  19.9167194   4.5003800  19.6826172  19.1868477
   3.4918883  20.5845966  19.8653469  44.9016190  57.3736801  72.1152725
  44.6628265  58.2487373  72.4210205  45.2793159  57.5179062  71.2476425
  30.4817791  58.2743607  71.5334396  30.1443481  57.4482498  71.8797302
  29.7006969  58.8044662  71.3749084  25.3721943  59.6805611  34.0188103
  24.5185070  59.8629951  33.6261673  25.9734993  60.2766075  33.5722809
  70.8724976  13.7705097  80.9240112  70.6226578  12.8470535  80.8917999
  71.4383698  13.8388481  81.6930084   0.9113692  22.3725491  56.4104424
   1.3474261  22.0894661  57.2141533   1.5559015  22.9271164  55.9708252
  27.9043026  16.4096413  81.7439499  27.9526596  15.4671803  81.9041367
  27.2583160  16.7270107  82.3749847  66.4280853  20.0494843  80.5949860
  66.4242325  19.6745052  81.4756699  65.5074997  20.0546417  80.3328323
  72.6974716  44.0399475  17.1743298  72.4268723  44.9175758  16.9045601
  72.0484848  43.4573517  16.7798367  75.8151627  18.1250668  38.0526695
  75.6781998  18.9096622  37.5217438  74.9330673  17.8413181  38.2927284
  50.1894073  42.8073654  50.8060722  50.3390808  41.8628578  50.8477707
  49.2731590  42.8932762  50.5427551  32.8242455  27.2559700  11.3417521
  32.4014626  28.1107368  11.4245825  33.0012169  26.9879112  12.2434492
  66.5612335   6.6983261  50.1101036  67.1905823   7.4141002  50.0216866
  65.7119370   7.1029615  49.9334717  83.4251862  55.2868118  66.0971603
  83.2728882  55.8022041  66.8892593  82.5614166  54.9477768  65.8622437
  49.6156273  15.0089407   3.5605021  48.7251892  14.8485775   3.2480292
  49.5221138  15.7178268   4.1968732  81.3142929  38.8831253  52.1149940
  81.5457764  38.7085571  51.2027588  81.7300034  39.7227364  52.3111267
  59.0860634  37.0008011  13.8854561  59.8854485  37.3083916  13.4581404
  58.4120407  37.6210175  13.6075077  81.1337585   1.9149134   2.3094893
  80.6313019   2.6227686   2.7128625  80.4710541   1.3293390   1.9432238
  64.2234802   3.6669734  50.1744423  63.9174347   4.0792418  49.3666039
  63.4224663   3.4010828  50.6260033  20.6859417  36.5787697  64.1928711
  20.1181564  36.9215393  64.8830566  21.2971458  36.0013313  64.6502762
  39.8534813  15.9216318  65.3685303  39.9834824  15.8464508  66.3138733
  38.9057655  16.0048542  65.2629547  82.8350677  15.5872068  31.1083374
  82.5383377  15.0270300  30.3911324  82.0567093  16.0827179  31.3630085
   3.7457895  44.4851151   3.1102643   3.7233851  43.6122017   2.7181571
   4.0647097  44.3394814   4.0009451  11.9636974  50.6306114  56.7697258
  11.6327991  51.2760582  57.3943367  12.5971098  51.1137085  56.2390289
  16.8080215  25.7749157   3.2483704  17.5088882  25.2107830   3.5751297
  16.8790398  26.5729351   3.7721601  50.1116447  53.4483871  27.5082569
  50.1832809  54.3946266  27.6336746  51.0172119  53.1475105  27.4330769
  30.2078705  26.5343361  10.1583176  30.0361423  25.6132774   9.9623747
  30.9883270  26.5198784  10.7123117  42.2488747  51.8057480  30.1897202
  42.2622108  52.7563896  30.0786572  41.3492432  51.6075859  30.4497719
  76.6367950  33.5647888  60.4841003  77.1189957  33.3016129  59.7002258
  75.9496918  32.9046631  60.5755272  67.9107208  38.7710571   8.9734993
  67.1497879  38.2066345   9.1100168  67.5488739  39.6565247   8.9381733
   2.2340488   3.3990028  58.5152664   1.4766952   3.9659278  58.6610184
   2.8254061   3.5979781  59.2411690   8.9452524  43.8964691  55.5875435
   9.0219021  44.4429054  56.3696976   9.5392818  43.1633339  55.7484055
   1.1019157  40.4806595  34.2808266   1.4077429  41.2505569  33.8012848
   1.8087038  40.2853394  34.8960762  69.5993652  43.4599190  40.4603081
  70.0529327  43.5407448  39.6212730  68.7133484  43.7769508  40.2851181
  43.2440414  42.3689575   2.9702351  42.7736015  42.9869690   2.4107871
  44.0911217  42.7857780   3.1281791  39.8144112   1.3823787  63.3288193
  39.5129242   0.6728027  62.7615089  39.3430481   2.1549623  63.0171051
  64.6259689  61.7344551  51.2378120  64.8316193  61.8382492  50.3087463
  65.2920837  61.1296120  51.5644493  66.0242310  45.8089333  62.4069977
  66.7754135  46.3861427  62.2699471  65.4865112  45.9255600  61.6237450
  17.2738266  15.5090714   0.7666975  17.4563255  16.0545864   0.0016226
  16.7187767  16.0552139   1.3233658  41.3535347  11.1256409  65.7450638
  41.7977409  11.9024382  65.4052124  41.2794495  10.5423975  64.9897003
  71.9711533   2.1259890  88.0550537  71.3686600   1.9607949  87.3298340
  72.2809067   3.0200262  87.9101944  77.6801605   8.0476465  24.3703327
  78.4615326   8.3850517  23.9323235  77.1573029   7.6646152  23.6659622
  15.8880072  53.3977051  30.4219093  15.2850266  54.0854950  30.1397877
  15.5293827  52.5948410  30.0437164  74.0843124  44.0360451   6.8802152
  74.7795639  44.6864128   6.9796019  74.5261383  43.1942253   6.9913859
  18.8494244  59.0318222  72.6619034  18.3351555  59.5772934  72.0667419
  18.2443390  58.8149338  73.3711777   9.1869717  36.6479683  83.0131989
   8.9599581  37.5083275  82.6603775   8.4935255  36.4576035  83.6449585
  63.8512802  41.9745216  33.2335091  63.9721413  41.1338997  32.7919388
  64.2704010  42.6114769  32.6548386  65.8299789  69.8413010   8.5678463
  65.1648560  70.2408752   9.1283693  66.4793777  70.5322189   8.4368849
  33.8393593  70.6489182  49.7876663  33.5228004  71.5512314  49.7446709
  33.5706711  70.2608871  48.9549179  37.0592804  18.1510429  86.6541290
  37.2591934  17.3169193  87.0789795  37.8513718  18.6755009  86.7714615
  47.5544434  27.5834541  87.3333664  46.8903465  27.4060650  86.6672287
  47.3602829  28.4709797  87.6347504   7.6486239  51.7879982  51.6397743
   8.2602987  51.8671417  50.9077759   7.5800591  50.8457642  51.7938042
  65.2596359  56.1004066  66.7575836  65.4712448  56.2988281  65.8453979
  65.0841599  55.1594467  66.7635269  36.9756432  54.5417328  37.4371758
  37.7751846  54.9499397  37.1050072  36.2814598  54.8790817  36.8710213
  68.3021164   8.4625778  81.6859818  68.9669724   7.7904992  81.5359573
  67.6335907   8.0247412  82.2128601  51.4792061  28.9686298  24.0391846
  50.6070442  29.3268528  24.2042255  51.5324707  28.1979313  24.6043568
  74.2595215   9.7471085  25.3390884  73.8908081   9.2616386  24.6011181
  74.8488617   9.1245184  25.7648659   7.0632181  18.3014698  10.4288740
   7.0097976  19.0951614  10.9612579   7.1350641  18.6208076   9.5293779
  48.0767632  45.0364380  20.6765366  47.4801102  44.3030701  20.5268536
  48.3799973  45.2808151  19.8021431  46.3488274  68.9459381  60.1499100
  47.0748863  69.3016434  59.6375160  46.6389656  69.0189514  61.0591507
  54.9108849  68.8982086  23.8128624  55.8394051  69.0077972  24.0179882
  54.4669037  69.5479279  24.3578205  36.9546432  68.4801941  64.6286163
  36.6048012  68.2517853  65.4898148  37.2592926  69.3824387  64.7254486
  72.1271973  12.9592838  25.6731644  72.0111160  12.2029762  25.0980511
  71.4649811  13.5858688  25.3814678   2.6082375  55.2541084  16.8118420
   3.0765529  54.4214783  16.8721771   1.6859853  55.0179405  16.9113827
  42.9692039  28.0369759  71.5433807  43.1638870  28.7361851  70.9193268
  42.9513855  27.2404919  71.0127869  72.9303818  66.6359482  17.8374672
  72.8981781  66.5972672  16.8815899  72.8245163  67.5647430  18.0432968
  12.9402437  61.0035553  24.3301811  12.2171001  60.7572861  23.7534256
  12.5591707  60.9970970  25.2082329  69.5506134  60.7645683  51.8036537
  69.7989655  59.8439789  51.7195702  68.6481094  60.7410851  52.1217155
  83.5383453  36.8962784   7.2598443  84.3007736  36.4432411   6.8997216
  83.0452271  36.2123146   7.7128983  20.1908836  34.4338188  20.1976757
  19.9078789  34.6216698  19.3027725  21.0743160  34.7984161  20.2510166
  11.8993826  61.7504234  49.4592133  10.9435530  61.7843170  49.4208336
  12.1786737  61.8297806  48.5471115  85.9759979  38.5839844  57.3057899
  86.7822342  38.6926613  57.8101845  85.6054153  37.7597237  57.6212082
  32.7143936  48.3778000  22.7616596  32.5410767  48.6464653  23.6638851
  31.8471642  48.3006630  22.3639259  15.3356714   9.2077179  13.3100586
  15.7093086  10.0441751  13.0326300  15.7325544   9.0398331  14.1647701
   4.7908649  17.9264488   3.6802006   4.4134803  17.3588581   4.3522530
   5.6325307  18.2013569   4.0438714  47.6793671  50.4770203  84.6800919
  47.0194321  51.1275024  84.4401093  48.1433411  50.2938881  83.8631287
  24.9051514  25.1182346  70.6935654  25.4406548  25.6744175  71.2593689
  25.4623795  24.3637238  70.5026627  75.6427612  23.2342300  56.6114502
  75.5603638  23.6885986  55.7730064  75.1276779  23.7621136  57.2215805
  29.2974663   0.4751930  21.6069565  29.3129711  -0.2323188  22.2514877
  29.8665810   0.1686073  20.9010201  44.4223518  57.2926559  56.4532776
  45.2056427  57.7353134  56.7799835  43.7475510  57.4892273  57.1030769
  57.2879524  30.5829945  50.7961311  57.0005760  30.0011997  51.4998093
  56.9538460  30.1755505  49.9970093  28.3237324  59.9003525   0.4814934
  29.1132984  59.6679802  -0.0071969  27.6993160  60.1763268  -0.1894570
  72.4693146  17.9661388  73.1416855  72.3163757  18.2687569  72.2465515
  71.9610825  18.5661678  73.6874924  41.6259117  62.6937447  81.9365845
  41.5887680  62.2889023  81.0700073  40.7823067  63.1361465  82.0306244
  43.1533546  11.1386871  13.6189346  43.3691216  11.1393929  12.6863718
  43.9942703  11.2613678  14.0594330  56.3922806  43.2190552  73.7057419
  56.3933411  43.5436325  74.6062317  57.2260857  42.7574921  73.6165314
  30.5970116  47.9433746  72.4236908  30.1482372  47.5990562  71.6514969
  29.9274673  47.9477882  73.1077423  49.6160126  19.6813335  13.5782776
  49.4134674  19.1007843  14.3118782  50.5228844  19.9486885  13.7277222
  53.3811035  71.3593597  20.7668877  53.0973969  71.4013977  21.6801109
  52.6010971  71.0821609  20.2862816  34.2953072   0.3858104  36.5810738
  35.2395554   0.5417828  36.5983124  33.9434967   0.9717135  37.2512817
  68.0727310  62.2475853  54.1714897  68.8040161  62.6716270  54.6205406
  68.2985077  61.3173943  54.1716499  64.6898651  46.9305725  55.3252296
  64.1747742  46.1248627  55.2834854  64.9307861  47.1082039  54.4160347
  39.1937103  60.6309891  49.5243149  39.8865700  60.9043579  50.1255188
  38.8163719  61.4507179  49.2051086  62.3634262  19.8033676   6.4271903
  62.9936943  20.1624355   7.0517449  61.9116745  20.5702877   6.0750790
  53.4620819  54.7031898  38.5936165  52.5449677  54.9054642  38.7785873
  53.4546814  54.3495636  37.7041664  16.2026958  51.2902489  43.4140930
  16.3192158  52.0478821  43.9873695  15.2889538  51.0338211  43.5387955
  52.1377296  60.6096115  25.6317463  51.5383377  61.3164597  25.8711834
  52.0589104  60.5407333  24.6802864  73.6061172  36.9679146  47.9070892
  73.5772858  36.3644981  48.6495781  72.9520721  37.6351204  48.1151619
  16.9956894  12.6525440  40.8397293  16.4296017  11.8812647  40.8096428
  16.7841034  13.1362305  40.0412865  69.8142166  44.4452248   5.5882621
  70.4619370  44.6877823   6.2499704  70.3242798  44.0219612   4.8976698
  26.7621975  65.7217255  15.6223221  26.9266586  65.6122131  14.6857367
  26.0102959  66.3124619  15.6660023  73.2008667  66.2097015   3.5391188
  72.6580276  66.5103531   2.8103094  73.1474915  65.2548141   3.4995303
  29.4582405  21.1973248  19.6967793  30.1583481  21.8499794  19.7078724
  29.3817787  20.9125938  20.6074467  14.0684519  45.3709221  48.4167404
  13.1770935  45.5876427  48.1433487  13.9706697  44.5802917  48.9473763
  63.3970718  62.2427139  54.6274376  62.7584229  62.9297218  54.8181610
  63.0026360  61.7402344  53.9145813  72.3471222  58.3159103  58.4296303
  73.0015793  58.9504433  58.1375923  72.8030014  57.4745178  58.4081421
  17.2107906  63.9863052  50.1523438  16.4130726  64.1273880  50.6622200
  17.8779621  63.7743225  50.8051643  44.3882408  55.7467537  37.7465096
  43.6092911  55.1910820  37.7728119  44.2733269  56.3549843  38.4766350
  19.3892479  65.2945099   5.7529211  18.6095562  65.1065598   6.2754073
  19.7416382  66.1006622   6.1299758  47.1589661   9.5318880  80.7720947
  47.1218109   8.7626915  80.2035980  46.8863029   9.2084923  81.6307602
  76.8830948  25.6598358  60.7562065  77.2202530  25.1546955  60.0163498
  77.2663498  25.2408600  61.5267906  59.3792419  63.7464104  34.4706192
  59.3391037  64.6630630  34.7433167  58.7769089  63.6906128  33.7287903
  44.6197243  22.4247913  75.5794525  44.3635712  23.0952263  74.9460983
  45.1508865  22.8937435  76.2230225  71.4248810  27.0711365  38.7855568
  70.5787125  27.4640980  38.9996071  71.8214645  27.6807137  38.1631660
  19.7197456  50.7671471  28.4246731  19.4898453  49.9249077  28.0322304
  18.8817348  51.2160072  28.5364647   5.5858979  57.3882866  47.8193016
   5.6043448  57.0060654  46.9419174   5.2949667  56.6736717  48.3857994
  59.0294075  23.9864578  10.7110882  58.2585793  24.5402374  10.8351059
  59.0772171  23.4602623  11.5092516  28.9318523  68.9165039  80.4379349
  29.4119740  69.6218109  80.0040512  29.3868999  68.7942429  81.2711334
  37.0803261  26.9594250   6.3027320  36.2042122  27.3418007   6.2532887
  37.3596306  27.1164341   7.2047133  46.6488533   7.1243148  28.6101952
  46.3791008   8.0012617  28.3373795  46.0508194   6.5356603  28.1496868
  74.7112122  61.3122597  48.5094070  74.5774689  60.6579018  47.8237267
  74.7056885  62.1496315  48.0457153  37.9024925  29.0981140   1.8580452
  38.1685295  28.1848297   1.9646645  38.5156822  29.5913773   2.4029531
  31.7630062   4.5903244  22.6037140  30.9031696   4.9111648  22.3317318
  31.6208324   4.2402959  23.4832020  31.0719604  63.0849266   6.3695002
  31.3804131  62.1933670   6.2076106  30.3744373  62.9831657   7.0170631
  85.7496567  41.6747742  39.9129105  85.0928650  41.0822449  39.5471649
  86.5881653  41.2817307  39.6707268   4.4933267  55.9572792   8.8762064
   4.8241839  55.1061058   8.5893869   5.1335926  56.2582359   9.5209675
  79.8649292  53.7792854  79.3034210  79.5008240  53.5495949  78.4484940
  80.6392212  53.2234077  79.3911667  44.4748077   6.2498016  49.2354965
  44.6132088   6.4966974  48.3211021  43.9289932   5.4646931  49.1916199
  79.7965088  66.2453079  36.5045509  80.0932922  67.0630493  36.1052322
  78.8443069  66.2637100  36.4086571  61.2090569  47.2403564  36.2593155
  60.7344971  47.8840027  36.7853851  61.1437454  46.4270020  36.7597351
  66.8000870  40.7860870  76.4351044  66.8091660  39.9920273  76.9695435
  67.1808929  40.5166168  75.5992813  74.1653442  38.3478584  33.6984863
  74.4506073  37.8058853  34.4340935  74.9774094  38.6858521  33.3209381
  86.4059906  38.8286362  13.9459839  86.7989807  37.9686241  13.7970743
  86.1859131  39.1462746  13.0702562  56.5436516  16.8804035  59.6699371
  56.6273842  15.9362717  59.5363846  55.6715164  16.9923782  60.0481949
  14.0379248  33.5094528  28.7606411  14.8390827  33.5905952  28.2431526
  14.2207575  33.9978523  29.5633049  84.8508530  64.3720703  35.2657394
  85.7993622  64.3329773  35.1431084  84.6482697  63.6116791  35.8107147
  22.8176422  45.3537827  81.4749756  22.6439896  44.4199715  81.5936050
  22.2939720  45.7826576  82.1517868   2.2340770  51.4543571  75.5327225
   1.5792091  51.8845749  76.0825348   2.9157505  51.1769257  76.1447525
  74.5786438  48.5239029  29.6081200  74.2293701  49.1277809  28.9527073
  74.8166504  49.0838890  30.3470383  79.0257950  56.0865288  41.4877548
  79.5904999  56.7899704  41.1675835  78.3578262  55.9880333  40.8092651
   6.4294772  14.5814486  66.4643250   7.3273878  14.7969179  66.7164383
   6.1264844  15.3485250  65.9785080  72.1801529  15.3832846  77.2130356
  72.1300278  15.5859299  78.1471939  72.5530548  14.5023756  77.1787186
  86.8255234  52.9579163  61.5579987  86.1609802  52.4012566  61.9638939
  86.3778915  53.7891808  61.4003372  76.6583786  61.9989510  28.7152042
  77.3153229  62.5583496  29.1296082  76.9463577  61.9249496  27.8053551
  49.4500504  41.1278992  81.5329437  49.3386917  40.5482063  82.2864609
  49.2002525  40.5924683  80.7798538  46.3347321  68.7119446  29.4782276
  47.0363503  68.2799683  28.9910316  45.8363380  67.9936447  29.8679409
  59.7617950   4.1800718  27.7284470  59.8709145   4.8372269  28.4158134
  59.0750580   4.5354075  27.1642151  58.1295509  70.4726486  28.3768158
  58.5978165  70.5315323  27.5440540  58.7320747  70.0086441  28.9581089
  49.5373840  63.0618439  38.9011879  49.8504829  62.1579247  38.9347572
  50.2544136  63.5775414  39.2701797  16.0671749  36.1014175  27.8908024
  16.2799072  36.9909325  27.6084194  16.2320786  36.1035690  28.8336887
  36.7446861  70.3195724  39.0305557  36.5303268  71.1917953  39.3614769
  37.5237427  70.0613174  39.5231056  33.4875183  48.4516792  64.7363129
  34.0527000  47.8666725  64.2317657  33.1047401  49.0372391  64.0829849
   5.5412416  21.8611908  15.2269907   4.9175406  21.2521229  15.6222935
   5.2052536  22.7284737  15.4531898  76.4916916  54.2096024  78.6646729
  77.1205978  54.4897499  79.3296814  76.0737915  55.0201073  78.3736954
  74.5540390  34.0565758  56.6651840  74.2139816  34.7977066  57.1664963
  75.4608154  33.9653244  56.9578705  53.3741875  24.1686592   0.8027465
  53.4375343  23.4099903   1.3829548  52.4365463  24.3547192   0.7532699
  76.0173950  31.0826740  17.3364849  76.7392197  30.4898090  17.1274052
  75.5655594  30.6614017  18.0676517  56.1894875  65.2923279   3.9125087
  56.0869408  65.2502670   4.8632698  57.0896225  65.0069427   3.7558374
  75.8728561  46.2474174  64.3724594  75.8111801  46.0589943  63.4360161
  75.0506668  46.6903610  64.5823059  10.0498781  61.7662964  65.4212418
   9.7298746  62.6652412  65.3455811  10.1452885  61.4690704  64.5163727
  19.8573837   0.1383366  62.0452652  20.6180286  -0.4054781  62.2500038
  20.2270298   0.9918944  61.8193588  55.6092148  34.3206825  12.1685972
  55.1558762  33.4817581  12.2517748  56.3541946  34.1347198  11.5970612
  30.6062851  16.3923264  78.4729004  30.4606590  16.4362259  77.5278625
  30.5991402  17.3057327  78.7590256  82.7722168   8.7488317  16.9266434
  82.2808228   9.5181170  17.2146873  83.5695038   9.1064072  16.5358639
  27.0507793  58.4429626  75.5540466  27.4398861  58.5539894  76.4215164
  26.3780212  57.7732964  75.6772385  11.5913696  18.8032551  15.1893797
  12.2172213  18.3240528  14.6463261  11.8642960  19.7180080  15.1188898
  73.8714218  55.1721382  71.0171127  74.6787033  55.6584320  70.8496170
  73.3494797  55.2939987  70.2240448  10.5027742  67.9569778  29.0291634
   9.7176247  68.0857925  28.4970188  10.4170723  67.0670090  29.3709984
  52.4495201  25.7026901  74.0145264  52.0656013  26.4756126  74.4285660
  52.1395035  24.9682598  74.5443726  29.3759117   2.4026980   1.1152103
  28.6723099   2.5828917   1.7386743  28.9342098   2.0089660   0.3628099
  30.9634743  61.9862747  88.6375351  30.9981785  62.0632553  89.5910034
  30.0325489  62.0543633  88.4254761  23.3105469  39.9819145  74.2597198
  23.3438816  39.6983032  75.1733246  22.7511749  39.3357887  73.8286057
  13.8243904  53.7096100   5.5997133  14.6793346  53.7463760   6.0286088
  13.9268265  54.2478676   4.8148446  26.1662579  37.6510048  68.9613724
  26.9917641  37.1680756  69.0007553  26.4168644  38.5312576  68.6810532
  25.3774891  28.1178036  85.3122559  25.5501328  27.4793682  86.0042267
  24.7537251  27.6802464  84.7328644  57.2660370   3.9326591  81.8589630
  57.3951797   3.3951578  82.6404037  57.5181656   3.3630950  81.1321487
  86.1273041  53.0404854  84.7195587  85.3289032  52.8374634  85.2069702
  86.8366699  52.7271156  85.2806549  20.8974514  64.9236145  27.5985603
  20.3753529  65.2076797  26.8482590  20.5572338  64.0547256  27.8118935
  28.1758099   2.5206194  77.1046524  27.6374493   1.8410472  76.6989670
  27.6059933   3.2889750  77.1388550  36.4192963  41.4479752  36.7193184
  36.0465279  41.3633461  35.8417587  37.0483665  40.7293015  36.7826538
  76.2979584  53.3925209  81.9353256  75.4241867  53.7124329  81.7108078
  76.4283447  52.6332855  81.3671799  42.0264702  67.2341766  15.1049995
  42.2039375  66.3774109  14.7168131  42.4211655  67.8590927  14.4967833
  67.3058701  25.1177635  59.7534256  67.5453491  24.2560482  59.4123573
  66.4648209  25.3135357  59.3404465  52.3437347  67.5729294  42.7157288
  53.0599670  67.8930054  43.2641792  52.5394020  67.9141235  41.8430710
  38.4942207  52.2157478  73.0373383  39.0059547  52.3499756  73.8350449
  39.0700760  52.5089645  72.3311844  44.9266548   6.8763361  42.8629646
  44.4841080   7.5323215  42.3243866  45.7814980   6.7625332  42.4476089
  84.0115128  53.2975464  13.2685766  83.4518890  52.7664871  12.7019892
  83.4416885  53.5574265  13.9924517  67.7438431  66.3140793   2.8341105
  68.1335907  65.5899277   2.3442729  68.3659515  67.0343781   2.7322812
   5.6901941  50.8806801  19.0657711   6.3857102  51.5362549  19.1178131
   6.0349164  50.1272049  19.5450153  52.1819992  44.6045265  13.3155451
  51.6183281  45.0054588  13.9771795  52.8870277  44.1955948  13.8174810
  24.6792736   4.5104852  20.0922108  25.2962780   3.7786961  20.0875168
  24.8362484   4.9614463  19.2626171   1.5831978  16.7943573  84.0395737
   2.4331560  17.2342644  84.0227051   1.1386281  17.1614628  84.8036499
  24.2830067   9.0018463  64.9504166  23.8416996   9.1915722  64.1224747
  25.1139946   8.6026220  64.6929016  71.0044632   2.9220283  82.4750748
  71.9080353   2.9024851  82.7903519  71.0761948   3.1899476  81.5589371
  60.5928764  47.8191566  16.4948883  60.4856339  47.3035240  17.2941704
  59.7822647  48.3233299  16.4245434  57.6919479  22.2034893  37.4769096
  57.2881737  21.3803959  37.2017479  57.6153603  22.2006302  38.4310379
   5.3129306  59.3686142  28.1050816   5.7743359  60.1931572  27.9519062
   4.4027252  59.6268654  28.2502079  27.8462791  69.5355835  32.5028114
  28.6170311  69.6326370  31.9435692  27.1127338  69.8001480  31.9477005
  27.0499744  27.4027710  83.1069336  26.6463394  27.4952774  83.9699249
  27.2596397  28.2987461  82.8432999  72.2563553   6.0573559  82.3073044
  72.1071854   5.6233912  83.1473312  71.3782806   6.2257209  81.9654388
  65.9034424  18.7024288  53.4123993  65.2328644  19.2328091  52.9819946
  65.4253464  18.2027187  54.0741730  70.4738235  40.1118164   4.1987314
  69.9455261  39.7948036   3.4661736  70.2936554  39.4952812   4.9084206
  23.1862545  59.1443710  59.1485596  24.0118332  58.8282013  59.5155563
  23.3184299  60.0858955  59.0376625  71.5611115   2.8214974  15.7697144
  70.8099976   3.2568517  16.1728611  72.2538910   3.4819634  15.7785358
  45.3901100  44.0797386  80.7169800  45.0232620  44.8507843  80.2843704
  45.8461075  43.6082268  80.0198593  58.8604126  67.9733505  13.8345175
  58.1934395  67.3002243  13.9697332  58.7394524  68.2514267  12.9266214
  54.5025520   1.8129340  71.8970947  53.8861198   2.4239669  72.3006744
  54.4473190   2.0008590  70.9601517  47.4393311  71.1000366   2.6477199
  47.9240036  70.5945511   1.9951779  46.7582703  70.5023499   2.9561937
  26.6969242  57.0684357  78.9289856  27.4038372  57.6341858  78.6184464
  26.5981083  57.2943535  79.8538818  10.1588945  39.0145340   7.2721562
   9.5432749  39.5632324   6.7861776  10.7204275  38.6303864   6.5988498
  56.1623497  18.9905624  10.1707916  55.7496338  19.5005226  10.8678131
  55.5228271  18.3098869   9.9612083  48.8743134  57.9724121  11.8672256
  47.9176826  57.9971123  11.8454189  49.1407089  58.8803482  11.7225933
  55.0391121   8.3017769  53.9436340  55.6655121   7.8976326  53.3431969
  54.9309578   9.1933489  53.6125221  10.4139357  50.9623375  32.5379524
  10.4519157  51.8518333  32.1864052  11.2843399  50.6011200  32.3701744
  53.5881119  41.2035980  43.9397240  54.1904793  40.6120872  43.4886169
  53.4658508  41.9314880  43.3302460  11.0406122  56.1416702  63.2019424
  11.4529152  56.4150200  64.0214081  11.3243408  55.2354240  63.0817184
  19.4605427  47.9141617  36.0321426  19.8118782  48.5125885  36.6914444
  19.5060291  47.0510864  36.4435577  85.3053894  33.0419273   5.5305376
  85.1534119  32.7292137   6.4223590  85.4442444  33.9840279   5.6274719
  61.0363007  -0.0421579  50.8259354  61.9046707  -0.4385118  50.7546959
  61.2078476   0.8943567  50.9246483   4.0706468  28.8681145  27.1964779
   3.4717224  29.5729866  26.9501514   3.5516744  28.3013172  27.7671261
  31.5804901  68.6701050  42.9336700  31.8192940  68.3095322  43.7875977
  32.3382607  69.1944504  42.6746864   9.5553970  51.4429092   2.1540239
   9.9516745  51.2626610   3.0064952   8.6510305  51.6826668   2.3561826
  21.0054550  18.3983231  60.8272476  21.2085476  18.9885483  61.5529327
  21.6362858  18.6306248  60.1458359   8.3711157  37.3561096  43.2969398
   7.5880151  37.9015312  43.2227592   9.0689392  37.8851166  42.9103851
  38.3434105  56.8047981  65.2224808  38.8232574  56.9750862  64.4119339
  38.5411911  55.8916664  65.4305725   6.2311378  61.2477798  43.2502327
   5.8666244  60.3689575  43.3552704   5.9548697  61.5185966  42.3746948
  46.0313072  13.0202475  32.8277931  45.1794243  12.5973330  32.9358101
  46.0815849  13.2224569  31.8935471  86.1262512  14.5155735  71.3039551
  85.3914261  13.9465971  71.5331497  86.9038925  13.9912767  71.4953156
  80.2598648  20.7170162  30.4075050  79.8808899  19.8976898  30.0892086
  80.3921661  20.5717030  31.3443165  54.3028069  21.7236347  26.3298759
  54.5047035  22.6592503  26.3200951  54.5026817  21.4261875  25.4422913
   6.3193779  41.0275002  70.0369415   5.5960584  40.4056244  70.1163635
   6.2093053  41.4131889  69.1678238  55.7932549  59.6280632  85.5767822
  55.1386223  59.2185593  85.0111084  55.7623672  59.1186485  86.3865891
  83.6358795   1.1621096  70.9002151  83.3630295   0.4054108  70.3813782
  83.6120758   0.8527873  71.8057480  59.4090424   4.3863683  69.0011520
  58.8443871   4.9095311  69.5700989  59.0944824   4.5710473  68.1161804
  67.8550568  22.6042843  16.2923431  67.3052444  23.3841133  16.2161827
  67.5188217  22.0079041  15.6233797  61.9601669  34.8195381  15.6664352
  61.8979836  34.1833954  14.9539127  62.7506561  35.3223991  15.4702482
   7.5510688  64.7322006  34.2079849   8.0422935  64.0898514  34.7201614
   7.2239590  65.3558655  34.8562698  78.8406448  42.1957130  23.3608398
  78.3607407  42.7772636  23.9505177  79.7490005  42.2499886  23.6577778
  64.9138184  19.4348679  32.7163277  64.5620728  19.2915535  31.8377075
  65.8616943  19.3530807  32.6111298  63.4738350  38.1177368  83.5274811
  63.2459946  38.9696198  83.1551743  63.6851768  37.5735970  82.7688828
  65.8946152  26.2611446   8.7832766  66.5345078  25.5527878   8.7125378
  65.9645691  26.5573597   9.6907978   2.9548440  56.2922821  59.4142990
   3.0650988  55.7608109  58.6258736   2.9565773  57.1952362  59.0966492
  27.7919121  70.1470947  55.9948616  27.3232059  70.2682648  55.1691132
  27.6108494  70.9445953  56.4922981  21.2311382  54.6631393   5.9023609
  21.1718235  53.7242241   5.7258763  20.3949928  55.0170937   5.5993538
  76.0409012  47.4248428  39.9144669  75.6069794  46.9199867  40.6022606
  76.7890091  47.8315773  40.3516655  32.4114571   7.3245044  40.8879890
  31.6145153   6.7986007  40.8205757  32.1344757   8.1224422  41.3383331
  76.5002213  56.4862938   8.3496389  76.0397186  57.0919266   8.9304800
  77.4254761  56.6060524   8.5636349   4.4494443   5.7643399  74.9226303
   3.9691732   5.0698638  75.3734894   3.8771646   6.5292659  74.9827652
  21.2088871  59.0503197  66.7492142  20.3877220  59.4330597  66.4402924
  21.7281399  59.8000412  67.0399475  50.9846725  27.0861416  71.4281845
  51.7686005  26.5378761  71.3950500  51.0146446  27.5960655  70.6186676
   9.7909365  69.9351730  53.0086594   9.8269939  69.6194839  53.9115868
  10.5315895  69.5098648  52.5764771  45.9596024  49.9010620  64.9347839
  46.4458694  50.4838943  64.3516159  46.5681267  49.1859474  65.1206207
   9.0429220  45.1744385   7.2518907   9.2015858  46.0477448   7.6102109
   9.8923464  44.7362518   7.3039007  23.1635742  56.8462410  39.3596306
  23.1795921  55.8933067  39.4484978  22.6695900  57.0034790  38.5549622
  56.0191231  39.6784286  80.9352264  56.5659218  38.9511032  80.6381760
  55.7344856  39.4214592  81.8122559  38.3354492  34.0314293   3.2302337
  39.2451096  34.2986717   3.3618910  37.8235474  34.8124542   3.4404311
  35.2207947  26.3396034  27.8334579  35.6671944  25.8850803  27.1190586
  34.4796295  25.7742634  28.0509338   8.5310774  33.2813873  22.4644260
   8.8982630  33.2252197  23.3466110   9.1356916  32.7763367  21.9207382
  57.1633415  18.9015121  52.6103249  57.6983948  18.7853451  53.3954697
  56.6914902  18.0738907  52.5174294  72.3064499  40.5806923  74.8265533
  71.9705582  40.4363785  75.7111816  72.3883972  41.5315857  74.7536316
  14.2537928  20.4512463  11.2718678  13.8706141  19.6330090  11.5879269
  13.7776232  20.6422882  10.4637852  30.9032650  11.9113016   0.7088447
  31.2713680  11.1040077   0.3496698  30.0093098  11.6768084   0.9580198
   2.9701555  68.3883820  59.5738754   2.4171808  69.1669693  59.6390991
   2.3848085  67.6606293  59.7835732  82.7123108  32.6163635   4.4413729
  81.8962860  32.7495689   4.9236474  83.3361893  33.2113724   4.8572745
  68.2592239  51.7975845  64.5700378  67.8834763  51.7297516  63.6922913
  68.5119553  52.7171745  64.6519775  11.6728773  37.9593010  33.7011986
  12.4210138  38.3822517  34.1226692  11.2444658  38.6620483  33.2124863
   6.9096417  59.5796318  48.9463692   7.6239815  59.1873894  49.4484596
   6.4735579  58.8364258  48.5295830  49.0297318  62.1466484  73.3370667
  49.7819366  62.4381218  72.8218307  48.8711433  62.8607216  73.9544601
  69.6485367  20.9468803  88.6235199  69.9845123  21.7835159  88.3019714
  68.9291077  21.1863022  89.2077560  84.5209274  67.1248322   0.0482953
  85.1627274  66.5398407   0.4509132  84.5972366  67.9408264   0.5428361
  23.5541515  10.0478468   7.1544557  24.3108883   9.7111044   6.6746798
  23.8712234  10.8500662   7.5693550  12.9315424   9.6949387  56.9314270
  12.7500744   8.9597034  57.5168571  13.7963152   9.5040627  56.5681534
  23.4829617  -0.0135948  31.3827419  23.3236103   0.5830896  30.6514378
  23.9836979   0.5063465  32.0113564  69.2017670   6.9099760  47.9763069
  68.5924988   7.6113191  47.7457809  69.2258987   6.3491955  47.2009506
  37.6830215  15.5016069  86.5008011  38.4610786  15.5007410  85.9432449
  36.9553566  15.6476669  85.8963165  58.1133766  16.0601997  16.2729759
  57.4134674  15.5777683  15.8329544  58.3163872  16.7827511  15.6788893
  80.9496307  50.3492737  34.3538094  81.2798691  50.7937355  35.1345940
  81.6293411  49.7115784  34.1357002  82.2846680  16.1647549  86.4570999
  83.0912933  15.8774939  86.0292282  81.7818985  16.5878029  85.7610474
  31.0745811  16.3824558  11.4360590  30.5071659  17.1465454  11.3338823
  31.8705196  16.6091633  10.9551048  63.6243095  16.2816448  50.2969360
  64.5016251  16.4308777  49.9444008  63.0344429  16.5408096  49.5890388
  45.0874977  63.6165123  26.0850048  45.5817032  64.1657639  26.6935406
  44.5314636  64.2306442  25.6055298  61.8004074  13.3483839  21.4049740
  62.7495995  13.4140167  21.3002815  61.5898438  12.4569941  21.1269093
   8.6537008  60.6484489  31.1657295   9.3199539  60.3307571  31.7751637
   9.0087214  60.4516830  30.2988510  58.3194809  20.0568981  12.4272852
  59.1074791  19.5138264  12.4463339  58.6167984  20.9205036  12.7136765
  77.1348953  53.1069527  64.7987137  77.0334549  53.5691910  65.6307526
  76.6230240  52.3052788  64.9061432  80.3075256  70.7263565  56.6942368
  79.8051453  70.9233780  55.9036446  81.1557465  71.1457138  56.5497360
  52.2904243  70.4252625  83.6734695  53.1910133  70.1251068  83.5506592
  51.8290710  70.1252747  82.8902817  30.8299866   3.8663361  83.1482315
  30.0157337   3.7087662  83.6261444  31.2288876   3.0004334  83.0626678
  65.3193665  26.4787540  49.2436638  64.6096420  26.4249458  48.6036453
  65.3182678  27.3933029  49.5262070  70.2712708  24.7108097  32.6686554
  70.5156555  25.1124706  31.8348827  70.6999741  23.8550587  32.6570320
  30.8691273  13.8775921  47.7965622  30.6545486  14.5860825  48.4033813
  31.8250389  13.8854980  47.7475433  35.3222885  52.0878143  12.2013836
  34.9606857  51.6899338  11.4094458  34.6533699  51.9409180  12.8701134
  13.2377901  57.1848297  26.9799461  12.5623293  57.8245735  26.7547626
  13.0456314  56.9424248  27.8857861  29.0226192  14.0652647   3.9080234
  28.1857204  14.0632000   3.4434505  28.7982006  13.8245029   4.8068566
  84.5117188  31.4287090  53.0603065  85.2861328  31.9912586  53.0525894
  84.8488464  30.5600891  53.2795677  57.3540688  35.9837456  81.7227631
  57.8905678  36.6673355  82.1241379  57.1263275  36.3330154  80.8611450
  26.1648312   0.8420125  36.7981949  27.0129852   0.6950865  37.2168579
  25.9467621   1.7494615  37.0108299  37.7249451  30.0009861   8.1122599
  37.1160393  29.8611050   8.8374491  37.3946457  30.7827587   7.6695800
   8.3770123  70.5729294  38.3120995   8.7525520  70.6556778  37.4355431
   8.1982288  71.4736938  38.5820885  25.5995178  65.9861298  50.7382584
  24.8268147  65.9064865  51.2975578  25.6672363  66.9232483  50.5553436
  83.4190674  14.7095613  36.4321785  83.7625198  15.4857903  36.8746033
  82.6212234  15.0137882  35.9995880   9.9689760  66.9462585  14.7936850
   9.0251875  67.1055222  14.7822905  10.3444757  67.7565689  15.1381111
  11.8633995  40.7695961   8.7806463  11.4349785  40.1261673   8.2161207
  12.6946659  40.9555168   8.3439999  15.1775494  35.0802155   5.3691940
  15.6725731  35.6474266   4.7780476  15.6557760  34.2510719   5.3619118
  52.5946426  39.0244560  14.9808102  52.2824211  39.6546974  14.3315477
  52.0811729  38.2341118  14.8136520  26.6587601  44.2812386  77.4391174
  25.8787498  44.5584602  77.9197083  26.6874676  44.8581772  76.6758728
  84.6996536  60.0742912  21.7761097  84.0961609  60.7371483  21.4404640
  85.5695724  60.4147758  21.5674438  85.1194305  60.9642181  24.4341507
  84.8188934  61.8050499  24.0893192  84.7196732  60.3124847  23.8582439
  74.0930405  16.1580009   1.6871358  73.9676514  17.0929394   1.8496102
  75.0107422  15.9976587   1.9070078  11.5969028  20.1653252  73.1512833
  11.3230982  20.9814796  73.5698013  11.2305241  20.2142773  72.2683334
  84.8033600  64.9659042  51.0245514  84.6955643  64.0552597  51.2990303
  84.4794006  65.4791183  51.7647552  47.5522079  48.7982941  30.2426529
  47.7699776  48.3773155  29.4110374  46.6247406  48.6019440  30.3748665
  49.3972969  67.0952301  54.3920135  50.1513443  67.3171082  54.9382896
  48.7064629  66.8730011  55.0161858  28.5065365  33.9885674  12.0188627
  27.6832886  34.4518776  12.1732607  29.1850815  34.6184196  12.2619600
  47.9653244  61.2444916  35.5390549  48.6745949  61.8855286  35.4917030
  47.6987572  61.2496986  36.4583740  13.3022966   5.8967090  29.8410397
  12.3612556   6.0284562  29.7256374  13.5787487   5.4368525  29.0483608
   2.6530313  38.8494301  49.8751984   3.3228123  39.0824966  50.5180855
   2.6197922  39.5993919  49.2813263  48.0196762  61.4754791  18.5801926
  48.0222969  61.4961052  19.5371685  47.9500160  60.5463562  18.3608456
   4.6042762  10.0374136  57.6907310   4.0968151  10.1716290  58.4911690
   4.3567576   9.1615915  57.3942490  30.5650215  60.9435616  29.0971489
  31.2126331  61.3862648  29.6456432  29.8712749  60.6875305  29.7049274
  81.8015747   4.5692563  86.4519653  82.0763397   4.6672320  85.5402985
  82.5463562   4.1498642  86.8828354  13.8639908   4.3238282  27.6076946
  13.7344856   4.2694702  26.6608562  14.0421705   3.4227960  27.8771858
  84.2225571  16.5198994  65.4750290  83.3144989  16.2305145  65.5639877
  84.1567535  17.4392185  65.2166672  33.7996559   9.0463772  39.0071106
  33.0651932   9.5193110  38.6157913  33.4574623   8.7182169  39.8386421
  72.0626907  21.0120392   3.4677353  71.5086670  20.4343243   2.9428239
  72.7756882  21.2599087   2.8791502  65.7673187   4.6351414  24.1510544
  65.3584366   3.9395459  24.6660252  66.2716980   5.1403365  24.7887192
  60.4211159  39.7943039  55.1129646  61.1397591  39.2317886  54.8242416
  59.8259811  39.2042007  55.5753784   7.1935372  48.9927902  20.6897087
   8.1264687  49.1927223  20.6129131   7.1166897  48.0881844  20.3863678
   7.6456351  29.7972355  42.2827835   7.2758760  30.4686317  42.8561440
   7.0509953  29.0524235  42.3716125  63.1258469  19.3451805  34.8770294
  63.8076897  19.2793484  34.2084579  63.4868279  18.8830700  35.6335869
  12.7202730  57.4355736  11.3767338  12.8053532  56.4930763  11.5205870
  13.2845869  57.8311577  12.0410347   9.0319700  44.8371964  16.7397041
   8.4031706  45.4753532  16.4026546   9.2717600  44.3112488  15.9767418
  64.8621979  11.5445738  43.9979019  65.7320938  11.1465378  44.0308914
  64.9738083  12.3990173  44.4146767  73.6182709  60.4451332  23.9660339
  74.0693359  59.6644592  24.2874756  72.8581619  60.1052170  23.4938889
  58.4520073  28.0478573  66.3308182  57.8718910  27.9056606  67.0787964
  59.2225113  28.4765148  66.7033844  86.5468826  39.3985062  62.8984985
  87.3431854  39.0646935  63.3116646  86.5309372  38.9812164  62.0371933
  10.0290041  21.8545227  57.8327560   9.6774788  20.9878922  58.0367432
   9.4517965  22.4620686  58.2953072  36.8602371  63.4147224  36.5935097
  37.1991653  63.7696648  37.4153214  36.8616943  64.1595230  35.9922562
  17.7955132  45.0442696  10.6723843  18.3563499  45.0535583   9.8967514
  18.0586281  45.8200645  11.1675034  63.6057739  32.4935799  26.0205708
  63.0833626  32.5757675  26.8184223  63.7122688  33.3928223  25.7103214
  64.2055893  33.9399223  12.1900167  63.2952461  34.2249680  12.2691374
  64.1987534  33.3150673  11.4649363  28.9505043  61.4020386  14.0253668
  29.4606628  60.6579475  14.3452063  28.5998192  61.8100204  14.8170757
  15.3670235  58.0950775   8.4223852  15.3238583  57.2327347   8.8355885
  14.9837093  58.6892662   9.0675545  63.6414909  10.8849602  23.1420650
  64.0256577  10.3973713  23.8706970  64.3815308  11.0781670  22.5665283
  77.5323944  20.7097511  28.2586346  77.4594193  20.4245872  27.3478165
  77.1189575  21.5729351  28.2732182   4.3697209  12.6987362  30.7289886
   4.7267475  12.4240494  31.5735664   3.4215577  12.6172752  30.8318615
  79.3369598   7.6313591  81.0791931  80.0225677   7.7428007  81.7378006
  78.6015930   8.1476145  81.4092560  70.4573441   9.1794758   0.9573764
  70.4176102  10.1011553   1.2126422  70.9830627   8.7640734   1.6409631
   5.7988744   9.9852247  40.3874893   6.1602769   9.1012630  40.3224449
   6.0894852  10.3004217  41.2433090   2.1921399  70.1450577  65.1693802
   3.0077996  70.1989059  65.6674042   1.8194978  69.2971344  65.4110336
  56.8321419   0.7725899  72.4401398  57.5680733   1.1546861  71.9619675
  56.0720863   1.2798865  72.1551895  85.4614563  44.5059433  29.0706196
  86.1995697  45.0970039  29.2191715  84.6968155  44.9976349  29.3702774
  27.6971169  40.1584778  77.5250015  27.9021969  40.6441193  76.7260437
  28.0097160  40.7206154  78.2338867  17.1798592  32.9918289   7.4920592
  17.9711266  33.3644104   7.1030741  17.4940090  32.5043907   8.2535992
   9.1876392  36.4239197  23.3722820   9.0118418  36.5772133  24.3006287
   9.8852158  35.7684975  23.3656502  30.7215557  24.6465797   5.0764632
  30.4919453  25.4934959   5.4588819  30.0420494  24.0499306   5.3903298
  63.9489136  56.2774124  48.9432182  63.8409843  56.9898186  49.5733452
  63.1122665  55.8127403  48.9614296  83.8441086  67.7652130  57.4067993
  84.5964737  67.2620621  57.0953140  83.4033813  68.0560837  56.6084328
  75.3272705  13.4747839  56.3829803  74.5500259  13.4076033  56.9376106
  75.6092072  12.5690432  56.2550125  18.1796417  66.3612366  83.4164581
  17.9530582  66.6475143  84.3013000  18.9352036  66.8979950  83.1771851
   2.7459831  41.4458885  43.2512093   3.1559796  41.3549194  42.3910599
   2.3385038  40.5950928  43.4134979  84.4470673  37.4568443  35.4818001
  84.8530121  38.0531960  36.1109276  83.5325851  37.4022217  35.7592392
   3.5130324  68.6445312  43.8898621   3.8161187  69.2693634  43.2311096
   4.1116776  68.7644577  44.6270676   9.3167238  54.4217529   0.7953104
   9.6723166  53.5500603   0.9683354   9.2800808  54.4803085  -0.1593939
  41.4026489   9.1598949  37.6382675  41.9451027   9.8617210  37.9980125
  42.0297546   8.5357580  37.2730026  65.5082703  23.4567394   0.6630239
  64.8626709  22.7574902   0.7654138  65.0097351  24.2637024   0.7915065
   5.0970688  62.8457489  12.0872326   4.1858902  63.0804482  12.2630243
   5.4560666  63.6057281  11.6292133  22.8426704  35.0617676  18.6017265
  23.0208454  35.7195625  17.9295712  22.2863445  34.4171371  18.1644821
  64.4530716  24.5771790  28.8521748  63.9854469  25.3555470  28.5493584
  63.8169556  23.8670921  28.7663727  37.3811951  59.0697975  50.9164352
  38.1195412  59.3350639  50.3680649  37.3414612  59.7355385  51.6030540
   8.1063128   9.2989855  27.3101254   7.2471523   9.1991177  27.7201271
   7.9871111  10.0030088  26.6726513  82.1556473  62.9752159  32.6512184
  83.0306244  63.3430939  32.5274811  82.3122482  62.0701256  32.9205093
  81.1510010  53.0633965  57.8477936  81.6585083  53.8031006  58.1817055
  81.6219177  52.2901230  58.1584663  50.1758537  28.3159752  17.8305588
  50.4624023  28.2029667  18.7368431  50.9769974  28.2308979  17.3136787
  65.7301712  63.4474487  30.0619240  65.7886276  63.1940231  30.9831123
  66.6367722  63.4450035  29.7548447  47.2666664  68.2249680  57.2045937
  46.7423134  67.8969650  57.9351387  47.9864960  67.5988998  57.1263428
  65.8870239  37.8344040  46.9722023  66.7128143  38.2639923  46.7491493
  65.8578110  37.0630150  46.4062233  81.0351639   3.3103437  21.8732033
  81.3081970   2.5345669  21.3834534  80.7936783   3.9461131  21.1996212
  45.4419403  23.5338383   3.2093313  46.3840294  23.6946087   3.1559322
  45.2281189  23.0884781   2.3894737  68.1624374  22.1638222   1.4088145
  68.6010895  22.9741783   1.6679193  67.2660675  22.4311104   1.2055534
  78.5023422  28.1975231  76.3137054  77.6523819  28.6312199  76.2381439
  78.7389679  27.9757462  75.4131165  39.2147141  29.9839077  12.5796604
  39.7071304  30.7277603  12.9267025  38.6278381  30.3680782  11.9283333
  13.9843645  12.5739832   1.4731226  14.3036222  12.6894875   0.5781561
  13.1387367  13.0223055   1.4854926  75.2291718  62.2737312  52.9137154
  75.7222672  61.6151123  53.4029045  74.4768600  61.7975464  52.5622787
  85.6863098  41.9758186  27.9129124  86.1511612  41.6138992  28.6673374
  85.4225006  42.8525467  28.1921654  44.9251060  21.3893681   5.2233033
  44.0281677  21.0741806   5.1119738  44.9461517  22.2229042   4.7531900
  20.5487766  10.9889002  84.3249741  21.3687382  10.8984900  83.8394623
  20.6758995  10.4574118  85.1108475  33.3217926  69.7420044  55.9330215
  32.4203796  69.7207489  55.6117172  33.4272575  70.6228867  56.2923965
  31.7211514   3.8894172  12.0478363  31.6123695   3.3772779  11.2465181
  31.2351170   3.4008720  12.7121601  83.7372131   3.4254642  79.2563629
  82.7910538   3.4037037  79.3996735  83.8359146   3.4014721  78.3045731
  62.3317719  25.3169003  88.2628250  62.6919022  25.0271626  87.4246216
  61.9051743  24.5389175  88.6219711  21.1660175  39.6053352  52.6887741
  20.6898289  40.4274063  52.8057137  21.1191044  39.1776505  53.5438271
  36.3915329  53.4750519  47.0672913  37.2596436  53.3746719  47.4578476
  36.2164879  54.4150963  47.1109657  75.3327789  32.1106949  10.0767622
  75.3351288  32.1890564  11.0307465  76.1648483  31.6854038   9.8693333
  20.6122532  49.2710876  76.1008224  20.9323330  48.8090706  75.3260193
  21.1789684  50.0391197  76.1728592  50.0372772   2.1073616  75.4960403
  49.7886276   2.7618430  76.1487732  49.2049980   1.7937189  75.1422501
  52.1467171  70.9891586   5.0757470  51.4066391  71.3082199   4.5593023
  52.6249771  70.4137039   4.4787927  79.7117233  43.6558342  61.8154869
  78.9781265  43.1440697  61.4746552  79.3124466  44.2580338  62.4433136
  53.9893990  44.2328262  22.8747387  53.2970276  43.6290779  23.1437130
  53.5298729  44.9331207  22.4114304  83.8596649  27.1106491  89.3380814
  82.9888535  27.1248379  88.9409409  84.1646957  26.2118187  89.2144089
  62.2836189   2.7818911  12.2962961  61.6829300   2.3221395  11.7097502
  61.7201042   3.1453707  12.9793539  15.6331444  61.3996582  88.0884323
  15.7006330  62.1500359  88.6788635  15.7462330  60.6372948  88.6560974
  84.3350449   2.7298198  24.5134697  84.2635880   1.8145463  24.2425442
  85.0297241   2.7311437  25.1719913  82.3607941  50.5653419  14.4526539
  83.0870285  50.5654869  15.0762043  82.6536407  49.9923248  13.7440462
  71.1855774  10.5557556  60.3251839  71.1879730  11.4322100  59.9404068
  71.9661560  10.5350990  60.8788147  24.4705639  67.8120651  69.2463074
  24.7282791  66.9639282  68.8851013  24.1744576  68.3153992  68.4878845
  33.9903450  26.5552101   3.5169950  33.4001694  26.6205978   2.7662311
  33.4116440  26.4023838   4.2639742   9.3792009  26.8564415  41.8969994
   8.9148655  27.6819191  41.7583885   9.6771793  26.5997906  41.0243187
  34.4763870  55.8216705  69.8502045  35.2594185  55.6149178  70.3604431
  34.0760765  56.5575066  70.3133774  38.8523254  12.4517946  52.3170013
  39.2002754  12.7218809  51.4671669  39.2394981  13.0662069  52.9405594
  24.7134514  13.3615351  83.8226013  25.0454121  13.6963959  82.9895935
  23.8952751  13.8380032  83.9633026  33.3406677  54.6160202   9.6716270
  32.6550789  55.2602844   9.4952126  33.9976692  55.0970840  10.1747732
  62.5357513  42.1042404  72.5007095  62.1297150  41.3809242  72.0230255
  62.7133789  42.7641258  71.8304672  15.2869205  11.8908825  44.4003563
  14.3866405  12.0850172  44.1395111  15.2397041  11.0195255  44.7937241
  14.6956701  49.8052101   7.4786425  15.6364307  49.6311073   7.4488311
  14.6055250  50.5287323   8.0988226  19.4862289  48.9678383  24.4725285
  20.0657253  49.4501801  25.0622425  19.8550243  48.0850182  24.4434376
  23.7230225  49.0838852  56.5932426  24.6247730  48.7771034  56.6879082
  23.3218498  48.9150581  57.4457626  67.7726288  58.4555435  65.0801849
  68.5776672  58.5000381  64.5642776  67.8704910  57.6636887  65.6089783
  58.7120590  64.8602295  53.4406471  59.2926140  64.5512238  52.7451591
  57.8430824  64.8725433  53.0394440  19.2438564  13.4469843  80.2824249
  18.9389095  12.6590376  80.7322922  19.3272476  14.1015587  80.9758301
   9.1182575  20.0398293  23.8699932   9.5112076  20.2371254  24.7202263
   8.2252474  20.3783607  23.9345131  61.0751152   2.7227511  48.0416412
  61.0602989   2.8199270  48.9937782  61.5193672   3.5102308  47.7273979
  54.0146484  54.0376358   4.1969571  53.5527611  54.8749924   4.2384634
  53.3217964  53.3791466   4.2477560  65.5150833  30.0456524  66.7287979
  66.0328369  29.6780205  67.4450455  65.7226486  30.9800262  66.7382584
  61.1181755  45.4310303  38.3023758  61.0710144  45.4899902  39.2565956
  60.4503326  44.7862663  38.0689468  73.9501419  16.1778965  75.2150726
  73.5471954  16.6989975  74.5205765  73.3278198  16.2240562  75.9408951
  82.7656097  29.0410652  49.5773964  82.8629532  28.6705971  50.4546127
  83.5942459  28.8437233  49.1407547  46.4230919  63.1972466  63.7085266
  47.2405357  62.8980331  63.3104248  46.0195351  62.4010658  64.0541763
  37.7437286   3.0736651  22.5683556  38.0103073   2.9872696  23.4836159
  38.1176033   2.3055987  22.1364708  62.0788651  37.4615784  58.6892014
  61.1478424  37.3828316  58.4812889  62.5208473  37.3782539  57.8442535
  80.0477982  15.7434082  70.2472916  80.7537155  15.2310209  70.6414642
  79.8053436  16.3765926  70.9229584  58.3785858  49.6437988  65.3986816
  58.3701553  50.1740417  66.1955490  58.4030533  48.7399025  65.7126923
  13.3344879  36.1941528  51.9434128  12.5338097  36.3327942  52.4493027
  13.7579365  37.0524025  51.9252243  77.8439560  55.2173691  63.1218834
  77.4934540  54.4524574  63.5782738  78.3310089  54.8529510  62.3828239
  46.1647339  65.5649261  11.4628372  46.2862015  66.2435913  10.7988443
  46.3748474  64.7475815  11.0111399  44.6420860  34.9253502  18.1799908
  45.4410095  34.8170662  17.6640129  44.2986336  35.7781601  17.9135551
   1.1283476  27.0904255  14.1903772   0.7171695  26.2457447  14.3738909
   0.4075808  27.6497974  13.9008408  35.1506157  68.0363159   9.8728361
  34.4180527  67.6319046  10.3376303  35.8443604  68.1008911  10.5291748
  58.8444633   9.2113008  48.9094124  58.0867310   8.6546984  49.0890350
  59.0021172   9.6741362  49.7323074  85.4187546  50.9883003  14.2795286
  85.7516785  50.4609299  13.5533953  84.8679276  51.6503944  13.8618469
  48.1004410  69.9633102  23.0061855  48.2481918  69.1704941  23.5217857
  48.8677673  70.5085068  23.1799774   0.5411407  24.2600689  25.3565445
  -0.2710359  24.7133198  25.1303501   1.2112936  24.6899128  24.8251667
  28.3298683  60.0172615  71.4167175  27.9905796  60.9117241  71.3842468
  27.5797005  59.4860916  71.6838074  82.6151123  19.7389717  29.0799561
  81.7696838  19.8473701  29.5155411  82.4276886  19.1738014  28.3304996
  29.8384590  52.9168549   1.2608231  30.2937241  52.1412315   1.5885040
  29.7708492  53.4940796   2.0213990   3.3414044  54.8346977  52.2564621
   3.3783321  55.0952110  51.3361359   2.6917884  55.4203949  52.6452980
   9.6676817  52.0286942  65.3952713   8.9643793  51.8546410  66.0208130
  10.4400206  51.6166153  65.7824631  57.5035019   5.5392652  46.8959885
  57.9282570   4.6814809  46.9005470  56.7817497   5.4458361  46.2742348
  24.8898964  70.5959778  23.6814556  25.4015217  70.2162094  24.3957710
  25.4621582  71.2654572  23.3065548  34.2927895  55.3190269  39.9582977
  33.5712624  54.7316818  40.1833687  34.0620041  55.6620560  39.0949898
  19.1415100  48.8935852  59.3646774  18.8196545  48.7400742  58.4763794
  19.7139206  49.6564713  59.2835312  40.9757156  24.6173744  88.6426620
  40.2066460  25.1714630  88.7758942  41.0410042  24.5227184  87.6923981
  56.6833611   7.8850708  26.4789314  56.1392517   7.1640315  26.1622639
  56.9689369   7.6055341  27.3487225  76.4275970  40.7255058  73.2878647
  76.9674606  39.9563675  73.1056442  76.1725311  41.0492287  72.4239349
   7.3400183  45.1566734  29.4940567   6.7035079  44.8361549  30.1330833
   7.8554525  45.8050003  29.9738789  59.3946648  25.5860615  54.9032478
  59.4907722  24.7372837  54.4713058  59.4890137  26.2259350  54.1976318
  10.3401365  26.1371269  39.2955551  10.6586914  25.3438549  38.8648834
  10.6074314  26.8490677  38.7142410  80.0512543  67.0640335   6.0701013
  80.7892227  66.7233429   5.5645666  79.6456528  67.7124481   5.4945354
  84.4523773  49.2576408  88.6395416  85.2822037  48.9419060  88.2818756
  83.7919083  48.6782722  88.2596130  45.8746681   4.6738133  13.3016233
  45.1691246   4.8043289  12.6680574  46.5432129   4.1877856  12.8188629
  69.3771667  16.0530739  48.3706284  68.7038193  15.4822702  48.7407875
  70.1676483  15.8452930  48.8688126  26.3381824  40.1512032  15.6971617
  26.8104534  40.8833656  15.3007660  25.7729454  40.5581589  16.3537617
  83.1180420  64.9128418  66.8472824  83.4815216  64.2348709  66.2776642
  82.1706696  64.8408356  66.7309265  69.8368607  35.7321587  75.7464447
  70.5720444  36.0811996  75.2425537  69.4460220  35.0720634  75.1739502
  43.4352951   9.7576647  61.1550674  44.1561661   9.9454670  60.5539780
  43.1481323  10.6180334  61.4608994  41.0223923  68.8149033  76.1436081
  40.5207138  68.1498795  76.6150970  40.3624191  69.4279556  75.8198242
  26.8746300   8.5943556  41.9029465  26.8839397   8.3857250  42.8370857
  25.9954739   8.9374380  41.7429085  12.3760033  31.1021233  23.8244724
  12.8786249  30.2924824  23.9143867  12.5099125  31.5605431  24.6540203
  82.9693146  50.2294579  54.3976364  83.2972870  49.7836647  55.1786194
  83.7449036  50.3575401  53.8514824  78.5154343  25.9576645  11.9528360
  78.7202606  25.3389893  12.6539202  77.6755905  25.6569176  11.6057978
  60.8587761   7.4658675   9.2400608  61.4593582   6.9610658   9.7884302
  60.0004463   7.0741148   9.4014091  42.0918350  71.1744232  36.1888733
  42.4385796  71.9812469  36.5697021  41.8588409  71.4138031  35.2918549
  40.6077614  35.0418777   7.8227034  40.4618759  35.7838020   7.2357650
  40.6351318  35.4300842   8.6972198  10.1336699  57.7331352  20.2533779
   9.9862690  57.8443756  19.3141594   9.3524456  57.2768898  20.5660439
  57.1106873  47.7855263  69.1662903  56.3154526  47.2856026  69.3504486
  57.3289413  47.5635071  68.2611313  77.1242676  39.9028664  79.9443054
  77.7387466  40.5024300  80.3675842  77.2806931  40.0215492  79.0074615
  25.3496399  64.2440262  71.6814194  25.4284401  65.1246948  72.0480881
  26.1443100  64.1295853  71.1602402  24.4556370  67.8265915  78.1822128
  24.1185970  66.9683304  78.4391556  25.3547382  67.8388824  78.5103836
  17.7274303  59.7319527  58.6022911  18.5568199  60.1917801  58.4722824
  17.9117889  59.0963783  59.2938766  35.8072090  14.0152702  75.0718613
  36.2382584  14.4652061  75.7984924  36.4422379  14.0524635  74.3566055
   5.3816175  36.0870247  33.3509407   5.3861132  36.7626228  32.6728706
   4.7066216  35.4695282  33.0693245  37.4086342  46.8750267  20.8971252
  38.1810379  47.4375076  20.8402119  36.7193298  47.4479828  21.2330017
  74.6933899  46.0381126  47.2899475  75.5179520  46.0327072  47.7760620
  74.1947784  45.3076019  47.6559677  82.9489441  60.4407921  88.4293289
  83.7203217  60.9736099  88.2361679  83.2790527  59.7334595  88.9833527
  69.3371048  58.1812019   4.6502042  69.4474335  58.2381172   3.7010891
  70.0604553  57.6266747   4.9425874  84.0030899  69.9669647  38.4267235
  84.9230499  70.1878052  38.2813377  83.8890610  69.1200104  37.9955673
  77.7974014  22.0713310  33.7455673  77.6640930  21.8637695  32.8207016
  78.0760727  21.2443600  34.1388779   0.3223570  63.6805458  85.3633270
   0.4218635  63.9282532  86.2825546  -0.5948035  63.8672791  85.1628876
   1.8992813  14.3862963  33.2794342   1.1184587  14.6340189  33.7745934
   1.6174529  14.4007511  32.3647804  45.7996559  26.3982620  10.1771555
  45.5807991  26.2569637   9.2560863  45.3236237  25.7117996  10.6444807
  70.0362625  23.6513920  58.9005356  70.1979904  23.3070183  59.7788773
  69.3897018  23.0541401  58.5244064  23.0725765  59.1290398  75.6760178
  23.6784458  58.4496117  75.9718704  22.3529091  58.6472206  75.2683868
  24.2915955  54.4839630  65.3326035  23.3821011  54.2059212  65.2242279
  24.2496014  55.1979065  65.9688034  22.8014469  27.3417702  72.7447205
  22.5098419  26.4573212  72.5234756  23.0061398  27.7445869  71.9008789
  41.1901512  27.2404289   6.4958019  41.7575569  26.5094929   6.7407832
  40.9569244  27.0673428   5.5837293  63.3181076   8.4564075  80.2768478
  64.2317581   8.4173708  79.9940948  63.0847206   7.5461807  80.4591904
  25.7442684   5.1175480  51.3278427  24.8958950   4.9711375  51.7462425
  25.8029671   4.4344563  50.6598816  35.4162254  60.0682526   1.1034344
  35.1320419  60.0977364   0.1898691  35.0562630  59.2476006   1.4398731
  68.7129440  16.4241619  45.6184158  68.9273682  16.2021427  46.5244865
  68.2572479  17.2637520  45.6789627  61.2454643  46.3803368  58.8711700
  60.8820457  46.8564262  58.1245117  60.4846039  46.1621094  59.4094048
   3.4630156  24.3204231  51.2802200   2.5373390  24.5602188  51.3232613
   3.6212459  24.1415482  50.3532906  20.7631092  41.5774231  25.6209469
  21.2670193  41.8982658  24.8730392  20.9908199  40.6497726  25.6829548
  11.0751171  38.3311272   9.7321682  10.7043829  38.6723557   8.9183197
  10.9433298  37.3846436   9.6770611  55.5771713  45.4098740  69.0243835
  55.8740654  44.9340324  68.2487106  55.6090927  44.7628632  69.7290726
   6.4550753  48.5541840  74.2149429   6.8181252  48.8143578  73.3683395
   5.9472475  49.3133621  74.5012817   7.2506886  55.4248657  72.0071640
   7.0893250  54.5248604  72.2903214   7.3074923  55.3693008  71.0532684
  14.9916048   5.1247668  25.0713863  15.8303328   5.5837765  25.0258083
  14.4020710   5.6486683  24.5289764   4.4518027  48.6626816  59.6708794
   4.4546309  48.7641106  60.6226883   4.4062500  49.5577698  59.3347626
  86.1936111  68.8563080  76.0143204  86.1732330  69.4311752  76.7793884
  86.5043869  68.0169449  76.3536301  58.0696373   1.9255230   1.8114247
  57.2569275   2.0676639   1.3261046  58.3885765   2.8064184   2.0077207
  20.7444649  47.0463753  60.8378487  20.0925846  47.1942825  60.1527176
  21.5746403  47.3067589  60.4387970  51.4830551  71.4391174  88.3270340
  51.8347168  71.5035172  87.4391022  52.1803169  71.7817078  88.8862228
   6.5892029  39.5007324  77.5201874   7.4465675  39.8605042  77.7476196
   6.7598753  38.9307556  76.7703705  16.2685585  16.1237679   5.9221983
  16.0535355  15.6739321   5.1051030  16.3802299  15.4197092   6.5609970
  17.1995888  63.7716599  33.8866615  17.3326912  62.9414978  33.4291191
  16.6248093  64.2739716  33.3091278  57.5692101  20.8128757  64.6993256
  57.4105186  20.3206444  65.5047760  58.3866577  20.4525642  64.3555450
  76.8033218   4.7710075  26.3633289  77.3669815   5.5442066  26.3371906
  77.1555786   4.1947713  25.6850262   6.5006151  47.0454826  37.2234230
   7.1256609  47.7466087  37.0391159   6.9939375  46.4174004  37.7510376
  49.9394379   7.8660688  41.3537140  49.4313278   7.9441338  42.1611557
  50.3244858   8.7333775  41.2282295  21.5720177  70.5431519  18.0532932
  21.3178520  70.8189163  18.9339657  20.7423725  70.4210815  17.5917530
  66.7785187  25.9436016  82.6612244  66.4921646  26.7798996  82.2940140
  66.4690475  25.2887268  82.0354462   3.7516739  52.5247650  -0.1637609
   3.1868958  51.7548141  -0.2303130   3.4442666  52.9802704   0.6199785
  56.4772873  57.3430481  19.1522675  56.4641228  58.2882233  19.0016022
  55.5555534  57.1026306  19.2462635  12.5992098  62.7435036  81.3251190
  13.1251574  62.4396057  80.5853500  11.9156809  63.2828674  80.9274902
  45.8815269  32.9658813   7.2705889  45.4483337  33.7749100   6.9984698
  45.1856575  32.4445152   7.6708035  72.5405426  35.0996933  49.7144737
  71.9384537  35.6828461  49.2522430  72.0357361  34.2992134  49.8581161
  38.3266907  21.4078922  15.2017555  38.1651802  22.3426647  15.0738993
  38.1325569  21.0128326  14.3517733  20.1046791  71.1524124  30.4417725
  20.2337246  71.7616959  31.1686459  20.4643803  70.3234177  30.7573967
  64.6041412  69.4994278  82.1870193  64.8450089  70.2440186  81.6358414
  64.3956299  69.8879013  83.0366287  74.4585800  44.0944939  62.1622429
  75.2338409  43.5333328  62.1450233  74.7977066  44.9762802  62.0083694
  58.1531715   1.0004005  25.1158390  57.6637115   1.2218443  24.3236122
  58.7019196   1.7672017  25.2805328   8.1509590   8.3625298  10.2761164
   8.2161484   9.2111187   9.8380756   8.6433611   7.7643704   9.7139969
  27.0779743  52.7096367   2.1019852  26.8787231  53.2698402   2.8521211
  28.0263195  52.7820816   1.9941585  19.6685333  21.9732151  72.1770020
  20.5841122  22.0467587  71.9076767  19.1711826  22.2966022  71.4258118
  54.6603050  63.6388817  29.6900635  55.2814255  63.0187531  30.0720062
  54.3044930  63.1825676  28.9275608  31.9618626  45.5082703  84.4112701
  31.6849709  46.3467369  84.7807770  31.1893520  45.1836319  83.9486008
  79.7040329  53.3843155  34.7913857  79.8605652  52.4504280  34.6514397
  78.9961472  53.4147148  35.4349670  72.2857208  24.6465874  48.2898712
  71.9461060  24.2320957  49.0830193  72.1868744  23.9799557  47.6101189
   8.5130157  12.2842360  84.8844223   8.3474503  12.9881086  84.2572174
   9.1925144  11.7508926  84.4720383  85.0240936  31.0964947  22.9713230
  84.8670425  30.3236485  23.5137920  85.3517914  31.7558556  23.5829525
  68.0191879  69.6049576  79.8718491  67.2394714  70.1306992  80.0503769
  68.6312485  69.8397827  80.5693359  17.0606289  33.3010216  84.5275726
  16.2550793  32.8190727  84.3403625  17.3282547  33.6583099  83.6808395
  47.6859207  63.2522774  69.9908447  47.3118973  62.3839264  70.1401901
  47.0640945  63.6832962  69.4045105  70.9722214  47.5337601  80.1247253
  71.7489243  47.5506592  80.6839066  70.2447052  47.3887520  80.7296371
  82.6169128  16.0271339  63.2417679  81.9287720  15.4830256  62.8588295
  83.1512451  16.2980995  62.4952431  28.4787426  16.8678913  22.8049870
  27.9394360  17.2074413  23.5191898  28.0216446  17.1402912  22.0093174
  83.8452225  69.8773727  78.9758759  83.2867203  70.6510315  79.0517502
  83.3649139  69.1891632  79.4362030  71.3795700  11.0033083  64.1574936
  70.5772934  11.5057888  64.0157471  71.2177200  10.5166159  64.9656830
  60.4624634   9.5255280  86.3130112  60.6633186  10.4576359  86.3970642
  60.8338127   9.2758522  85.4668427  30.0460892   7.5197062  25.5601063
  29.7235680   6.7778792  25.0483398  29.2559242   7.9290962  25.9126282
   0.0942134  65.8186340   0.5626258   0.8244299  65.8838959   1.1780578
   0.3814495  65.1721039  -0.0821427  63.0624237  59.7629890  40.0886078
  63.1140747  58.8933716  39.6919556  62.5343590  60.2747498  39.4758492
  30.9188843   9.1772871  62.1985626  30.2610836   9.8105774  62.4857407
  31.6917973   9.3789263  62.7259903  39.1904602  70.6861649  75.5580368
  38.8101578  70.8918610  74.7040482  39.9157867  71.3036270  75.6522141
  52.2720757  38.4266014  71.4017334  52.9712105  38.2981834  70.7606812
  51.5370102  37.9178047  71.0596237  55.2135849  35.9674873  65.4330521
  56.1268120  35.8736801  65.1620483  54.8132706  35.1240158  65.2220078
  16.5352821  63.8649025  15.4664783  17.0326958  64.5999146  15.8250341
  16.9750748  63.6575775  14.6419601  56.6870918  27.5429897  24.9130421
  56.2927361  26.6892166  24.7347584  56.2308617  27.8594284  25.6927547
  14.1375275  35.7919998  86.6343613  14.2914286  36.6309509  87.0687637
  14.9588785  35.3123665  86.7419052  72.6472549  50.5343552  51.7490501
  72.7687302  49.8384323  52.3949356  72.1044769  50.1370239  51.0680618
  34.6633873   1.6996344  40.8481712  35.1066856   1.6127435  41.6920738
  35.3517456   1.9765352  40.2434235  61.4320488   6.5723987  75.2579422
  61.7525215   6.2964697  76.1166534  60.7193298   7.1810083  75.4525070
   3.8753383  52.5525475   5.3427935   3.0160482  52.9742165   5.3357949
   4.2749271  52.8093529   4.5117631  67.0437088  53.8209915  19.3646393
  67.4245071  53.6939583  20.2335987  67.4373703  53.1332321  18.8277531
   6.1300116   5.4233799  84.5494232   6.1801391   6.2283788  85.0648804
   5.8233895   4.7610950  85.1687698  19.6871853  68.2126007   5.0023832
  20.5938606  68.3286896   5.2864518  19.5764008  68.8434906   4.2910910
  56.8901939  68.9493103  75.9553680  56.1912956  68.7660294  75.3275299
  56.7624168  68.3043747  76.6510391   3.4705367  69.1017151  47.6310158
   2.6251547  69.4893036  47.4044380   3.3241408  68.1575012  47.5738945
  15.6170244  60.8996696  12.5304079  16.0922470  60.9174194  11.6996965
  15.2374382  61.7749634  12.6079397  79.9141998  54.4923172  54.2966995
  80.2340775  55.2801971  53.8572083  80.6972580  54.0972786  54.6801033
  50.7206306  64.6222000  53.3187027  51.2587395  65.4103775  53.2449150
  50.1224174  64.8075104  54.0426025  84.7889404  36.6537704  69.3691864
  84.8294525  35.6979599  69.4010620  84.2112503  36.8445053  68.6301880
  66.8815308  50.5657005  47.6163292  67.8229752  50.6802788  47.7458534
  66.6636200  51.1635742  46.9012794  14.9033804  12.7652302  60.5531731
  15.4302120  13.5549307  60.4304771  14.1005545  12.9338741  60.0599594
  28.0975132  10.7363663  16.1853371  27.4885540  11.1499777  16.7971592
  28.8208103  10.4343100  16.7347298  73.4083405  57.8712692  52.7624130
  73.0950851  57.1750832  53.3398438  74.0523834  57.4430313  52.1984558
  37.6216240   9.9435635  52.4956589  38.3194809  10.5957899  52.4338074
  37.9349442   9.3188419  53.1497116  51.5015335  31.7061501  16.5837765
  51.9551239  31.2399082  17.2859917  52.0158501  32.5029526  16.4541187
  71.2424850  33.7556458  30.9859791  71.4626617  33.3299713  31.8145638
  71.9576874  33.5165939  30.3964291  75.4796982  46.2617607  58.7258224
  75.3387527  47.1657028  58.4442978  75.0631485  45.7315865  58.0463829
  14.9131184   6.7336860  55.0878906  14.9158182   6.2888060  55.9354210
  14.7759418   6.0332031  54.4501305  40.7592087  45.5236778   6.6392488
  40.1795006  44.8086967   6.9018750  40.2629852  46.3185043   6.8348122
  67.7882690  63.0574036  49.5665627  68.4898758  62.5488548  49.9731941
  67.0087433  62.5104828  49.6637611  49.3174820  15.6817341  62.6964226
  48.9714127  15.2862234  61.8963966  48.5479164  15.8157120  63.2496414
  11.1872778  23.5158844  55.9323921  10.9066038  23.1546440  56.7732010
  10.5167637  23.2287712  55.3125458  63.3214111  35.8524704   9.5484905
  62.6492424  35.3587265  10.0182104  62.8850174  36.1522446   8.7510386
  28.1952095   9.4742088  65.9700699  28.5998363   8.9880400  66.6885071
  27.4133530   9.8676481  66.3575439  28.4053879  69.3688431   8.6806631
  28.0037670  70.2173843   8.8675146  29.2351627  69.3863983   9.1575222
   6.5304747   7.8426032  86.2223587   5.7062769   7.9625044  86.6941147
   7.1587038   8.3884621  86.6952209  12.3109932  22.7477627  29.3984165
  11.5406628  22.2278137  29.1693401  13.0308666  22.1169891  29.4101601
  29.1318378  51.2825050  78.3082809  30.0095901  51.4692230  78.6413269
  28.7250977  52.1433144  78.2092819   0.7725092   6.9340348  24.9219093
   1.6647944   6.5876184  24.9292908   0.4039802   6.6289310  24.0928555
   7.4804282  54.6999016   2.8239806   7.3589406  55.6171799   3.0690770
   8.0571718  54.7303123   2.0606499  21.3902855  44.7545776  67.0147247
  22.1281471  45.0214272  66.4664688  20.6959667  45.3781891  66.8019791
   3.0333245  62.1837387   7.6336579   2.8963659  61.3504639   7.1829586
   3.9061816  62.1069984   8.0189676  47.4536591  64.2317123  81.4450378
  47.1139488  63.5323563  82.0033722  47.4334679  65.0118408  81.9993134
  51.4230919  44.4262428  53.0312843  50.9883995  43.8294487  52.4220924
  51.2387657  45.2990189  52.6841354  53.8143768   5.9956365  58.1092262
  53.8182678   6.7677240  57.5434570  52.9864197   5.5579252  57.9114189
   3.9908435  31.1154823  44.3198471   3.9089446  30.9451885  43.3814812
   4.6131287  31.8404503  44.3782883  24.8903179  62.6901245  50.8276100
  24.9683323  62.4392586  51.7480545  25.7235222  63.1148720  50.6236801
  60.6113892  18.9631348  78.9476471  60.6119995  18.5228729  79.7975922
  60.7070198  19.8918228  79.1588898   1.9979550  18.9058647   3.2293098
   2.8640525  18.7403126   2.8568861   2.1625180  19.4945679   3.9659104
   8.7589283  25.6124287  23.4984455   8.3381948  25.3796463  24.3261089
   9.6931143  25.6427612  23.7048626  47.2333565  64.3454742   8.7411976
  47.4070206  65.0791855   9.3309002  47.9245644  64.3998184   8.0812616
  65.8839569  61.2714233  82.8939972  65.6036377  62.1616440  83.1064835
  65.5016937  61.0988960  82.0335617  76.5136185  64.2540665  20.5819492
  75.8660889  64.7189713  21.1118565  76.0769653  63.4405441  20.3294601
  57.4855537  12.9237804  15.3510313  57.1920319  12.0204210  15.2326441
  56.6851997  13.4454288  15.2914667  12.1875944  45.9250603  10.6690979
  12.4717903  45.7963829   9.7641630  12.9811115  46.1906433  11.1338844
  47.1428261  60.6724319  89.1916046  46.5696754  61.1617737  89.7817535
  47.0447998  61.1093750  88.3456116   8.3862829   1.9836053  16.6011086
   8.2988052   2.9224474  16.7658958   9.3226805   1.8098297  16.6969967
  62.7015343   1.3595269  31.0524349  62.1145325   1.4513035  30.3019409
  63.3412018   2.0632477  30.9436550  84.1502609  54.8108292  70.8272476
  83.5616837  54.1076965  70.5526428  84.6014175  54.4594421  71.5948486
  55.2489166   7.2637992  78.4409256  55.4382591   7.9836750  79.0427246
  54.8935051   7.6905460  77.6613083  54.9391403   3.4361429  66.8456116
  55.2557449   3.1883802  65.9769287  55.4664497   4.1985183  67.0842667
  10.9001303  59.9277077  10.0820627  10.7540493  60.4200249   9.2742767
  11.2857504  60.5642052  10.6840611  84.9860687  69.0582504   1.9876928
  84.5149155  68.8345413   2.7903123  85.4010544  69.8991013   2.1800249
  36.2921257   4.4343295  14.4697037  36.3862114   4.3712659  13.5192289
  36.4451790   5.3588700  14.6647177  68.3017273  44.7168579  83.9585876
  67.5436249  44.7462044  83.3749390  68.0900650  45.3357620  84.6574402
  39.1915131  47.3735085  84.3852844  38.9190598  46.8467789  83.6339111
  39.1415825  46.7733154  85.1292648  67.8946381   5.2120743  71.9603500
  67.7107315   4.4595094  72.5225372  68.5751190   5.6982570  72.4259720
  46.2309494  55.8643150  88.4435349  45.3880653  55.8196411  87.9921188
  46.1880226  56.6745491  88.9513779  49.3232918  38.8717117  24.6564312
  50.2008400  38.7524071  24.2932358  49.0676613  39.7520180  24.3808479
  68.5517807  52.1266479  85.2055130  69.2110367  52.2375031  84.5204391
  69.0174942  51.6876602  85.9172974   4.5659695  19.4305687  77.7919769
   4.8351269  18.5119915  77.7939606   3.9770365  19.5059605  77.0411682
  46.1057549  35.0323296  54.2619896  45.9721336  35.6932487  53.5826035
  46.8767357  34.5442009  53.9729462  68.1399994  25.5784454  36.3331871
  68.5046158  24.7012520  36.4507332  68.2405090  25.9961967  37.1885338
  12.1868877  70.7311935  68.7053070  11.7775240  71.2069244  69.4280396
  12.3469801  69.8548965  69.0555878  54.3883743  55.0803185  20.2692127
  54.5885468  54.1442947  20.2647743  53.7525978  55.1859322  20.9769306
   1.4749690  52.0736542  26.7594318   1.7152047  52.7345772  26.1100464
   1.0359590  51.3896141  26.2538738  76.9571457  25.9669857  68.1209717
  77.7073669  25.8671799  68.7070007  76.9254990  25.1456680  67.6303940
   7.6551552  28.1192818  23.7027645   7.9034524  27.2311993  23.4460735
   6.9084363  27.9990864  24.2894459  27.0099812   0.8358685  43.5236244
  27.4026642   1.1581113  44.3349113  27.2383556  -0.0933781  43.4995918
  57.9477844  31.0624809  66.8436737  58.7805939  30.6603165  67.0904999
  57.3815384  30.3234653  66.6212921  77.5754318  18.3885994  87.1601410
  77.5042038  17.4345646  87.1913757  78.4105606  18.5805244  87.5867081
  78.7166595   0.8887795  67.0724716  79.1271057   0.3530902  67.7512970
  79.1689987   0.6413628  66.2659912   8.1864815  11.5285769  58.6488762
   7.5538397  11.6537600  59.3562164   8.2712831  10.5785141  58.5687447
  52.1615715  48.0060768  54.0452309  51.5264359  47.6441689  53.4272842
  51.7770500  47.8436012  54.9066124  78.0904465  10.4267416  50.3782501
  77.2987213   9.9419537  50.6114464  78.8093567   9.8521471  50.6413918
  44.6106873  15.5276737  23.7435627  45.3796463  15.4397001  24.3067646
  44.8048363  14.9766340  22.9853439  15.2820196  44.9157753  21.8682957
  15.8230534  44.4168396  21.2562656  15.1072683  45.7409286  21.4157314
  20.1446381  36.5597305  53.5563622  19.4961433  36.1023788  54.0916367
  20.5950432  37.1403084  54.1697922  56.4547119   6.3032570   7.4972100
  55.7332001   5.8271565   7.9082890  57.0576859   5.6193657   7.2057605
  64.7472839  40.4682350  69.8753204  65.4586105  40.2254181  69.2826309
  64.2267380  41.0996246  69.3787231   8.1509008  46.5292892  70.2209854
   7.6906805  45.9146690  70.7925415   8.2118635  47.3345375  70.7348862
  73.4086533  45.9870529  51.5172768  72.6708069  45.9325523  50.9099541
  74.0266495  46.5806274  51.0906792  44.8822365  54.0549049   8.0627327
  44.9893227  53.3346786   7.4414120  45.7763557  54.3099022   8.2902403
  20.0582771  44.6589890   8.6408548  20.4102535  44.4857903   7.7677302
  20.4647923  43.9959335   9.1988325  15.9571447  39.9259529  75.7497559
  15.3714123  40.0563774  75.0040131  15.3892012  39.5944023  76.4452744
  15.6071377  30.7352486  76.2845306  15.8121290  31.6458893  76.0725250
  14.6538105  30.6823101  76.2167435  41.8494987  56.5976219  24.8421612
  41.0778465  56.2697296  24.3803463  41.5431213  56.7616882  25.7340393
   1.7070576  69.8564911  71.7684097   2.1559446  70.3456421  72.4579468
   1.5914053  68.9792480  72.1335068  52.3242645  52.9331474  69.6318741
  51.6367645  52.5912514  70.2034302  52.2987862  53.8804512  69.7667694
   1.3404673   1.1119518  53.8835144   2.1064336   1.6835563  53.8306389
   0.6855334   1.6316148  54.3496094  57.3288803  31.0280132  18.2724552
  56.8275642  30.6741257  17.5378284  57.5223579  30.2665920  18.8192978
  58.4352150  68.3007889  11.1163406  58.1705093  68.8014755  10.3446665
  57.7282486  67.6685867  11.2457533  86.7287674  60.1731262  78.6583405
  86.8502121  59.5262299  79.3533249  85.8169937  60.0654564  78.3875732
   0.4370641  44.3010597  47.5370712   0.9114133  43.9748344  46.7723503
  -0.4550226  43.9732056  47.4233742  36.6369324   0.6061242  50.3916130
  36.4413185   1.0720237  51.2045746  36.0377884  -0.1403727  50.3932533
  71.2656326  32.3496132   0.7460986  70.3635941  32.1599617   0.4880701
  71.5736694  31.5398006   1.1529739  49.6664200  60.2270126   1.0693350
  48.7258148  60.1758881   0.8994008  50.0624504  60.3088264   0.2017537
   4.6285009   6.9816298  50.4446106   5.2118816   7.1213441  49.6987038
   3.7632492   6.8625813  50.0529518  82.7888870   1.7245014  63.9531822
  82.4695282   1.2150475  63.2084007  82.1829529   2.4628510  64.0157700
  72.4452438  49.2596245  15.5800400  72.8479538  49.2250023  14.7123690
  71.6478500  48.7369652  15.4950266  77.7712021  34.0859833  84.7999039
  77.2953262  33.8912811  83.9925232  78.6718369  33.8178711  84.6176834
  36.7770233  56.8594246  15.3491926  36.3157921  57.6906090  15.2368078
  36.4134254  56.2901382  14.6710033  66.4596863  12.2330990  46.9114189
  67.3733673  12.0961876  47.1617622  66.4883881  12.9585752  46.2876472
   9.1238441  48.5206795  49.7245216   9.8292980  48.3739433  50.3546295
   8.9666357  49.4643402  49.7564430  51.3088875  19.2918930  73.0997314
  50.7853546  19.8927040  73.6299820  50.7462883  18.5270233  72.9785385
  40.0116196  52.8173828  77.4980469  40.4954414  53.6336632  77.3722153
  39.2699051  52.8834343  76.8966141  72.5213699  26.2200336  41.4757500
  72.1057129  26.1590176  40.6156693  73.4325256  26.4437847  41.2860909
  56.2890968  65.3145752  64.8926468  55.7487869  66.0087280  64.5152206
  56.3518486  64.6566620  64.2002335   5.7021608  26.7515621   7.9533544
   5.5212784  26.8635197   7.0200915   6.4593992  26.1667576   7.9820881
  75.9638290  37.7741547  59.2114716  75.8646774  38.4586487  58.5497551
  75.9413986  38.2426262  60.0458946  82.5871735  63.9720993   6.7760148
  82.7732010  63.9111671   5.8390450  82.9728775  63.1793404   7.1488328
  68.3551636  59.8490524  85.2893219  69.1893692  59.4926147  85.5947418
  68.2616653  60.6770630  85.7603683  63.7294693  -0.1494578  64.8407974
  63.3894806   0.7238849  64.6460876  64.6764069  -0.0279358  64.9098434
  78.0147018  71.0589218  41.2952766  78.9461517  71.2253189  41.1505165
  77.5721054  71.5676346  40.6158981  68.1176987  56.0139580  66.7458801
  67.1845016  56.0657806  66.9524918  68.3293304  55.0838432  66.8254318
  77.7008209  53.3600731   8.9603033  77.1660614  54.1409645   8.8172035
  78.2061768  53.5570869   9.7489920  13.3839874  40.4907875  74.2659988
  13.3089638  41.4268532  74.4514313  12.7999010  40.3465347  73.5215073
  60.3470955  68.9622726  52.8077965  59.5898628  68.7010193  52.2837944
  61.0715256  68.9934006  52.1829224  79.9726715  52.5515556  23.6196232
  80.9194946  52.6770706  23.6829739  79.8609924  51.9309731  22.8994579
   9.4848509  62.3766518  59.8582573   9.2808580  62.0607796  58.9780045
  10.4289789  62.2461624  59.9467354  10.2008295  24.5909233   3.4001856
  10.2506332  24.9881763   4.2696338  10.1842194  25.3345337   2.7976928
   2.4637036  47.0346222  43.5581284   2.9754133  46.8173866  44.3373566
   2.5939670  46.2900963  42.9708099  51.8432693  12.5866804  56.5276527
  52.7676735  12.3964033  56.6873322  51.8480415  13.1935587  55.7874451
  60.6114845  54.8183975  33.3221283  59.8023987  55.1169853  33.7374001
  61.1340599  55.6133881  33.2165947  73.0491104  57.7089081  73.6942062
  73.4955444  57.6458244  72.8498459  73.6391602  57.2745361  74.3101501
   8.0841293  36.8549385  62.4401779   7.4452543  36.2234154  62.7707062
   7.7511339  37.7051506  62.7273712  82.8045654  22.7031059  77.7640152
  81.9875488  22.2576828  77.9883270  83.2936325  22.7348099  78.5862274
  20.6269302  25.9779034  68.1408386  21.5374260  25.8169193  68.3884583
  20.6779156  26.6592503  67.4704666   1.7794275  17.5771160  73.2451630
   2.1866605  18.3840389  72.9300995   2.5149386  16.9898338  73.4193878
  45.8957520   8.5381193  64.8402634  45.1912079   9.0534086  65.2331085
  45.8658867   7.7002540  65.3021317  38.4763794  62.0984764  80.1618805
  39.3990021  62.0190697  79.9196014  38.0450783  61.3784447  79.7017059
  12.0607901  37.1361465  46.2641106  12.9077330  36.9978104  46.6881180
  12.1949520  36.8476982  45.3613205  60.8789597  31.3843613  40.3323898
  60.9918251  32.2592163  40.7040367  61.7188530  30.9503269  40.4821587
  63.5108719  60.1963272  57.1561775  63.3109741  60.1860809  56.2201385
  64.4109192  59.8754234  57.2124023  59.4343834  15.0192842  31.4319859
  59.0499382  15.8839598  31.5761013  59.7185211  15.0328026  30.5180302
  71.8165359  61.9905510  84.6000290  71.1819763  62.3195496  83.9633789
  71.9626465  62.7262611  85.1946869  69.8416367  54.4652367  17.5696239
  70.6365509  54.0391464  17.2490215  69.1452408  53.8303223  17.4018631
  38.8074951   1.5823056   0.4195600  39.1740608   1.8333461  -0.4282851
  37.9486313   1.2153431   0.2099811  45.7478256   8.4374771  16.6230030
  44.8153534   8.3386774  16.8152657  45.9742584   7.6519499  16.1251011
  27.7529507  65.9412994  88.9188232  28.0406075  65.1465912  89.3681870
  28.4805374  66.1649857  88.3384705  49.5846024  67.1232376  25.3933315
  48.7068176  67.3777084  25.6778793  50.1559448  67.3863068  26.1148567
   2.9074366  36.5029449  53.7346573   2.2273052  36.7243614  53.0985527
   3.2338424  35.6496468  53.4490509  68.5499725  13.0700665  14.8871708
  68.0966721  12.3938093  14.3837557  68.6473160  12.6929331  15.7615423
   0.2204534   3.4187829  32.5881920  -0.1492709   2.5426292  32.6972389
   0.2820021   3.5364983  31.6402550   0.0020586  60.8095589  17.1627865
   0.9323792  60.7600937  16.9430389  -0.4381920  60.9124107  16.3190842
  60.4601135  55.4763718  49.7943420  60.3929596  56.4180069  49.6360855
  60.8410759  55.4071960  50.6697350  37.8741417  21.0545330   9.3520403
  38.0172691  21.7769794   9.9634438  38.2132797  21.3767471   8.5169382
  12.2155571   6.8678956  62.7271996  12.5817032   7.7071662  62.4482803
  12.8988037   6.2290878  62.5238991  66.7959824  43.3866615  77.1681671
  66.6160507  42.4477692  77.2164764  67.6986847  43.4736061  77.4744492
  32.7455177   2.1834354  38.1097717  32.3576584   2.4761722  37.2850876
  33.3506165   2.8844371  38.3520203  37.2337646  19.9157295  23.4069653
  36.5148087  20.5475159  23.4203243  37.7331772  20.1377907  22.6211491
  60.5054054  50.6655235  45.4473419  59.7494278  51.1994476  45.2030907
  60.4766960  49.9207382  44.8467560  27.5199451  15.1820135   8.8335457
  27.3375072  15.2493210   7.8963060  28.4719257  15.2579737   8.8983068
  79.6170273  56.2673759  86.7874908  80.1569595  55.8666916  87.4687881
  80.1809464  56.9347839  86.3965988  13.2634640  33.1417007  81.7448578
  12.3813343  33.4393463  81.9673080  13.2414074  33.0149956  80.7963333
  70.1151581  66.0261841  85.9166107  69.2614059  65.5960846  85.9651489
  70.1194763  66.6340942  86.6559830  53.4091492  40.2144432  59.8654213
  54.3631973  40.2714500  59.8127327  53.1260262  40.0934486  58.9590912
  48.6117134  14.5788488  31.4642849  48.3431892  15.4841051  31.6212425
  49.3724060  14.6511917  30.8877888   3.8944893  13.7220869  39.9155502
   4.3130450  14.3086300  40.5456390   3.1705046  13.3264713  40.4009018
  20.6683254  22.9723415  26.7804470  20.8194256  22.1357307  26.3405781
  20.6343403  22.7509403  27.7110691  36.9013023  52.5491333  83.7351227
  35.9566536  52.4790306  83.8728180  37.1323280  51.7561226  83.2513885
  68.9423523  46.9455070  76.1873169  69.4934692  47.5508118  75.6912308
  69.4216766  46.7986145  77.0027313  40.6182594  50.9254227  19.3287773
  40.9029503  50.8658981  18.4168358  39.7680702  51.3631401  19.2861919
  54.9424324  39.2611504  76.9841003  54.6202164  39.5068703  77.8512955
  54.3444252  39.6940994  76.3748550  38.6401978  25.5784531  87.2165985
  38.2663879  26.4596405  87.2143631  39.0839424  25.5043850  86.3717041
  63.0174561  26.0379677  19.9162865  62.3978081  26.0118027  20.6453819
  63.7860146  25.5668278  20.2381191  65.6519394  65.3888931  66.1416626
  64.7454453  65.3859329  65.8342743  65.9671097  66.2720642  65.9495544
  15.1394358  49.2644997   2.1761329  14.8930902  50.0072250   2.7274060
  14.6025991  48.5397758   2.4967785  11.3600960  32.3909950  21.5385036
  11.5115595  32.1953011  22.4631634  12.1693029  32.1251678  21.1017513
  83.8398972  43.0188828  56.2075310  82.8961792  43.1720619  56.1609879
  83.9214172  42.1274529  56.5465508  37.9092636  33.9784622  86.7138519
  38.4150391  33.1664772  86.6806946  37.0133362  33.7111206  86.5087280
  69.5766068  42.6758423  85.0437851  69.4396210  43.5628700  84.7111511
  69.3475266  42.1065292  84.3091888  28.6761494  26.9288044  48.7511711
  28.5108700  26.0296383  48.4675941  27.8406963  27.2228546  49.1141891
  55.3547325  69.0661850   6.2856808  55.8592949  69.0955353   7.0985680
  55.8010254  68.4101105   5.7503190  38.4380875   1.2561897  20.1841831
  39.0828209   1.9617482  20.1318855  38.8506470   0.5206944  19.7313328
  63.1248741  13.1412315  73.9251099  64.0012589  13.4544506  73.7013474
  62.6685219  13.0863266  73.0854874  24.9959564  70.9210281  78.6232300
  25.6972656  71.0436478  79.2630386  24.9254436  69.9715881  78.5241470
  83.8215714  35.5280609  61.7109184  83.5642319  34.6190453  61.5569839
  84.4957428  35.7007027  61.0537148  75.4169922  32.9633064  48.6544304
  74.6033554  32.5082970  48.4371910  75.2492905  33.3586044  49.5099106
   8.2459145  49.0610275  52.7056770   8.3336287  49.9529419  53.0418701
   9.1380157  48.7141037  52.7113800  22.9087181  32.2502136  84.3748703
  23.2277126  32.6717224  85.1728668  21.9558048  32.3211861  84.4309998
  58.0893097  64.8462143  20.4810467  57.2732506  65.1579971  20.8722916
  58.4900703  64.3056259  21.1617699  77.2462311  21.2407188  14.1493835
  78.1122131  20.8330040  14.1411066  77.1354370  21.5494347  15.0486336
  77.2411346   9.1258469   2.1208413  77.5862045   8.5266514   2.7827511
  77.7744751   8.9574881   1.3440297  19.5797215  54.4959793  75.5973434
  19.7426796  55.3778610  75.2627335  20.0384445  54.4698601  76.4370575
  69.2335663  54.2321854  11.6031141  69.3759003  54.6531296  12.4509220
  68.5110550  53.6233025  11.7563143  17.0200748   6.4224911  16.1387119
  16.9125881   6.8761048  16.9747219  17.9475899   6.1875620  16.1112022
  31.6798153  71.0277405  83.1896896  32.2550125  70.5691452  83.8021240
  32.0649834  70.8617172  82.3292770  48.8940811  36.8566322  26.8216095
  48.7355003  37.5665703  27.4437580  48.9059296  37.2859879  25.9661884
  23.5548515  42.6476250  11.7413740  23.3913670  41.9436264  12.3689814
  23.7519531  43.4111824  12.2839231  78.9599228  51.3288078  74.9478760
  79.6586533  50.7968483  74.5670547  78.2789307  51.3466835  74.2754364
   3.7082691  13.3753576  79.4596939   3.9445949  13.6395741  78.5705490
   2.8461432  13.7653160  79.6042709  10.1874208  23.3274975  21.9150200
  10.2965288  23.9782944  22.6084118  11.0597773  23.2376881  21.5314064
   9.9646492  40.0416031  31.6774826   9.0551758  40.1984978  31.9313965
  10.4764395  40.3150368  32.4387550  79.5125580  65.7536469  71.4270706
  79.5447159  66.7102966  71.4231491  79.7129669  65.5035629  70.5251160
  61.2705116  70.1512222  86.7398605  61.1993484  69.3133621  87.1971970
  60.5865250  70.1178970  86.0710678  57.8502464  67.4863129   6.4409761
  58.4773254  68.2081909   6.4844203  58.3594246  66.7463150   6.1102562
  24.1420937  27.4272308  69.6954956  24.2411690  27.1040936  68.7999496
  24.4519844  26.7076607  70.2454224  74.1263199  30.7464256  66.3527222
  74.2177353  30.6165962  67.2966614  74.2962723  31.6792603  66.2216873
  79.9281540  68.6813889  46.3860550  79.8468933  67.8608398  46.8721848
  80.8152008  68.6602173  46.0269966  72.2019272  14.0607634  83.5647964
  72.8024826  14.7327986  83.8871765  71.3706818  14.2546434  83.9980011
  69.3617249  31.0204582  70.9201965  68.4621429  30.8440838  71.1956482
  69.3122406  31.8606262  70.4642410  84.7999344  57.3283615  15.5045280
  85.5616379  57.3631859  16.0831680  85.1561661  57.0681534  14.6550455
  64.6574478  30.6145649  63.8146782  65.3422699  31.0181179  64.3479767
  63.8873749  30.6021328  64.3830643   8.9064598  36.5720062  37.0101433
   8.4838877  37.2377586  36.4675179   9.7791729  36.4717064  36.6299553
  57.8699265  31.1233654  26.4672070  56.9385338  30.9747353  26.6304455
  58.0435638  30.6710701  25.6416702  38.6314812  13.2211580   1.7839817
  38.4536476  13.4945993   0.8840721  39.5743141  13.3472500   1.8907388
  14.6011276   1.5280184  66.1413040  14.1990471   1.2485541  65.3188324
  14.7532921   0.7144396  66.6221085   5.7797103   5.1862926  16.2854099
   5.4833164   6.0691962  16.5064602   6.6017942   5.3206630  15.8138638
  69.2953873  61.9554291  17.9698734  68.6185989  62.0311928  18.6425171
  69.9064026  62.6662788  18.1637516  29.0658360  39.4196548  86.8028793
  29.6961937  39.1203537  86.1476746  29.4381733  40.2351074  87.1384964
  27.0639343   6.2273221  70.1679535  26.6918411   5.8711352  70.9747391
  27.1629925   5.4676509  69.5940857  55.5537491   8.9817839  60.3452950
  55.8421631   9.8125629  59.9673347  54.6090508   9.0856447  60.4592781
  81.0447464  48.3725052  46.7666817  80.5130692  47.6305389  46.4785271
  80.9211349  49.0343208  46.0862770  23.6970062   1.8721774  29.4616718
  24.5067158   2.3666708  29.3348694  23.0001984   2.5044405  29.2857933
  42.6975784  50.3029900  13.5677223  42.3102798  49.4927254  13.8989315
  42.5693855  50.2598648  12.6201258  84.4543533  40.8951302  54.0647430
  84.7678375  40.3539772  53.3400955  84.8968735  40.5417480  54.8364487
   1.3965015  57.8865051  76.5946808   1.5813632  57.8815727  75.6555099
   0.4431017  57.8229713  76.6514587   8.5584707  25.2656841  10.7032871
   9.1919651  24.6795540  10.2893190   7.7652946  24.7371902  10.7915878
   3.7178292  45.5862007   0.6134802   4.0801086  45.3151932   1.4570094
   3.7165270  46.5427170   0.6495582  36.9336662  55.3387680  61.5822830
  37.3436050  55.7732658  62.3302078  36.5989418  54.5153770  61.9375496
  41.6979294   3.9773917  83.5340271  41.4151688   3.3835220  84.2294388
  42.6441154   4.0556221  83.6558914  86.2422028  20.4232349  31.2568016
  85.3016739  20.4486370  31.0807419  86.4269714  19.5018806  31.4390068
  25.8042717  36.6589622   0.2884530  26.1376839  37.1956940  -0.4305652
  24.9532394  37.0430107   0.4993619  69.6213226  68.5599670  42.8131409
  68.8517456  68.5082092  43.3799782  69.2785034  68.8575134  41.9704208
  63.9463501  28.7407684  61.6604004  64.6138000  29.3675308  61.9395294
  63.6712570  28.3079834  62.4686394  46.1145325  13.4054909  25.4533653
  46.6589279  12.7524557  25.8931465  45.2187386  13.1767664  25.7013073
   9.2519979  40.9630051   5.5139003  10.1566181  41.1108818   5.2381711
   8.8107538  40.6440048   4.7266426  78.7492447  31.4652748  45.5193748
  78.3082047  31.3607082  46.3624535  79.5801620  31.8889027  45.7346611
  43.0255241  54.0904083  66.3229980  42.9806900  54.1017952  67.2790833
  43.2836723  53.1945839  66.1059875  82.5736160  15.8049774  26.5620842
  82.8069839  15.0941906  25.9649639  82.4291000  15.3728848  27.4038944
  76.3052521  56.4602928  59.4655800  76.4900970  57.0033722  60.2318230
  77.0767212  56.5620384  58.9081650   4.7574773  60.2710533   6.4723439
   4.9617338  60.7744141   7.2604685   4.9620848  59.3657951   6.7065945
  76.0336380  70.6366501  77.9456253  75.8231735  71.2585602  77.2490921
  75.3410339  70.7604752  78.5946198  81.5483475  45.3152428  53.1048317
  82.4770432  45.5322456  53.0232010  81.2926178  45.0239716  52.2296181
  13.3779392  51.7923012  38.7657928  13.3223543  52.7438393  38.6779518
  13.0760355  51.6159859  39.6568604  60.6378098  52.9450455  39.6272888
  61.0521088  52.2807312  40.1779938  60.9185295  52.7282181  38.7382355
   8.2292595  37.2449188  52.6577797   9.1569033  37.0469093  52.5293198
   7.7826920  36.7616348  51.9626236   7.6550298  31.1629333  73.4433594
   7.8139243  32.0830307  73.2326431   7.1423717  31.1873322  74.2513275
  79.7080002  64.0137253  69.0085220  80.1117325  63.1533356  69.1223755
  79.9611816  64.2821121  68.1252899  32.6598244   4.6076245  39.2878075
  31.9249458   4.8056026  38.7072983  32.9334373   5.4598608  39.6270180
  57.4664688  44.8916435  38.5767250  57.1151047  44.3678246  39.2967186
  56.8840561  44.7071342  37.8398514  61.5002098  54.2524414  69.9957581
  60.5998001  54.4810410  70.2264938  61.6104507  54.5834579  69.1044083
  51.1799431  65.4600677  41.7328072  51.5370903  66.1951828  42.2310944
  50.6347656  64.9869614  42.3614426  42.4458923  46.1570969  75.6978302
  42.4988289  46.8939705  75.0891953  41.5276680  45.8882637  75.6691742
  72.6295776  20.2586555  17.7142582  72.5742569  20.8082752  16.9325371
  71.7233810  20.1704674  18.0096607  48.0767975  69.5756454  67.6885376
  47.8146858  69.4734573  66.7736130  47.3222542  69.9878387  68.1092453
  36.1711082  41.4800110  14.2422028  35.4000092  41.7562523  14.7375097
  35.8336372  40.8503418  13.6051302  38.8822289  57.6719666  59.8410797
  38.4979477  57.6428871  58.9648895  38.9749985  56.7530594  60.0925484
  79.1724701  10.2648373  74.9850845  78.5561829  10.9527330  75.2365265
  79.1986008   9.6785631  75.7412796  84.6295929  34.5695724  74.1552429
  84.8358994  34.7324066  73.2348328  85.4671555  34.6643639  74.6088333
   4.9375939  65.3647461  55.2108917   5.2948275  65.6688690  56.0452309
   5.6482306  64.8594666  54.8160210  75.7639465  15.1291380  39.8214188
  75.4557877  15.8933363  40.3085251  76.2993851  15.4941072  39.1169128
  72.8388062  61.4153214  18.9542274  72.5257645  61.4318008  18.0498142
  73.7723618  61.2169800  18.8809757  79.8806152  63.0567741  85.5779648
  80.5520325  62.3749771  85.5538177  79.7542725  63.2356071  86.5097885
   0.2750373  56.6474266  26.4570217   1.1469537  56.2698135  26.5727978
   0.2746256  56.9782104  25.5587940  30.6706848  57.0978165  88.6398468
  31.4599075  57.4550781  88.2327576  30.8343544  57.1663475  89.5804596
  25.0350914  53.4994164   8.6044426  24.6924629  54.3666611   8.3882971
  25.8541393  53.6741714   9.0679646  52.8816032  26.5077515   7.4184031
  53.7550468  26.3119011   7.0793281  52.4652481  27.0206909   6.7257476
   6.3714910  61.2843704  58.8566322   7.0118847  60.7007675  59.2634964
   6.2364259  60.9193344  57.9821396  18.1696491  33.3952446  29.1110477
  18.2914410  34.3140221  29.3503094  18.1592960  33.3963432  28.1539040
  49.2882538  39.5643883  77.8377686  50.0443268  39.0059395  77.6568985
  48.7512321  39.0520782  78.4422379   2.2324200  28.0059185  31.1244259
   2.0304239  28.6866055  30.4824791   1.3820307  27.6277351  31.3481388
  49.3488503  43.6648407  82.5599442  49.4029732  42.8522530  82.0569458
  50.1120110  43.6404839  83.1371994  28.0514832   6.4580803  77.3133163
  27.9004631   7.0651002  76.5887756  28.6746712   6.9122863  77.8803787
  31.5481930  53.6568184  78.1530838  31.5691700  53.8778458  77.2219849
  32.1796646  52.9432487  78.2441406  11.5060577  63.9432068   9.5854216
  10.7780390  64.2732315  10.1120167  11.1304979  63.8083458   8.7153645
  22.5222015   6.3922000  84.1594543  22.1731224   7.2258682  84.4746857
  21.9009666   6.1110868  83.4876862  77.3358612  61.4940262  43.9727402
  77.2545853  62.3494377  43.5509605  78.1968842  61.1746902  43.7027321
   8.8252325  12.8665800  21.6933022   8.5624485  13.5028429  22.3583927
   8.1617079  12.1785870  21.7446022  52.1642303  55.8411179  46.0038490
  51.6003036  55.6907158  45.2451706  52.2280464  56.7939148  46.0697174
  72.5611954   2.7055995   2.5500839  73.4441528   2.9319942   2.2579167
  72.0484619   3.4999857   2.4007964   8.3187590  30.7692204  20.3285866
   7.6625848  30.1152878  20.0876694   7.9904795  31.5869522  19.9547138
  11.5337982  35.7494202   2.4207628  10.5983458  35.6049042   2.5631554
  11.7399912  35.2332764   1.6414610  36.6558266   6.9499898  85.4906464
  36.1559258   7.1663113  86.2777481  36.9831123   6.0648017  85.6505127
  52.6338081  65.4108353  15.2341280  52.9617233  64.7255478  14.6518097
  52.0550804  64.9514084  15.8425970  49.6539345  66.7739563  57.5199127
  49.5669098  67.2102432  58.3674469  49.4890594  65.8500290  57.7080879
  27.6077862  63.9281540  50.8826180  27.8426495  63.6461220  49.9985771
  26.9352856  64.5963058  50.7501259  42.7053108  20.4173756  76.7498703
  43.2026863  20.9793148  76.1556778  41.9513817  20.9482803  77.0067062
  61.4071274  38.0901527  44.6221619  62.1878777  38.4168510  45.0693016
  60.9845695  38.8751717  44.2737007  16.3065395  64.1870575  55.7345505
  15.9885483  63.6966057  54.9765434  16.0341530  65.0893402  55.5674667
  57.3943939  65.4744797  30.4388809  57.1399078  66.3889084  30.5625038
  56.9294167  65.2012711  29.6480713  65.3619995  50.2187233  78.8991013
  66.0894165  49.6787720  78.5899887  65.5420456  50.3532143  79.8295441
  67.8523941   7.8303986  85.6737061  68.1436386   7.5887985  86.5529251
  68.6623230   7.9658861  85.1818848  51.7359924  69.8475800  36.5407715
  51.2139053  69.8524475  37.3430367  51.4369278  69.0726471  36.0650864
  35.2961273  11.5177603  31.7263889  35.8058739  12.1142159  32.2746887
  35.0874062  10.7822905  32.3023643  52.6701355   4.1594343  45.2889557
  52.3183136   4.5541081  46.0868835  51.8965034   3.8912249  44.7931862
   5.3449640  50.2401505  80.6053772   5.8073153  50.1786346  79.7695084
   5.1910787  49.3307686  80.8614578  60.2928200   8.9696445  32.5992508
  60.0638275   9.7930593  33.0302734  60.4855957   9.2180748  31.6951771
  60.7698135  62.7688599  45.3733253  60.6745987  63.3643456  44.6299820
  60.1611748  62.0539627  45.1870041  46.1602974  67.3973999  36.1884880
  45.9288139  67.1477737  37.0831032  46.7456398  68.1475220  36.2929840
  43.2816849   1.6037117  86.9107361  44.1467857   1.9612892  87.1106567
  42.6986122   2.3625898  86.9297409   9.8894930  20.3841782  41.6030807
   9.2929020  20.9537544  42.0887718  10.0129833  20.8269596  40.7634811
  14.0123062  50.9574165   3.8043039  13.5216694  51.3262634   3.0698252
  14.0267086  51.6565590   4.4579263  76.7421494  23.3131142  78.3359985
  77.6402435  23.2978497  78.6667862  76.2009354  23.1294956  79.1038513
  58.5982094  24.4233532  66.6857147  58.0665741  25.0776844  67.1389771
  57.9833908  23.9764957  66.1038666  50.8354225  23.3904476  11.1790257
  51.4093513  24.1303368  11.3775206  51.2632675  22.9448738  10.4478321
  31.0428982  53.3906441  85.9758530  30.6662827  53.5965233  86.8314285
  31.4832211  54.1971245  85.7076492  66.5366898  34.9698715  57.2574883
  66.6172256  35.8268242  57.6762733  67.3075867  34.9053879  56.6937523
  32.2167244  29.2072678  85.9840698  32.5243187  28.3163280  85.8172073
  31.2728825  29.1676445  85.8297119  83.0400467   4.1776733   6.7300611
  83.9530487   4.0975718   7.0061765  82.8303833   3.3263202   6.3460393
  49.9970245   0.9838185  21.5120583  49.5025024   1.5223825  20.8942986
  50.4477043   0.3421908  20.9630299  65.6203232  16.4182816  65.2900467
  65.0579147  17.0588932  64.8546753  65.0111465  15.8102760  65.7089310
  80.5541382  14.3221579  38.1288910  80.3766403  15.1625948  38.5512543
  81.3719025  14.0225124  38.5260124  79.3483734  50.1790466  82.3010483
  79.0209579  49.4377747  81.7915955  78.9567032  50.0661049  83.1671143
   2.7976809  28.9665699  45.9763947   2.9948282  29.8999405  45.8977509
   3.2593455  28.5615673  45.2421799  48.9372787  45.0363274  78.2501526
  48.6094437  44.1929016  77.9380798  49.2530289  45.4772568  77.4614105
  32.1999741  48.5447159  12.8654785  32.4147186  49.0232658  13.6661701
  32.7333984  47.7511940  12.9103527  86.0636444  59.5049973  62.9444885
  86.0046997  60.3806725  62.5624542  86.5739365  59.0009880  62.3106041
  49.1158562  62.3123283  49.0308228  49.2043533  61.3761749  49.2097664
  49.5759392  62.7388954  49.7537308  76.7142715  18.4993095  34.4441338
  77.2527847  18.7649574  35.1895599  75.8825912  18.9547119  34.5751114
  57.0100136  42.1823959  63.2856560  56.2855110  42.7535629  63.0305176
  56.6152573  41.5470734  63.8829498  27.9090195   3.3497188  10.3585415
  28.5018272   3.8036590  10.9574966  27.2236080   3.9903293  10.1686411
  62.7228394   5.3455901  54.0379791  62.1401405   5.1575913  54.7737427
  63.1218300   4.5015502  53.8267021  74.7087402   2.8016825  14.4913692
  75.4760437   2.7600410  13.9206285  73.9959869   3.0768497  13.9147511
  53.3856354   4.3158288   0.8957298  52.9426956   4.9110203   1.5005307
  52.6875458   3.9861126   0.3298780  77.8302307  63.3393402  13.9031191
  77.5448456  62.4721146  13.6155310  77.6441193  63.3536186  14.8419418
  24.6666965  67.4816284  38.1843185  24.1977768  68.3107986  38.2782402
  25.5866261  67.7342606  38.1059494  37.9923134  52.0948792  49.0261421
  38.8956985  52.4072647  48.9756584  37.9277458  51.4359818  48.3348274
  55.7853317  59.0177002  73.7994003  56.2199783  59.3793831  73.0270691
  55.5051079  58.1432762  73.5290527  70.7948456   8.9685316  17.7414875
  71.4968796   9.5979338  17.5764523  70.4011230   8.8180866  16.8820801
  85.0659103  63.6478996  65.0825119  85.5386353  63.9503441  64.3070831
  85.7365417  63.5854492  65.7626419  61.8353119  27.1133327  26.8669014
  62.1200218  27.9312439  27.2745647  61.5839157  26.5541573  27.6019897
  72.2039032  38.1470375  13.1661072  71.6542664  38.8369865  12.7944832
  72.5083008  38.5061569  13.9995375   9.8690996  58.1883774  53.6957855
   9.6067190  57.6402473  52.9562302  10.4027786  58.8797226  53.3040428
  51.3172035  13.1936836  80.0743103  50.9180832  13.5476122  79.2795334
  50.6372604  12.6394939  80.4574280  25.0792389  12.8204069  50.8308449
  24.7520657  12.9499111  49.9406662  25.9868259  13.1228857  50.7988205
  63.2035027  25.0327759  43.7755928  63.8797340  24.3582592  43.8386002
  62.8781281  24.9626312  42.8781281  64.9020462  37.6014099   3.0981216
  65.5739975  37.1137924   3.5744998  65.3006744  37.7911835   2.2488234
  19.1947823  35.5834923   3.5782952  18.3496704  35.9528160   3.3221354
  19.5056705  36.1588936   4.2772179  81.9383469   1.4211353  20.0574627
  80.9922638   1.4674540  19.9195766  82.2318954   0.7234070  19.4716015
  54.1653557  55.4038391  75.5396423  54.0292244  54.8223610  76.2876968
  53.3752785  55.9433327  75.5087433   2.6658366  22.1482677  70.0196609
   1.8500406  22.4109249  69.5933762   3.1887801  21.7606525  69.3178711
   8.6357088  50.7956772  11.8507700   8.3597021  50.6549492  12.7564459
   8.7211857  49.9145241  11.4867649  63.8419342  62.9135704  85.6474457
  63.4194565  62.2330894  85.1233292  63.9400215  62.5213318  86.5150604
  86.2296295  64.4389572  71.2974777  86.1586380  64.1932220  72.2198639
  85.3834000  64.1990662  70.9198837  85.3209381  12.5887260  38.8686905
  85.8333817  13.1423750  38.2795296  85.8325882  11.7834597  38.9461098
  84.1745911   2.3100922  53.2919769  84.5864716   2.1686811  52.4395752
  84.8972855   2.5563424  53.8692932  80.5140839  61.2499352   8.1581125
  80.3484039  62.1544685   8.4238243  79.8878860  60.7329178   8.6648664
  63.2891426   2.6048293  53.3082008  63.9464264   2.1389711  53.8250999
  62.4917526   2.5570657  53.8355751  18.7246056  58.0534439  24.5939846
  18.4199677  57.3473206  24.0240593  18.2124367  57.9515991  25.3961964
  28.4310493   9.5110960  22.8692226  28.9271011   8.7025156  22.7413025
  27.5172863   9.2533054  22.7475166  17.8310623  52.2733078   5.9572964
  17.7935963  51.3207703   6.0439034  17.9206600  52.4249229   5.0164366
  80.5441132  28.5356483  86.3792572  80.6510086  27.8082447  85.7663269
  80.2103882  29.2543011  85.8422318  68.2559433  24.5220490  62.5522995
  69.0983658  24.0852547  62.4267082  68.0130692  24.8295994  61.6789970
  40.8770943   2.3705568  57.5396767  41.4089203   3.1573510  57.6594696
  41.0440788   1.8469763  58.3233948  61.7091103  24.6412029  61.6693153
  62.0469971  24.0649452  60.9837570  62.1531715  24.3513775  62.4662094
  61.1770859  28.1542969  12.2616482  60.6297417  27.8325977  11.5453005
  61.5487442  28.9718990  11.9305439  63.3430634  57.2119675  63.4818649
  63.0197678  57.2037582  64.3827744  64.2924728  57.2973213  63.5688667
  43.0722656   0.9078411   2.3897510  42.2567177   0.9487941   2.8891885
  42.7966461   0.6952685   1.4980787  47.6859818  71.9564438  40.8479309
  48.0093002  71.2115250  40.3411827  47.3534584  71.5690765  41.6576233
   8.5156851  18.7038250  47.9351730   8.9621077  19.5475273  47.8637085
   8.8921919  18.2990627  48.7166061  72.0463181  36.7188835  52.0574646
  72.0470963  36.6621094  51.1019478  72.7326965  36.1117477  52.3340340
  10.7396231  10.2951365  84.2711792  11.4008598  10.3159990  83.5793915
  10.6828499   9.3727226  84.5205002  23.9755878  63.9949188  81.4098282
  24.2683620  63.0851402  81.4628906  23.0615158  63.9692650  81.6927490
   6.0426955  69.1221313  23.2730236   5.4645481  68.5364609  22.7841778
   6.8222866  69.2026825  22.7234974  63.1680717  42.0873146  42.8546410
  63.1290054  42.2595673  41.9138794  63.1741409  42.9557762  43.2570992
  14.2543335  34.1273460  17.5291481  13.4515047  33.6656723  17.2871609
  14.1815014  34.2548027  18.4750233   2.5847661  38.4837952  57.6911583
   3.0059836  38.1778870  58.4944191   3.2592151  38.3940239  57.0178909
  76.0671997  47.4115829  80.1399155  75.7505569  46.5096855  80.1904449
  75.7372589  47.8262749  80.9370346  63.7248573  26.1658802  17.2095680
  63.5558014  26.2642021  18.1465759  63.0487976  25.5597973  16.9065170
  12.0205641  13.9396915  35.8734131  12.8386993  14.0874538  35.3990135
  11.6227980  14.8076992  35.9410591  30.9098969  29.7252655  23.2772408
  31.6901569  29.8857079  23.8079796  30.2023468  30.1587257  23.7544384
  69.7259750  64.8105927  68.1175842  69.6091843  65.1993256  67.2507095
  68.8890381  64.9543533  68.5592880  13.0455284  34.0515709   0.3993345
  13.0412064  34.2092857  -0.5447729  12.7315884  33.1522179   0.4933653
  39.2612572   6.8068323  30.7309399  38.7051659   6.7548966  31.5083046
  39.1644783   5.9527555  30.3097286   2.6030972   2.2529795  61.4558601
   3.1813896   1.4911741  61.4176216   3.0998700   2.9523447  61.0312004
  81.4515610  39.9540253  76.3680420  81.3982544  40.4982872  75.5824356
  81.2821045  39.0652542  76.0556259  47.6647148  32.3683090  76.8310547
  47.4296074  31.4891357  76.5343857  47.0230751  32.9419937  76.4122314
  50.7559967  53.6012497  17.8639984  51.4587975  53.3373489  18.4578514
  50.1903152  54.1608276  18.3960743  64.8146820  66.2963181   9.0587521
  64.5485687  65.3816833   9.1528463  64.7485962  66.4695969   8.1196890
  49.8870430  48.6656532  16.1851788  50.2897453  49.1042595  16.9346371
  48.9455605  48.7590561  16.3304958  36.6367264  54.7156105  67.3701248
  36.2997856  53.8214149  67.3142471  35.8706398  55.2699471  67.2216110
  16.3729267  64.1070175  44.9047012  16.0149059  64.4697647  45.7149277
  17.2458172  63.7971916  45.1461639  42.2373161  38.0461082  11.7192307
  42.9417534  37.4475670  11.4707422  42.6284561  38.9171944  11.6524754
  71.3253326  57.9099731  41.4246140  71.4445801  56.9827995  41.6304398
  70.4483795  58.1162605  41.7480736  66.2877808  49.6783905  60.2755089
  67.0300827  49.9036980  59.7147484  65.6632080  49.2541847  59.6871338
   0.4673305  47.7268753  88.3282166   1.4168780  47.8409386  88.2884521
   0.3334224  47.0697861  89.0112457  37.1345596   4.3053937  86.4743195
  37.5338669   3.7768624  85.7833481  36.4632721   3.7374840  86.8525772
  43.7047272   1.7927587  37.0421143  44.0715485   1.6485969  36.1698265
  44.1471825   2.5793798  37.3610039  82.7884445  25.0988712  13.2064142
  82.7345047  25.7697868  12.5258303  83.7019119  25.1199532  13.4916592
  47.3610039   2.3956835  35.6707726  46.7002907   3.0828519  35.5842133
  47.6754341   2.4777899  36.5711174  26.8881683  18.0556602  15.6257801
  27.1519547  18.4575367  16.4535141  27.6681175  17.5878162  15.3273935
   2.2543938   9.3947353  73.7472076   2.1246669   8.9915981  74.6056213
   1.7381179  10.2000895  73.7803268  69.5086441  61.9758263  80.5339661
  69.4528503  61.1078072  80.1343842  68.6099625  62.3050079  80.5180969
  36.3420982  60.1848755  59.2324982  35.7669678  59.4319954  59.0960197
  35.8758698  60.7307701  59.8656349  39.3894157   1.6658148  12.0389252
  38.4640579   1.8258470  12.2242146  39.8471603   1.9748983  12.8206987
  80.9514008  67.9747162  30.8585415  81.1733704  67.1402817  31.2716904
  80.7733002  67.7499237  29.9453163  28.8408737  47.7452850  82.7210999
  29.5748348  47.4270744  82.1954803  28.8719215  48.6970825  82.6244125
   5.3049426  53.5528030   7.6044674   5.9721951  52.9028091   7.8247213
   4.8999577  53.2185860   6.8041449  30.9386597  66.7683563  33.2298050
  30.1158772  66.7286530  32.7422791  31.4294930  67.4771576  32.8139725
   8.6737986  59.3952217  79.3424835   8.7554903  59.2321815  78.4028168
   7.7306972  59.4582863  79.4935379  56.7113419   5.8229475  76.5778809
  57.1756134   5.3428721  77.2636032  55.9955139   6.2630262  77.0363083
   1.3229111  32.9773026  60.9071655   0.7483144  33.7320824  61.0351334
   2.1222970  33.3458633  60.5311623  15.7684021  66.4654541  18.4211769
  16.1505775  65.8352356  19.0319118  14.8692379  66.5814972  18.7282066
  36.5743980   5.4071980  48.3736000  37.0851440   4.6043520  48.4775734
  37.2253532   6.0818486  48.1803703  56.2058182  23.6630878  13.6394815
  55.6064072  24.3230667  13.2911062  55.7055244  23.2246265  14.3277321
  84.6996841  51.9032974  56.6934891  85.1875305  52.0972404  57.4938774
  83.7986145  51.7713051  56.9882469  48.9009438  55.4553070   2.2569702
  48.5347519  55.3620834   1.3775139  48.8671303  56.3957520   2.4320474
  29.6415710  15.3735933  15.8749809  29.7209625  16.1976414  15.3944883
  28.7564659  15.0663557  15.6789579  72.4834442  14.4148703  39.9827347
  72.0554581  14.7896338  40.7525444  72.1886139  13.5043964  39.9642448
  44.8648109  35.4801903  25.9650440  43.9532890  35.2607803  26.1579742
  44.8760719  36.4361191  25.9170685  40.4351082  42.4644814   8.8563051
  41.2540092  41.9967918   8.6922913  40.0848541  42.0625992   9.6513166
  34.4407616   2.5395272   9.9956484  33.6830101   3.0348024   9.6846075
  34.9053078   3.1481440  10.5701170   5.4263816  26.3254910  45.3957939
   5.7947707  25.6525879  44.8233223   6.1773119  26.6603317  45.8859138
  32.3999596  14.8120050  70.1993408  33.3313980  14.7742414  70.4166641
  32.0925484  15.6236658  70.6029892  84.7951508  39.9809303  75.7095261
  83.9758453  40.3381958  76.0520554  84.5659637  39.1013603  75.4094162
  42.9426537  66.1520386  26.9326668  42.6426735  65.7755890  26.1053028
  42.1520615  66.2125244  27.4688911  21.6270351  71.4610672  83.2558441
  20.6987743  71.2307205  83.2170639  22.0721989  70.7363510  82.8167114
  73.9409256  38.2950401  82.0162201  73.6031799  38.9549904  81.4107208
  73.2572556  38.2071037  82.6803589  74.1636047   8.4368982  13.8615398
  74.5128937   7.6973686  14.3588581  74.7274094   9.1730194  14.0991983
  25.4146862   7.2173195  20.2201538  25.0283031   6.7367778  19.4880199
  25.2375526   8.1371088  20.0230656  66.7359238  27.8763199  67.8136139
  67.6080933  27.4820328  67.8232498  66.2202301  27.3031845  67.2463303
  59.3283119  62.2179298  72.8891144  59.6997375  61.6586494  72.2068558
  58.4334946  62.3906822  72.5963898  65.6844940   4.3110499   2.4292569
  65.0229263   4.4306045   1.7478918  66.4017029   4.8899417   2.1709304
  66.5784607   9.7209339   6.4737735  66.7880325  10.5575886   6.0586557
  66.1040421   9.2321014   5.8013186  61.8870697  43.8570328  47.0513268
  62.4955940  43.1493874  46.8388023  61.0302010  43.4322586  47.0909653
  13.1353168  63.6774406  21.0382557  13.4159889  64.5728531  20.8493214
  13.3348646  63.5546799  21.9663391  24.8812733   3.2874014  74.7389679
  25.5963306   3.9064951  74.8860931  25.0284348   2.5941925  75.3824234
   0.2814010  59.6561127  42.3975372  -0.2846033  59.2881851  43.0761375
   0.5114115  58.9082985  41.8460846  44.8167191  30.5905304  55.1299820
  44.5443840  29.7319317  55.4538193  45.6873894  30.4422073  54.7609787
  71.5167160   9.6521587  76.3075256  72.4064865   9.8769884  76.0354996
  71.4368210   8.7176085  76.1165771  39.5111351  34.0361061  26.8487625
  40.0075493  33.9407158  27.6616001  40.1163712  34.4710274  26.2481251
  13.7800732  16.0142078  88.0884628  13.7364330  16.3202877  88.9943619
  13.0981407  16.5098305  87.6350784  35.2451324  64.9913330  26.7615089
  35.4837341  64.0944748  26.9959393  36.0637207  65.3862381  26.4611816
  73.5255508  16.5146923  38.1569252  72.7332001  17.0279274  38.3150330
  73.2491989  15.6056204  38.2729034  59.0555267  49.3506660  30.4221325
  59.5777664  48.6413193  30.7967339  59.6318970  49.7560997  29.7743263
  22.3669605  13.8224592  67.9177628  21.7907372  14.5331898  68.1989365
  21.7711754  13.1295729  67.6328430  27.1559620  36.2627907   4.6231275
  27.2628632  36.9095840   5.3205957  26.2431526  36.3539352   4.3498073
  68.9188614  44.7866364  25.5334206  68.2906876  45.3937416  25.1422062
  69.1329117  44.1759682  24.8280830  80.5731888  41.5005951  85.4095612
  79.6362228  41.6755562  85.4974060  80.6354065  40.5465279  85.3635330
  31.4994583  63.5676765  14.3172941  30.9657707  63.6887093  13.5319529
  30.9557629  63.9026680  15.0303211   7.1979094  41.4508591  11.8499842
   6.7330289  40.6283379  12.0035467   8.1080322  41.1891708  11.7105961
  47.7547722  56.0257072  22.2036915  47.4120712  55.2940216  21.6904392
  47.7653961  56.7625656  21.5928249  55.8867989  46.0150909   8.6149378
  55.5915298  45.4330292   7.9147592  55.3684959  45.7555771   9.3766766
  64.6193237  58.3778687  73.3973160  65.5049286  58.3293457  73.0373535
  64.6942902  57.9930611  74.2705460  48.1758080   8.4796925  52.1234474
  47.7322807   9.0472469  51.4930534  47.7157440   7.6429033  52.0574379
  57.4594078  70.0032806  23.8925514  58.2438545  69.5892792  23.5327263
  57.2542610  70.7051620  23.2748928  80.8762970  55.3101387  64.7870102
  80.8078003  55.8439445  63.9954338  80.6912079  55.9182129  65.5027084
  65.5344315  61.4376717  48.7024651  66.0054474  61.1293831  47.9283028
  64.7854996  61.9192543  48.3511620  34.6542625  68.4944763  86.6848831
  34.4790573  67.8842163  87.4011993  35.5599670  68.7718658  86.8226776
  86.5982971  48.9163818  33.9839096  87.1793365  48.3133202  33.5202866
  86.3624344  48.4519272  34.7869568   7.4493127  59.1676292  88.4789810
   7.6644940  59.6673393  87.6914444   8.2564516  59.1721687  88.9935074
  18.9917431  66.9323959  28.4213371  19.8059731  66.4767075  28.6348915
  18.6204853  67.1702881  29.2709293  50.2860374  64.5654678   6.5582066
  50.8567162  63.7972221   6.5393114  50.0933228  64.7433701   5.6376405
  40.1060944  59.0987625  23.2517929  40.1138306  58.1416664  23.2635651
  39.8176575  59.3250923  22.3675919  52.0276566  48.2171593  70.9969635
  52.6659355  48.0065308  70.3154449  52.4809647  48.8396378  71.5655289
  80.9587021  36.8175507  29.4053364  80.4473038  37.4260826  28.8720493
  80.4544525  36.0040741  29.3905334  25.1713963   5.8629050  84.2045135
  24.2410965   6.0383258  84.0630798  25.1933746   4.9916244  84.6002655
  66.2577820   8.1040649  18.7709999  65.4128799   8.5250807  18.6124916
  66.5034103   8.3843927  19.6526527  68.2436752  24.4055061  71.9995270
  68.7450027  23.8597431  71.3936844  67.3289032  24.2039642  71.8025360
  17.8055878  57.7793121  27.3942299  17.7489777  58.3370667  28.1700764
  16.9079914  57.7356720  27.0646114  74.6383591  40.3883362  38.8258209
  74.3545761  40.7250175  37.9759140  73.8840332  40.5209312  39.3999634
  14.8252153   6.3079944  21.1619625  14.8477364   6.9610462  21.8614254
  13.9499149   6.3921471  20.7838097  10.9421368  66.1566849   4.2218628
  10.1611300  66.4482956   4.6922069  10.7878714  66.4204483   3.3147438
  68.3415451  39.3395538  61.5172119  69.1021118  39.8654861  61.2698975
  68.2957993  39.4178810  62.4701042  27.6977558  71.4886398  17.9313526
  28.1928902  70.7108994  18.1886177  28.3656387  72.1546173  17.7681313
   4.5515184  58.0857315  53.5629196   4.3324409  58.7396088  54.2267570
   3.7887924  57.5080681  53.5348511  67.8799210  12.6244860  19.5875568
  68.2808228  13.4419088  19.8830814  68.2041397  12.5078697  18.6945210
  12.6017666  58.2120781  50.3248749  12.9982119  57.5295067  50.8663177
  13.2824297  58.8803902  50.2455788  49.6348228  37.1077766  72.5376053
  48.9678230  36.5864143  72.0909195  49.5394096  37.9857903  72.1685333
  79.9670563  46.5020866  55.3185310  80.6506271  46.0984688  54.7836876
  79.1651459  46.0430031  55.0687141  58.1595306  42.1227531  19.3012791
  58.1411629  43.0778847  19.3614330  58.7421303  41.8493004  20.0098209
  13.0611620  43.7395058  86.2867050  12.2418890  43.7581291  85.7920532
  12.8255033  44.0715065  87.1529999  54.7464027  63.0921364  72.5128250
  54.0953331  62.4271393  72.2889481  55.5393295  62.8151283  72.0537338
   9.5145779   3.9451687  84.4602280   9.0372305   3.4495683  85.1256256
  10.3624601   4.1321211  84.8631897  14.7928591  51.5967407  67.9760590
  14.0318356  51.0487022  68.1677094  15.5215282  51.1560860  68.4132080
   7.9808207  68.5208054  27.5105743   8.3156652  67.8337631  26.9343052
   7.6413589  69.1887283  26.9148560  58.7875595  27.7713604  44.3177681
  58.5748253  28.1745529  45.1594391  58.8318863  26.8338375  44.5056915
  39.2579117  54.2382812  46.4341507  39.8564148  53.8159142  47.0502930
  38.8440933  54.9359703  46.9422989  17.8414459  57.7687988  20.7333412
  17.6169739  56.8448486  20.8436165  17.0018463  58.2262764  20.7783070
  11.5021296  18.4895325  60.4779510  12.1797953  18.9247646  59.9606743
  10.6985245  18.9658089  60.2691193   6.7023168  21.5128822  56.5249786
   7.1719370  20.8432732  57.0222816   7.2514915  22.2935944  56.5965805
  65.9119492   2.1601679   8.6855736  65.8286362   1.3299326   9.1546154
  66.4514694   2.7055678   9.2580118  57.3539200  25.7660065  82.1274414
  57.5238419  25.8340206  83.0669785  56.4192886  25.9527264  82.0389404
  73.3172150  62.5126228  28.8749218  73.4011765  61.9247665  28.1241837
  72.9568710  61.9627075  29.5706081  76.7732162  27.1979389  55.3634377
  76.9123459  27.5901775  56.2254257  75.8291473  27.0463448  55.3188324
  80.7991486  30.1979294  22.4004250  81.5028076  30.2673416  23.0456142
  79.9968414  30.3273163  22.9061871  26.8808136  12.3080406  13.1242247
  26.6546783  13.1999063  13.3881779  27.7891216  12.1980467  13.4054842
  17.8156013  65.3872070  20.0661354  17.4463806  65.6689758  20.9031029
  17.8042126  64.4310379  20.1090889  44.1817589   1.3617998  81.0092621
  44.1246033   1.6583153  81.9175797  43.7836456   2.0685561  80.5010910
   5.6262164  67.2107620   4.4545302   5.1000862  67.2105255   5.2541671
   6.0301909  68.0782928   4.4338841  85.0037384  58.9707794  29.3964844
  85.0780716  59.7853355  28.8992863  85.8872910  58.6027107  29.3866863
  52.4442024   6.4189253   6.8550596  52.7938080   7.1599536   7.3499188
  53.1352119   6.2013240   6.2294464  71.2684402  69.2489548  14.0266705
  70.9963303  70.1180115  14.3215075  70.4480286  68.7802887  13.8733549
  44.9387131  29.7750893  77.9501343  44.3882751  30.2904644  77.3605270
  45.7110825  29.5579319  77.4281006  29.8045483  70.2420044  41.5478363
  29.7769413  71.0757217  42.0172958  30.5288410  69.7637405  41.9514351
  14.7033129  15.7824583  30.6578312  15.2611618  16.4038601  30.1899681
  13.8763294  15.7931013  30.1759415  49.5601349  22.2423840   5.0932312
  48.9251404  21.5296803   5.1644197  50.2380714  22.0239162   5.7326894
  85.9384079  48.3721466  22.6352234  85.2632675  48.8721390  23.0939407
  85.5057831  48.0577850  21.8413448  47.6090584  46.8329735  42.0054207
  47.3110123  47.1845055  42.8443642  46.8033257  46.6087646  41.5398483
  39.9926643  60.8736916  18.9470863  40.1002769  61.8073463  18.7655773
  40.8864365  60.5343475  18.9945335  64.4230881  67.8415680  35.1994743
  64.7239761  68.6296997  34.7472076  63.5427895  68.0616302  35.5042229
  85.7670593   1.3545791  58.5228729  86.6140900   1.1667186  58.1185379
  85.8538208   1.0339406  59.4205894  39.5815620  67.1658020  29.0727615
  39.2294197  66.3268204  28.7755547  40.1616859  66.9381943  29.7993145
  66.7758942  31.1642494  61.8690491  66.0523605  30.9112606  62.4424019
  67.0201340  32.0413628  62.1644287  26.7846260  65.1260757  19.2388096
  26.0428200  65.5699997  18.8278542  26.6870422  65.3112335  20.1728458
  36.8841896  60.3705177  36.8030930  37.0499496  60.1861343  37.7276230
  37.1891289  61.2694206  36.6797180  37.2374306  46.1048698  24.1579380
  37.9987259  45.7152710  23.7279682  36.5086288  45.9244881  23.5641842
  49.2497101  62.3649406  43.7403870  49.0038757  63.1545181  44.2224312
  48.6076508  61.7089577  44.0118294  23.2558899  57.3280449  54.5198555
  23.0406895  58.1112328  55.0263519  23.6735821  56.7419586  55.1509361
   2.2164428  20.6989346  11.9440470   1.7016703  19.9027615  11.8123341
   2.3749804  21.0305920  11.0602484  55.4312057   9.3658981  12.6962795
  54.6990013   8.7872047  12.9089336  55.2993279   9.5904474  11.7751837
  58.0081215  33.5759811  19.4598598  58.1731491  34.0646477  18.6535072
  57.8469658  32.6788712  19.1675282  64.8267136  42.9105682  30.5790386
  64.3720398  43.7356834  30.7483978  64.6141586  42.7023201  29.6692657
  53.7843513  34.7815590  22.8000565  54.2178955  34.0038643  23.1514301
  54.3413887  35.0581360  22.0724277  63.4016190  10.6170464  30.4024963
  64.1313248  11.1925545  30.1732426  62.6296539  11.1815872  30.3625908
  10.5282106  56.6629677   6.4991527  11.1151733  56.6413460   7.2549558
  10.9135284  57.3163033   5.9152703  53.8027382  14.7043447   6.8259892
  54.2527122  14.1636600   7.4751530  53.0441017  14.1826572   6.5641723
  57.0117798  55.8484764  85.4685516  57.1930809  55.0437241  84.9830246
  57.2027321  56.5511971  84.8472977  74.2012024  19.6038933  60.3018494
  74.6597137  19.0117455  60.8979721  74.8984756  20.0242500  59.7985115
  10.5213747  15.7784500   2.0602787  11.2997999  16.3346386   2.0909307
   9.8127203  16.3717842   1.8112931  23.1968517  62.6017609  35.6348495
  23.8326950  62.3924789  36.3190536  23.3658104  63.5199471  35.4236107
  51.8321037  70.0630569  46.2482033  51.4055977  70.8796921  46.5078773
  52.2601471  69.7522125  47.0459366   9.2033768  22.1768799  37.2135582
   8.3443384  22.5933266  37.2832565   9.6035757  22.3080292  38.0731354
  62.8395233  14.4794292  80.4804840  63.2102089  13.9496346  79.7746964
  62.6324120  13.8486557  81.1700211  19.5282421  14.0580702   1.5316757
  18.9090805  14.4638653   0.9248785  18.9785366  13.6840458   2.2202709
  60.7810593   6.1479402  51.4192734  60.7120056   6.1443944  52.3739738
  61.6174316   6.5780702  51.2412262  42.5865898   8.9648113   3.5833848
  43.1645775   8.2092409   3.4771938  42.8079147   9.5404310   2.8513272
  59.9372063  27.6123123  56.9716988  59.4165230  27.0994473  56.3535652
  60.7580185  27.1268005  57.0540123  23.2299347  59.8701973  43.8928337
  23.2508793  59.1798172  43.2301407  24.0888138  59.8250389  44.3129768
   2.7117097  58.2659836  47.6677475   2.5083196  57.3334694  47.5950775
   3.6542413  58.3186073  47.5093269  52.7977943   6.9191289  64.1354904
  53.5046997   7.5572548  64.2319870  52.1597519   7.3524051  63.5685654
  49.8008194   1.6100793  51.4428558  50.5023537   2.2604508  51.4759483
  50.2285805   0.7845777  51.6704483  20.6100521  14.8581104  23.9118366
  20.8134651  14.1278143  23.3274364  19.6558609  14.9286194  23.8838997
  82.1889343  17.3331318  53.8468361  81.4920731  17.4535542  54.4919052
  82.8772736  16.8676319  54.3219452  31.8366795   9.9245720  41.8476639
  32.0656395  10.7374039  42.2983475  31.2702236   9.4603519  42.4639931
  24.5795918  31.7248192   1.6497147  23.8977680  31.1793594   2.0419149
  24.5320091  32.5507660   2.1311469  41.6835022  58.9598465   5.9057627
  41.2222824  59.4842529   5.2511606  41.8366699  58.1191139   5.4745541
  58.8475647  23.3953018  53.3007202  58.8302269  23.7838211  52.4260864
  59.4078979  22.6246414  53.2094040  73.7169800  22.6948204  54.2345428
  73.8222580  21.7722034  54.4667625  74.2650375  22.8104782  53.4583435
  22.0947189  44.7400398  17.4381924  21.9706402  44.3198547  18.2892418
  22.9541931  44.4376183  17.1448021  59.1296120  66.1234055  35.3752098
  59.7538567  66.3236542  36.0726700  59.1276207  66.9057312  34.8236732
   6.5956850  52.8861046  39.1841850   6.8494763  52.7502022  40.0970650
   6.9422216  53.7511559  38.9654846  45.1652260  49.8582153   1.3995461
  44.5775833  50.3054962   0.7905717  44.8195343  48.9673615   1.4552811
  51.2574501  69.4902649  81.3681946  51.6222725  69.4998932  80.4832916
  50.3129578  69.5764618  81.2388229  46.2201233  58.9984436  81.1840668
  45.4758987  58.7286072  81.7221680  46.8044777  58.2403145  81.1860352
  34.2660408   7.2209129  24.3661423  34.7550240   7.9439583  24.7589893
  33.3743706   7.5566897  24.2744331  42.1993675  26.9542599  19.0742798
  42.7057686  27.7455845  18.8909931  42.6408844  26.2665653  18.5759125
  72.4736481  24.9485226  54.9306068  72.0687485  24.8782101  55.7950974
  72.7796173  24.0625229  54.7366524  33.9294930  68.1520844  71.7978210
  33.3779373  67.5684509  72.3187714  33.3925133  68.9331360  71.6642456
  55.0405121  57.1564751  57.0297699  54.4022713  57.0437851  57.7341690
  55.1979103  56.2698898  56.7050781  43.8646927  70.0124130  61.2912369
  44.3924637  69.4316254  60.7431717  44.4960251  70.4239273  61.8814163
  73.7426071  66.5657959  49.0259590  72.9633942  67.1028976  48.8824959
  73.8731689  66.1067276  48.1962357   4.8689380  23.9155598   4.1372180
   5.1285839  24.8359985   4.0971084   4.0641522  23.8710041   3.6209168
   4.0652046  46.0427055  45.6121521   3.9289315  45.7370834  46.5089569
   4.9554873  46.3943138  45.6116180  50.1576462  17.9464493  51.3166733
  49.4680214  17.3564014  51.6208000  50.2057533  17.7924633  50.3731651
   4.2571621  19.2790470  42.4734154   5.0634203  18.8137741  42.6963539
   3.5967920  18.9077969  43.0584946  40.6848717  36.7336769  82.4056244
  40.2911758  36.0538788  81.8587189  40.0113564  37.4109802  82.4677811
  45.1871986  10.0108223  21.8691616  45.0416679  10.3433971  22.7548523
  44.3157425   9.9936676  21.4735622  14.6629677  63.1107483  40.5952911
  14.6898098  62.6962547  41.4576721  14.5865850  62.3807030  39.9809341
  69.5400848  15.5107899  57.9367828  68.9411316  15.0805559  58.5470200
  68.9821243  16.0994911  57.4285049   2.0209796   7.3884730  22.0468674
   1.9462198   6.8052063  21.2915916   1.2647529   7.9709282  21.9754639
  14.4430628  13.1291227  87.9732666  14.0853453  12.9195404  87.1105118
  14.2562475  14.0606070  88.0901718  65.2790070  26.7979050  70.0227203
  65.5719910  27.1977940  69.2038956  64.3330994  26.6979828  69.9154587
   6.7607789  45.4391022  50.6489792   6.4459629  46.3392906  50.7313499
   7.0073800  45.1891861  51.5394630  48.2738419  13.2900162  85.5709305
  48.8247223  13.1531410  84.8002014  47.4048958  12.9938679  85.2999039
  31.8589802  40.8493996   6.4982901  31.6020660  40.0205498   6.0942702
  31.0307636  41.2708549   6.7277818  26.0324745  30.7274609  83.7502441
  25.3497562  31.3698750  83.9437180  25.7303734  29.9227085  84.1713638
  14.6083450  18.2779503   6.5969930  14.9501266  18.3576756   7.4875331
  14.6315079  17.3385429   6.4147630  74.7978821  30.2458878  51.1334724
  74.9028168  30.8003330  50.3602905  74.7418671  29.3563328  50.7844925
  15.0863495   5.8533292  57.8104553  15.7481680   6.1901956  58.4144020
  14.5140200   5.3157420  58.3578758  36.8848190  69.1954803  61.8589363
  36.0065842  69.2459717  61.4816017  36.7496147  68.8267822  62.7318687
  72.1055298  19.4275608  23.4214916  72.2265320  19.2439842  24.3530979
  71.6324310  18.6657543  23.0867367  46.4253235  33.6295166  85.1413651
  47.0812340  34.1431274  84.6699600  46.9336433  32.9806900  85.6280518
  33.6128731  68.3271484  62.7534523  34.3933144  67.8216095  62.5263596
  33.5173340  68.9549103  62.0371971  75.9611816  36.0072899  12.0535269
  76.8782883  36.2257652  11.8879318  75.4817200  36.4309578  11.3415861
  82.3744354  39.4980164  80.6555481  82.8121033  39.0401802  79.9378662
  82.7412033  40.3819160  80.6347885  69.6927032  59.1106567   2.2326577
  70.5558777  58.9935837   1.8358516  69.0870132  58.7044029   1.6127173
  15.9395399  48.8311272  23.4422035  15.4299288  49.5787125  23.7546825
  16.6662521  48.7610893  24.0612469   8.0704145   1.8088428   9.1358347
   7.8588948   2.0889544  10.0263557   8.4933815   0.9573488   9.2466898
  35.7701607  57.0739441   6.4356184  35.3723450  56.2336960   6.6635647
  35.5482025  57.6502724   7.1669254  29.0662212  68.4534988   3.6116927
  29.5578213  67.7513046   3.1856811  29.5098705  68.5819397   4.4500890
  20.1670952  57.4252586  41.6507416  20.5511799  56.5796661  41.8824310
  20.9035988  57.9409180  41.3222809  32.2621231  26.0004559  25.4537621
  31.6727333  26.7345238  25.2805805  33.0306778  26.1772346  24.9112606
  68.9069672  70.0187225  82.4446640  68.7108841  70.8796310  82.8142929
  68.9328537  69.4333420  83.2015533  78.0296707  14.4339561  85.0141678
  78.6837845  13.8841553  85.4455414  77.5615692  14.8582306  85.7332687
  83.2252960  22.8796501  53.0523148  83.3909531  21.9396057  52.9808693
  82.2964020  22.9429531  53.2745323  51.3499527  61.7570381  56.0184860
  51.1187019  62.3412857  56.7405739  50.5220299  61.5965538  55.5656967
  61.3919373  67.1789551  83.9410095  61.6464081  67.4508057  84.8228073
  60.4791756  66.9044724  84.0290375  86.0416412  20.9558926  41.5194778
  85.8173065  20.8437138  40.5957222  86.9986191  20.9711647  41.5333977
  47.7773552   0.9565104  25.3827190  46.9554939   1.2132285  24.9645424
  47.5132599   0.3626077  26.0854034  52.0719681  10.3044977  66.5009460
  51.4902191  11.0535355  66.3715591  51.6328850   9.5803404  66.0548172
  29.7151184  31.0539474  74.2147598  29.6629791  31.6543655  73.4711075
  30.5584106  31.2506008  74.6227036  59.0414696  63.0273705  83.7598572
  59.4765930  62.6441841  84.5214844  58.1099129  63.0024719  83.9785309
  63.6877174   8.7835379  18.6997433  63.0029793   8.7836876  18.0308876
  63.7342148   7.8741045  18.9947014  64.4731979  63.5907326  44.8035965
  64.0472336  62.7567596  45.0017815  65.2254410  63.3526344  44.2616844
  10.8940659   2.9032485  10.3750467  10.3170309   2.8064830   9.6174860
  11.6853170   3.3108714  10.0229120  62.1184158  32.5832062   0.7093636
  61.1647072  32.6189079   0.6358957  62.3660622  31.7921352   0.2307080
   5.2271442  21.1087456  36.3703995   4.7588367  21.9362164  36.2598991
   5.1704473  20.9248123  37.3080482  35.1975021  63.9689636  -0.1333704
  35.1535606  63.6835365   0.7792260  36.1121292  64.2202835  -0.2619441
  38.0091858  52.6864014  22.8058853  37.7932358  53.6086388  22.9439983
  38.9587021  52.6782303  22.6851177   1.6988003  22.1658211  41.6944847
   2.4898643  21.9179573  42.1730347   2.0173113  22.4590874  40.8407974
  83.5283203  71.1275101  51.7691307  83.2887955  71.7878113  51.1188545
  83.4582748  71.5817719  52.6087570  54.7490463  64.9683762  43.6707687
  54.4659386  64.8928146  42.7595177  55.1031342  65.8550644  43.7388306
  78.5701523  61.1789818  10.4193115  77.6746368  61.2686462  10.7452507
  79.0622711  60.8320923  11.1634398  58.2698059  58.4364243  89.2069702
  57.4919090  58.0279617  88.8271484  58.8851547  58.5046272  88.4769516
  31.8509235   3.0775225  28.3140659  32.4144249   3.2110231  29.0762177
  31.6004181   2.1548302  28.3600922  71.3875275  68.8966522  80.7075195
  72.0673447  68.9904861  81.3748093  70.5996933  68.6646957  81.1991959
  13.5050640  25.8377743  20.1719704  13.8426714  26.3811054  19.4598999
  13.2493782  26.4632320  20.8499508  19.7008228  44.1350021  44.0858879
  18.9933205  44.3579254  43.4809265  19.2645683  44.0085411  44.9284554
   7.7287192  55.8087997  87.4857254   6.9604425  55.9941063  88.0257645
   8.2683821  56.5959778  87.5588303  13.1444302  45.6813812  76.1766510
  13.9066601  46.1044044  75.7813187  12.3985910  46.0213127  75.6822815
  65.1609879  29.3227100  49.5483971  64.5306015  29.4822884  48.8459854
  66.0149765  29.4694138  49.1416931  70.8984299  70.1211548  56.7785912
  71.4903793  69.9327469  56.0503578  70.5643311  69.2641754  57.0435524
  59.8199654  61.1152611  59.3251038  59.4094048  61.1082954  60.1897545
  60.3071747  61.9387398  59.2979279  79.6318817  62.9215965  33.8975258
  79.1305161  62.2971535  33.3731842  80.5268936  62.8484268  33.5661125
  37.5117111  71.7091675  86.8067780  36.9326935  71.9173355  87.5400162
  37.4977570  70.7535019  86.7544098  65.7474823  45.6460342  50.1950645
  64.9613953  45.1261597  50.0276184  66.1613693  45.2195168  50.9454041
   1.1576591  66.6444473  23.7221012   0.5625942  66.1315536  24.2689762
   1.4536327  67.3548889  24.2912273  26.1307430  53.6572304  57.2531204
  26.8138695  53.9607353  56.6552429  25.8526230  52.8156929  56.8916054
   8.5147734  55.5866127  63.9390984   9.3629017  55.7108345  63.5130920
   8.0879498  56.4411049  63.8766670  44.7913742   8.1149063   0.1246334
  45.0105057   7.1916676  -0.0012346  45.0567627   8.3035011   1.0247633
  37.7519760   0.9510963  15.6874886  38.0714111   1.7095212  16.1763496
  37.6400490   1.2725997  14.7928715  53.8610344   6.3950558  84.0910797
  53.0553169   6.3832550  84.6077118  53.7828140   5.6399164  83.5080872
   1.0410777  44.7175903  31.0937881   0.0908730  44.8330688  31.0910263
   1.3849250  45.5541039  30.7803421  49.8785095  21.4202461  59.2352638
  49.5401535  21.9492130  59.9577179  50.8192024  21.3608227  59.4020042
  41.5447159  54.8946762  60.0288429  41.5581398  55.8214111  60.2680435
  40.6274910  54.7135506  59.8236008   1.9863706  54.6717224  72.9841919
   1.7718356  54.1863213  72.1875763   2.8066936  54.2830467  73.2878952
   4.5719819  42.6702957   8.3163462   4.5051856  43.5497246   7.9443617
   5.4057078  42.6718369   8.7865915  47.8199081  71.0660477  56.7330551
  48.6678734  71.4430313  56.9677277  47.8802528  70.1511230  57.0078239
  79.8299484  33.6788177  17.2320614  79.2928848  34.3119545  17.7084351
  79.8965149  34.0386696  16.3475800  58.2327461  55.0554848  18.1566029
  57.6438713  55.8075142  18.0940723  57.6565170  54.3152390  18.3469334
   1.3171188   9.0874147  43.1154938   0.3829016   9.0428066  42.9118271
   1.5487728  10.0058374  42.9774094  78.7160187  46.4293480  75.9820328
  77.7821579  46.6314468  76.0394516  79.1379776  47.2796860  75.8591309
  22.8831654   0.3315466  61.2946014  23.3766384   1.1387333  61.1491127
  23.5120869  -0.3685056  61.1196251  11.9928112   1.7687372  53.1730919
  11.5442085   1.0096023  53.5455170  11.7670956   2.4914396  53.7587433
   2.1426961  49.9735680  57.4723320   2.8527629  50.4724274  57.8762856
   2.2079597  49.1030884  57.8650589  33.8421669  22.9552174  21.3520374
  34.6197319  23.4548759  21.6009674  34.1865807  22.1275101  21.0166130
  43.8928947  69.8654251   6.2475982  44.5210800  70.1718674   6.9015951
  43.0377808  69.9946594   6.6578536   8.7601786   6.8895102  48.8267479
   9.2625322   6.2836504  48.2819519   9.4198122   7.3425856  49.3519516
  62.4562836  54.6639900  55.0271530  61.7116508  55.1309929  55.4061890
  62.2973900  53.7449570  55.2424736  77.5924759  39.8322983  70.0863419
  76.9697418  40.5448265  70.2303162  77.4548264  39.5744133  69.1748657
  38.1727409  71.3211899  78.8829575  38.6202583  72.1387863  79.1009064
  38.8792648  70.7083817  78.6791916  28.9934216  24.1019802  40.6257591
  29.4841671  23.6813431  41.3317795  28.7858372  23.3896923  40.0209541
  41.5729027   6.6032624  20.1052246  41.5454636   7.4373083  19.6363468
  41.0133667   6.7397776  20.8697586   3.5223906  40.9342804  48.5106964
   2.9477885  41.5768509  48.9268341   3.4179113  41.0917625  47.5723381
  46.6194687   9.8724709  59.9338455  47.2911263  10.4321823  60.3234978
  46.6535835   9.0649376  60.4466400  43.7685356  44.4477806   8.7481689
  43.7835884  43.4971352   8.6373463  43.6023026  44.5774651   9.6818600
  61.1938477  66.2920074  24.3266277  61.9739189  66.4425888  24.8605289
  60.7067680  65.6170273  24.7992573  48.7406197  39.5199661   7.5312333
  49.5417099  39.4820862   7.0086865  49.0391731  39.4185600   8.4350119
   1.2768379  33.5816650  40.2691154   0.9183134  33.1642494  39.4858818
   1.6468583  34.4059715  39.9531441  37.2649498  66.1215820  25.4659367
  38.1534386  66.0500031  25.8147869  37.3512878  66.6988449  24.7072926
  10.3719254  14.5688124  42.1946487   9.9691105  13.9010220  41.6396484
  11.0076914  15.0019865  41.6250916  35.6752472  41.0099869  19.5959988
  36.1992111  40.8207245  18.8176174  36.3119125  41.3034515  20.2477436
  54.1595078   8.3489790  34.9722824  54.0628586   8.2056179  35.9137383
  53.3074799   8.6834164  34.6922226  44.4246254  56.4669304  77.4581451
  45.2300720  56.3010445  77.9480133  44.7049980  56.5106964  76.5439682
  32.0761909  14.6143026  82.9993820  32.3502007  13.7508678  82.6901398
  31.6355457  14.4419718  83.8314667   8.8437271  43.4240761  73.8198318
   8.3477821  44.2115746  74.0436935   8.2101784  42.8600388  73.3763123
  10.8676472  26.3695469  16.4671726  10.1201744  25.8825760  16.8141232
  10.5314245  27.2541943  16.3236942   0.9660881   7.8484440   3.1360483
   1.6307380   7.9871039   3.8107674   1.2015196   7.0111270   2.7364185
   6.3742409   1.3396121  48.5275421   6.2540698   2.2794728  48.6633835
   5.5307617   0.9536824  48.7638321  44.5830879   6.6517301  86.8169479
  45.4089050   6.1706896  86.7634735  44.1413002   6.2847791  87.5827103
  27.6939411   2.0737407  54.5496407  27.0206585   1.8588542  53.9040833
  28.5209446   1.8997090  54.1001854   2.1263485  43.8128471  40.0875359
   1.3026228  44.1213036  39.7099609   2.6918700  43.6545486  39.3316498
  77.5131302  31.5265179  47.7244682  76.6229172  31.8283978  47.9050674
  77.8298187  31.1976528  48.5657692   2.3882821  50.3269310  88.6910248
   2.0345409  49.9788666  89.5095215   2.9951923  49.6523438  88.3863525
  48.0631638  42.2994652  85.2048340  48.5987892  43.0376549  84.9142990
  48.3747864  41.5583305  84.6853638  76.5413589   6.9860024  69.3920441
  75.7989120   7.5537882  69.5984955  76.9467468   6.8040409  70.2398605
  69.5518494   1.2352914  67.6208038  69.1232529   1.4490339  68.4495697
  69.0311508   0.5177333  67.2599564  68.6667557   0.4119497  88.0537491
  69.3696976   0.7174518  87.4803543  67.9377365   1.0063962  87.8765717
  41.2008438  39.0949821  78.4737244  40.9325981  39.5865860  79.2500000
  41.4002151  39.7668839  77.8217773  34.1045799  52.5983124  83.9869614
  33.4566574  51.9022484  83.8777542  33.9039879  52.9803467  84.8413849
   9.3840427  25.4661026  79.4963074   9.0079966  25.6415291  78.6337280
   9.9599075  24.7140961  79.3581009  21.8267841  10.4289894  34.5548744
  21.8118629  10.5272999  35.5068932  22.5214310  11.0197964  34.2639351
  34.4174576  29.3878250  80.1444702  34.4804077  30.1790066  80.6795502
  33.8169975  28.8195572  80.6269150   4.7913756  16.4003353  74.1954803
   4.3402472  16.5259876  75.0303040   5.6914606  16.6781731  74.3654327
  22.2496300  43.6894684  30.4198189  21.6519794  43.4788589  29.7024002
  23.0640297  43.9442482  29.9861450  61.9739990  41.2423019  19.5355949
  62.8048592  40.8713951  19.8328018  62.0244865  42.1671257  19.7772160
  10.2670965   4.8583121  47.8996735  11.1542864   4.4989882  47.9031067
   9.7568760   4.2316794  47.3866043  70.5150452  46.7259178  82.7307510
  69.9102478  45.9885979  82.8132858  70.9094315  46.8105202  83.5988159
   9.6632786  29.5074883  70.9583511  10.0752392  30.3346004  71.2081604
   9.3414469  29.6589985  70.0697021  39.7928963  71.0224686  45.7018051
  40.0763969  71.5677109  44.9679298  39.7917519  70.1315384  45.3518333
  18.5028877  63.1651459  29.7065125  18.8185616  62.9196701  28.8368435
  19.1584682  63.7807617  30.0343285   5.7998881   3.9956412  48.5824776
   5.7882366   4.9508924  48.5225487   5.2098722   3.7048197  47.8871117
  13.6540318  59.9751015   7.0110717  13.3559113  59.3284760   7.6507840
  14.5264454  59.6750374   6.7559481  78.4425507  18.6578712   5.0971184
  77.8492355  19.3828049   5.2937961  79.3085556  19.0629730   5.0507627
  85.2989807   7.1800489  38.3575211  84.5053406   6.9541144  37.8724213
  85.9807816   7.2371101  37.6881027  84.7480927  29.4331169  25.1719398
  84.3303757  29.3114815  26.0245495  85.6234207  29.0607891  25.2787800
  15.8999453  33.4952202  74.2621231  16.3641491  33.0384293  73.5606308
  16.5925350  33.9050026  74.7804184   7.2919474  51.8060265  25.9699421
   6.4497104  52.0986023  26.3181782   7.3147626  50.8672600  26.1554928
  44.0100670  41.7854118   8.6667862  43.5112839  41.3558502   9.3617134
  44.7320061  41.1842346   8.4834356   7.7917900  15.1926260  72.7759094
   7.2862864  15.9972830  72.6609039   8.6222115  15.4832830  73.1529388
  41.4430466  18.8161526  24.3275261  41.5265160  18.1153431  23.6808968
  40.6703796  18.5783634  24.8400478  43.6304779  68.2699966  87.1637039
  43.6613579  69.1720657  86.8450241  43.8651619  67.7389603  86.4026794
  36.5467300  33.0346947  72.6021042  35.8289604  33.6661034  72.6507034
  37.3039513  33.5056038  72.9500885   8.1030722  70.1840973  56.9212227
   7.9583049  70.9759293  57.4391747   8.2636719  69.4992752  57.5704231
  73.1210251  38.9830437   8.5500536  73.6575623  39.7238121   8.8322296
  72.3762054  38.9840050   9.1512794  52.9919128  11.3872814  43.5559921
  52.8578873  12.2060652  43.0786400  53.9335289  11.3604803  43.7259178
  66.5923462  20.7354794  18.0755081  67.0180283  21.1162033  17.3073463
  66.2163086  21.4850063  18.5370655  52.3648949  70.3974152  28.7660904
  52.6363297  69.4832535  28.6832752  52.5080833  70.7695541  27.8958931
  50.8787003  63.5813026  79.9011459  50.1902962  63.5670242  79.2362213
  50.8695831  64.4779282  80.2361221  12.8833866  46.1354065  73.2710419
  12.0570202  45.9933815  73.7327499  12.6853180  45.9310265  72.3571320
  58.7126808  32.2653580  75.1922684  58.0396576  32.8673935  74.8747330
  58.2475739  31.6796932  75.7896805  27.3807774  18.3429089  20.5359192
  27.9520912  19.0715828  20.2932930  26.8431873  18.1909733  19.7586517
  17.0250206  11.0199108  64.2855606  17.1654072  11.3157768  65.1849976
  17.5963402  10.2575989  64.1922531  67.3949738   5.6076021  43.5166740
  66.4636230   5.3881502  43.4910011  67.7335739   5.3142219  42.6707993
  80.5632935   5.1352324  15.9125099  81.4504166   5.1554685  16.2714481
  80.1302490   4.4237356  16.3841820  59.9758034  40.7466583  85.5586853
  60.4281311  40.4009972  86.3281937  59.5049782  39.9945488  85.1996689
  52.0143471  65.2211838  65.9264908  51.6531029  65.9768906  65.4631958
  52.4820023  64.7280960  65.2523956  66.1267014  12.6498871   3.1510696
  65.8707504  13.5361633   2.8956578  65.6988907  12.0827723   2.5095160
  32.5035057  69.8693085  52.8005943  32.1758537  70.3980484  52.0730629
  33.0637093  69.2129211  52.3863907  23.0744972  53.9354172  39.2471962
  22.7202282  53.5017548  40.0235062  22.3293457  54.0043831  38.6503487
  72.3514709  13.1471176  51.7166710  71.9712219  14.0154200  51.8497086
  71.6771545  12.5408306  52.0231819  66.1209488  33.3361664  20.7245235
  65.5753021  33.9130745  20.1900387  65.8393173  32.4526253  20.4873123
   5.7194915  47.4780273  26.6842289   5.5972681  46.9034500  27.4399757
   5.0815992  48.1802406  26.8115864  40.9993286  49.4554901  70.8150482
  41.6337852  50.1079216  71.1117477  40.3992615  49.3517838  71.5535583
   8.9090614  66.8485565  25.8460388   9.5891781  67.1510620  25.2442398
   8.6557169  65.9893112  25.5087681  84.6175461   3.7944634  11.4642019
  84.4018784   4.1163263  12.3394852  85.5733414   3.8285947  11.4252329
  30.8959694  43.3543816  86.3615036  30.7576180  42.4158897  86.4892731
  30.9129009  43.4667778  85.4110794  29.1532383  63.6052399  24.3047981
  29.9909763  63.2892227  24.6432610  29.3426685  63.8682442  23.4041443
  26.6314316  67.6105652  53.8602104  26.9961205  67.2062225  54.6474495
  25.7118130  67.7665787  54.0751343  68.1060410  49.8607559   4.1685610
  68.1498337  50.5422974   4.8392439  67.1824722  49.8292503   3.9190493
  33.5584488  53.8817787  65.3486633  33.2949638  53.8037872  64.4317551
  32.8503151  54.3773041  65.7600403  75.2618027  59.7310982  29.3333912
  75.5726700  60.5505257  28.9485130  74.8786087  59.9902802  30.1713734
  13.8830290  50.1919861  45.9161453  13.0716829  50.0346527  46.3990479
  13.6190042  50.1867867  44.9960938  83.2956467  25.5721951  38.3465652
  83.3716125  24.6183071  38.3702316  83.0219116  25.8126984  39.2316971
  61.9269447   0.6492310  83.2961731  62.4575844   1.1536648  82.6795731
  61.3147392   0.1633190  82.7436142   4.5239720  52.0830841  52.0307465
   4.1573949  52.7841873  52.5695496   5.4639153  52.1100426  52.2096596
  40.4206390  22.7673321  76.1730652  40.6231461  22.8655262  75.2427063
  40.5040817  23.6511860  76.5309372  82.6538162  43.2415657  75.8858719
  81.9437332  42.7091103  75.5273895  82.4038086  44.1427765  75.6820450
  77.8849487  27.7367611  15.1732683  77.2931442  27.1386337  14.7169275
  77.9946976  28.4717541  14.5699682  68.6363907  21.0355244  65.4276123
  68.8116531  20.4420319  66.1578674  68.1411972  21.7557526  65.8178482
  85.6608505  14.9288111  56.9798241  86.1971664  15.1914902  57.7278938
  85.7562180  13.9772434  56.9391212  65.0067978  29.9399929  56.6660500
  64.1889191  29.8238049  57.1495895  65.2367477  30.8592014  56.8017387
  40.7111549  47.5268631  53.7175369  41.0836639  47.3058968  54.5711441
  39.7642937  47.5004768  53.8553352  13.2238817  36.8971710  29.3619671
  14.0079985  36.4853172  29.7249699  13.4273596  37.8324394  29.3519974
  38.2865944  63.5420456  34.1846848  37.5610237  63.4043655  33.5757332
  37.9509735  63.2411194  35.0290985  28.7231674  63.5687943  59.2020836
  27.9929695  62.9935112  59.4303284  28.5215206  64.3964539  59.6386070
  10.9634924  70.0563965  74.4178543  11.1456652  69.9914169  73.4804001
  11.7775059  69.7812881  74.8396683  23.0359325  29.8186626  23.8063221
  23.1953678  30.1518345  22.9232521  22.0846462  29.8525791  23.9069843
   4.8787999  64.8696365  49.3468552   4.4457269  64.2660980  49.9505272
   5.5672317  65.2794266  49.8706589  75.8730469  17.2553692  26.7833996
  75.8011780  17.7074223  27.6240635  76.4480820  16.5108528  26.9601936
  10.9193344  31.3486176  82.3692017  11.0696211  32.2491493  82.0816422
  10.0699558  31.3764324  82.8096695  75.0562592  13.7245560  72.0016479
  74.3606491  13.6351748  72.6530838  75.5992355  14.4421358  72.3279724
  44.8795204   7.2262411  68.5305023  44.0879669   7.0698662  68.0155106
  45.5696754   6.7633891  68.0554428  54.6282578  52.6209068  21.4601822
  54.3984108  52.5658112  22.3877411  55.2268867  51.8876915  21.3178043
  70.4375000  38.6483688  78.3235092  71.1100922  38.2729950  77.7552338
  70.9145508  38.9347954  79.1023636  68.1592026  27.4327736   7.2038002
  68.2232285  28.2862053   7.6325073  67.5606308  26.9310627   7.7571855
  44.1370049   9.7259741  66.6530914  43.8416023   8.8576822  66.3791656
  43.8538399   9.7987986  67.5645447  73.0728760   1.4442729  39.4018669
  72.1431427   1.5369725  39.1939430  73.4136887   2.3384566  39.3791924
  76.2114868  23.0130424  27.8295517  75.4118500  22.5409775  27.5972576
  76.2968750  23.6862469  27.1544685  18.7764301  19.2451839  22.6410809
  18.9621258  20.1471996  22.9020729  19.6204700  18.7984257  22.7061749
  71.9976654  31.0298405  15.8082857  72.0427933  31.7999268  16.3749981
  71.2136002  30.5640926  16.0990639  35.7106895   6.1542912  55.9290619
  35.6788902   6.9130969  55.3464508  35.7012482   6.5282516  56.8101387
  36.4081688  16.3070679  79.2900543  35.6477852  16.0765991  79.8238449
  36.9839401  15.5448837  79.3516693  45.2783394  67.5292053  33.6275482
  44.3511314  67.7627182  33.6720963  45.5622215  67.5003128  34.5412292
  22.7480145  15.6395178  28.2007122  22.7336998  15.1276913  27.3919716
  23.6714020  15.8552160  28.3313370  83.5123367  34.4475288  10.7988100
  83.9672546  33.9319420  11.4647341  82.7121277  33.9539871  10.6190672
   6.4092155   7.5415139  73.8626938   5.9364090   6.8389311  74.3088531
   6.5684404   8.1938610  74.5448380  19.0148411  70.0530243  16.4692326
  18.8995895  70.8768005  16.9428768  18.1250210  69.7753143  16.2516766
  49.7310829   4.9007406  31.0545883  49.7306557   4.0448823  31.4832344
  50.4162216   4.8351083  30.3893757  79.4278183  23.7773590  25.4598465
  79.6308289  23.7980938  24.5246525  78.8560562  23.0167885  25.5640125
  79.8636322  69.5584030  74.8544769  80.6468887  69.0570450  74.6278000
  79.1995468  68.8944244  75.0397949   6.9957142  38.5263863  38.5238342
   6.7974324  39.3365250  38.0541611   7.3763580  38.8170395  39.3526077
  54.2840309  14.1853142  83.9002380  53.8570595  13.5318899  84.4542847
  54.8876991  14.6398821  84.4877625  65.9434433  50.3578987  81.4291458
  66.7128601  50.8727608  81.1859589  66.2229309  49.8568497  82.1953583
  20.9406719  54.7877235  42.1978912  21.3568897  54.3285866  41.4683800
  20.7988529  54.1093826  42.8581734   6.2952662  12.3183069  39.0136642
   6.1026635  11.5479660  39.5481796   5.5273318  12.8801537  39.1177673
  83.0331573  21.1878948  16.9473515  82.7106400  21.6067772  17.7453213
  82.3492203  20.5605965  16.7129135  82.4498749  70.1745071   6.8295441
  82.5164871  70.3666153   7.7648988  82.3280182  69.2260056   6.7879281
  21.3519802  47.3332634  16.4512501  21.5369530  46.4183273  16.6631737
  21.5577641  47.8114929  17.2544804  59.0352707  12.4846725  13.0988274
  58.3871765  12.6005106  13.7936563  58.6881561  12.9866476  12.3614225
  15.9759560  14.2034235  32.2908554  16.7077522  13.8317432  31.7983513
  15.5867109  14.8434582  31.6949749   1.1405760  30.3887653  22.3839340
   0.2144965  30.5570221  22.5579987   1.5423429  31.2573547  22.3647518
   1.1065462  27.7892151  10.4784822   1.5799339  28.3764706  11.0677757
   0.5630999  28.3706055   9.9466162  79.0258865  47.4714546  14.9825325
  79.2760925  48.0186348  15.7269945  78.4349976  46.8166542  15.3544474
  67.7788315  39.2152367  86.9677124  68.3377228  38.4408531  87.0324936
  67.3303833  39.1173706  86.1277466  36.9654160   0.8857472  36.3757477
  37.8867226   1.0362341  36.5873566  36.9800148   0.5117288  35.4947662
  40.0281639  66.4636459  70.7590942  39.9633904  67.4071503  70.9068604
  39.9382515  66.0780029  71.6305466  82.3953247  53.8007317  61.5319595
  82.4003525  54.2554054  60.6896553  82.7888489  54.4238014  62.1428261
  33.9544868  65.6078796  70.3579865  33.5668983  66.1002121  71.0816040
  34.7556610  65.2339172  70.7247238  57.3157158  28.6536293  16.5370045
  57.7742157  28.4126568  15.7320566  56.7056313  29.3406620  16.2686424
  53.0452461  21.2121944  51.2803612  53.4974747  21.1353035  50.4402351
  53.0592728  20.3260117  51.6419067  74.9676666   4.9431925  19.3316021
  74.4284439   5.3932300  19.9819355  74.5906754   5.1986842  18.4896812
  44.8278732  12.4034548  19.3157387  44.3306389  12.8942480  18.6614361
  45.3825150  11.8151760  18.8033600  56.7713928   9.2806511  76.4442062
  57.4265289   9.9586163  76.2787018  56.5335236   8.9599771  75.5742493
  66.9511414  59.3326759   5.1979852  66.6165314  59.4982300   4.3165870
  67.8616714  59.0700493   5.0631003  68.5385742  58.0466614  11.6747427
  67.7476807  58.5715446  11.5513821  68.2597122  57.1481781  11.4981365
  52.5978050   2.3570838  16.9112148  51.7732086   1.9144713  17.1121273
  53.0647926   2.3841300  17.7463341  12.6573420   0.5102510  59.5795326
  11.9773550   1.0666603  59.9593468  13.2307186   0.2964929  60.3155861
  57.1810265  30.3046322  56.1491508  57.8966637  30.2944088  55.5135498
  56.8453751  29.4082165  56.1463509  60.2155495  50.9699440  28.4499092
  60.8409958  51.6634102  28.6600456  59.6387367  51.3588181  27.7924156
  28.0569515  10.0274458  83.7618408  28.2597237   9.5896711  84.5885620
  27.2095470   9.6665602  83.5012741  86.1046371  67.6026459  11.1479473
  85.6621933  67.8442307  11.9616480  85.5631866  66.9048538  10.7789555
  37.3374100  28.0455627  87.2429810  36.4137688  27.7948818  87.2262497
  37.3305435  28.9684734  87.4968033  62.9404106  22.8863945   4.1801705
  63.5971565  22.2138958   3.9994545  62.4277115  22.5314636   4.9063916
  13.1454668  44.0398827  55.7846184  14.0569792  44.3282776  55.8315811
  12.6359234  44.8493271  55.8219948  67.3220978  19.3086014  36.5583954
  66.4526062  19.1817760  36.9380569  67.5016861  20.2412415  36.6773911
  68.2625580  13.8434591  39.6256256  67.8394775  14.1348486  38.8179588
  67.5733490  13.8921614  40.2880821  40.1958160  17.8919239  13.0661964
  40.8762512  17.9840698  12.3993025  40.2980309  16.9972038  13.3906355
  17.4442406   1.5239652  86.7270737  17.9085484   2.2702019  86.3478851
  16.5269489   1.6699558  86.4957809  23.6335621  38.2328720  21.4280300
  23.5543385  37.2793350  21.4548473  24.5245800  38.4077911  21.7308884
  15.7472382  14.9120598  81.9256897  15.0926371  15.5589781  82.1888046
  16.5058460  15.4326715  81.6616592  57.8863792   2.9964368  33.9230080
  58.0569725   2.4872942  34.7154083  58.6864052   3.5042722  33.7877464
  72.3678665  50.6721420  43.9616699  73.1956558  50.9488182  44.3546829
  71.7001114  51.1672058  44.4362755   1.8728323  48.0622597  10.5798550
   1.3111521  48.7868996  10.3048201   2.6057000  48.4841614  11.0283384
  33.3309784  32.5035439  17.4059296  33.6103363  33.0914116  18.1077862
  33.5410004  31.6274967  17.7294521  11.1493568   8.3475304  65.4298172
  11.7359133   8.4647636  64.6825256  11.0718002   9.2213326  65.8128128
  46.1172028   9.0212603   5.2971945  45.7975464   8.2043839   5.6802917
  45.3472481   9.5891523   5.2672167  62.7874527   0.0767456  74.2670364
  63.1032982   0.9803092  74.2603302  63.5315742  -0.4347409  74.5846710
   1.9831039   9.2607298  48.7452850   2.8160353   9.4026203  48.2954788
   1.4555180  10.0268850  48.5196953  17.0630207  59.2743492  74.7107773
  16.5330353  59.5117149  73.9498520  16.4490299  58.8432198  75.3052292
  83.3276672  34.5763588  52.5245667  82.6433029  35.1981773  52.7719955
  84.0960693  34.8551903  53.0226059  15.2016191   3.8709438  12.0363293
  15.5261688   4.7252603  12.3210096  14.4127951   4.0702820  11.5320940
  30.7261219   0.1793785  68.9285889  30.3840332   0.4823504  68.0875092
  31.2077827  -0.6203377  68.7171860  48.9118080   7.2347026  61.2881355
  48.7468796   6.8900251  60.4105072  48.0408516   7.4121881  61.6433334
  39.3830147   9.8383379  48.8134880  38.4431763  10.0061989  48.8824463
  39.6941147  10.4776649  48.1726189   6.7460718  43.6961746  13.5086031
   7.4858885  43.8868408  14.0852737   7.0076852  42.9054527  13.0368576
  37.3893433  30.3751907  82.0136871  38.1588707  30.2115631  82.5589218
  36.8831635  31.0241871  82.5023804  64.7611008   8.9167624  52.2854385
  65.6253510   9.2010193  51.9879570  64.3752975   8.4853487  51.5230255
  59.5377007   4.1267428  59.6911392  60.4735832   3.9644468  59.8095245
  59.4718704   5.0745001  59.5742874  56.9365158  16.5654869   8.1005821
  56.9693031  17.4527473   7.7429152  56.0991058  16.5242062   8.5623980
  24.9310150  27.3939323   0.8189662  24.0659618  27.6406975   1.1461060
  24.7705669  27.0840454  -0.0723574  68.6748657  63.2277412  63.7834244
  69.0973053  63.7281113  64.4815674  69.1264725  62.3837776  63.7866631
  29.8702545  69.4635391  13.9089308  29.6457672  70.3845520  13.7763186
  29.1758251  69.1268921  14.4752054  74.8769455  20.8747520  20.9892387
  74.5858307  21.7679787  20.8058586  75.7417526  20.8165607  20.5830860
  14.4776506  16.1138954  47.0332375  14.5407133  16.8149452  46.3845596
  15.1711359  16.3079720  47.6638298  56.2833252  40.6506615  53.6511116
  57.0697823  40.9945145  53.2274628  56.6092834  40.1936340  54.4264259
  13.9138680   0.9699095  71.8432922  14.3960943   0.2133045  72.1768188
  13.0752611   0.6107109  71.5535583  71.1249161  52.8741150   8.5783939
  70.9990692  53.8185387   8.6703386  70.2509766  52.5334892   8.3875113
  35.9972115   0.5448142   7.5798216  36.0663910   1.2322600   8.2422905
  35.1037445   0.2136240   7.6707301  44.4578514  10.7120199  24.3410645
  44.5423622  11.6322289  24.5906754  44.0190353  10.3011293  25.0859413
  55.1972237  53.2612190   1.1769553  55.7168732  53.5524101   0.4276876
  55.1336517  54.0334473   1.7389625   2.7882011  55.0331383  28.4814415
   3.1037297  55.8842239  28.1775780   3.5667760  54.6000862  28.8314667
  64.0930328  27.4550190  88.9414139  63.8505478  26.5290508  88.9450150
  63.6442833  27.8171558  88.1773987  50.9468956  23.7687397  71.3593674
  51.3113823  23.4417210  70.5369110  51.5836906  24.4156246  71.6631165
  21.7273903   0.9815062  50.5545540  22.3097305   0.4794210  49.9844475
  20.8463821   0.7515389  50.2593079  27.6366730  41.2132568   2.9778190
  28.2981052  40.5329437   2.8516650  27.7321377  41.4731522   3.8941004
  61.0331650   0.4981464   9.3900118  60.9822464   0.0275428   8.5580435
  61.7639351   0.0881748   9.8527536  63.7868271  13.1083689  86.1785126
  64.1544571  12.5589991  85.4862137  63.4380112  12.4869461  86.8175659
  38.4598732  67.6968765  46.4173012  38.7564735  68.0346985  45.5722351
  39.1570129  67.9350052  47.0284691  82.7936096  43.3889542  70.9328079
  83.6648407  43.7263336  70.7245865  82.9423523  42.7623253  71.6409302
   9.1813993  21.2874393  32.3536453   8.6955748  21.2810383  31.5289230
   8.5090675  21.1931858  33.0284157   6.6558037   4.2360005  82.0474091
   6.1559453   4.7834029  82.6529922   6.5375962   3.3450129  82.3766556
  80.7853165   7.8228426   5.4755201  81.3399506   7.3857584   4.8293257
  80.8611832   7.2817240   6.2614374  16.8870087   8.1519442  29.9781303
  17.0426407   7.3009925  29.5683823  15.9351234   8.2064953  30.0628090
  20.6572685  56.4726830  67.3960571  21.5688496  56.1921654  67.3150482
  20.6741600  57.4060097  67.1842804  12.3288240  21.3846989  59.2266502
  12.2183666  22.1346569  59.8111153  11.6146412  21.4663944  58.5945892
  52.1425133  38.6184998   8.9988432  52.4189262  39.5317841   9.0746069
  52.3159409  38.2433586   9.8622227  55.0448837  70.3991318  83.3135834
  55.6306458  70.5675735  84.0516510  55.6206703  70.0794907  82.6189423
  32.9648933  52.7488632  40.0225868  32.6590080  52.0785255  39.4115906
  32.6556358  52.4519348  40.8784065  54.9556465   4.6291804  40.3577805
  54.6778641   5.1043806  39.5746727  55.8407898   4.9496956  40.5310516
  29.0884991   3.3146355  73.0632782  29.3420029   2.4448364  72.7543793
  29.5343323   3.4092240  73.9050140  62.8392448  67.5059128  57.6029129
  62.9181061  67.5576172  58.5554543  63.0800781  68.3796082  57.2948685
  47.8790665   7.0235133  39.0078812  48.1894646   7.6921978  39.6184082
  47.4752464   6.3587418  39.5657654  63.6155853  38.2927361  25.7687912
  64.0735245  37.4570694  25.8592796  62.6893311  38.0549660  25.7269497
  47.3928795   6.4300427  78.0701370  47.6874199   6.2582240  77.1757355
  46.4387703   6.3685045  78.0240860   9.3352423  40.0864143  65.0839233
   8.7443008  40.6643257  64.6011810   9.9910259  40.6739349  65.4594193
  17.5720348  19.8285618  67.6614914  17.2553768  20.6281548  67.2412415
  18.3351421  20.1094570  68.1664734  80.6016235  61.4677048  70.0254745
  81.0937729  60.6496582  69.9560699  81.0765305  61.9780197  70.6814270
  24.9588108   0.6623798  75.8316116  25.8983078   0.4806219  75.8548508
  24.6557579   0.4707261  76.7191162  48.5283623  70.4346466   5.9309325
  47.9403191  70.9480896   5.3770232  48.9478645  71.0810928   6.4986935
  42.8093643  37.5071678  75.8113632  43.3032684  38.2364235  76.1861572
  41.9234619  37.8513184  75.6974716  48.4317513  66.7961884  88.6513138
  48.2317657  66.1361542  89.3150864  47.6995888  66.7472534  88.0366745
  57.0157623  47.9050941  23.7609730  56.8599472  48.6927299  23.2398415
  57.6426849  48.1805573  24.4297943   5.0646453  53.8651772  57.0460701
   4.6310096  53.2944145  57.6804390   4.3902574  54.4942017  56.7896347
  23.5329266  36.4971771   3.9183867  23.9079685  37.3660583   4.0619740
  22.6067009  36.6622505   3.7420697  59.7519226   5.0228634  53.8556213
  58.9631958   4.6690736  53.4445572  59.4654198   5.8432665  54.2569771
  48.1266670   2.5731664  66.5885620  48.3123932   1.6462835  66.7389832
  48.9891281   2.9794023  66.5027466  41.9144020   7.7438722  49.2089577
  41.3297577   7.3017998  49.8245850  42.7933998   7.4837604  49.4845314
  10.6102419  50.8926430   4.6617165  11.1170502  50.1468849   4.9829936
  10.5383530  51.4765053   5.4168115   0.5155021  12.8276758  10.6772232
   1.3746307  13.2079067  10.4940462  -0.1054297  13.5229053  10.4596672
  64.7036819  51.0450897  12.1693773  63.9032249  51.0240707  11.6449203
  64.7082596  50.2077217  12.6330853  41.0144501  69.3416748   3.7995992
  40.8977966  68.7997665   3.0192399  40.4488182  68.9382935   4.4580631
  53.5331154  40.9130058  62.6782494  52.8225288  40.2876778  62.8206024
  53.6506844  40.9298134  61.7284470  85.4899292   9.4452333  34.2819786
  85.7469330   8.5283079  34.1848793  85.2946091   9.7348928  33.3908119
  29.6833897  49.3920937  16.0600014  28.9085045  49.1702538  15.5436954
  29.6579838  50.3462296  16.1322079   7.4143658  11.1706028  23.5370693
   6.4861808  11.1085081  23.7625656   7.7414718  11.8975334  24.0669823
  40.5122566  10.8323965  62.4086494  41.0655441  10.1287994  62.7478485
  40.7281723  11.5900936  62.9522552  82.0040207  32.4314003  67.4378281
  81.5600204  31.7915287  66.8813629  82.8515625  32.5693970  67.0149002
  70.6752625  40.5685806  60.7578278  71.3160324  39.9901962  60.3441620
  71.0856781  41.4331207  60.7389832  42.0220261  56.4256325  35.8301926
  41.0883980  56.3475113  36.0263214  42.3790855  55.5569572  36.0149689
  13.3066912  16.5716934  63.7002525  13.3615732  15.8101139  64.2775040
  13.7329712  16.2899475  62.8908463  33.7552910  60.6679306  83.5022812
  33.0178413  60.2407837  83.0664520  34.1971741  59.9613419  83.9731369
  35.4724884  33.6801491  84.7126617  36.3183708  33.6607666  84.2650681
  35.0251312  32.8884811  84.4137192  54.2981033  67.1929474  85.3111725
  54.6162949  66.9428711  84.4437332  54.8660431  67.9168396  85.5751038
  73.2691040  54.7148972  28.2040501  73.7233658  55.5259209  27.9757500
  73.9314651  54.1866074  28.6494884   3.1200411  18.3984222  38.3812027
   2.4103265  18.8637505  37.9384766   2.8882194  17.4734135  38.2984352
  25.0950260  34.2604790  22.6892433  24.9512901  33.3238792  22.5537796
  25.2832870  34.3411293  23.6242752  35.4603577  60.0147972  55.0821991
  35.4601250  60.5353928  54.2789459  34.6693535  60.2895699  55.5459251
  42.4358482  47.8875427  73.6280289  42.5064545  48.7244797  74.0871429
  41.5229340  47.8469162  73.3431244  11.0517645  48.2668686  51.3734512
  11.6183147  48.6457825  52.0455208  11.3702364  47.3702202  51.2693863
  44.8488007  20.0223045  85.7154083  44.5748558  20.7800732  85.1987152
  44.0515327  19.5030956  85.8203583  48.9053764  15.4300423  68.6488190
  48.4085236  15.8679256  67.9577179  48.3019905  14.7747307  68.9991379
   1.4807701  71.3212051  18.1703358   2.2367940  71.2977295  17.5837269
   1.3450576  70.4079285  18.4228039  49.2839050  33.6710052  24.2955933
  48.5811882  34.1120720  24.7729607  49.9812126  34.3242340  24.2382622
  27.8476620  68.7434235  15.5632200  27.7621632  68.3349152  16.4246387
  26.9463177  68.8594666  15.2626467  23.4867992  12.8898726  79.3892288
  22.8411694  12.2358503  79.1215591  23.0181255  13.7230549  79.3404007
  34.2597427  63.8792152  47.7153320  33.3997536  64.0552063  48.0970116
  34.0743942  63.6406364  46.8070564  56.2490120  16.5492687  31.5749435
  56.8670006  17.2787590  31.6215286  55.9367790  16.5572815  30.6701355
   2.2834411   7.5576444  63.8138657   2.7559929   7.7627373  64.6206284
   1.4154767   7.2816048  64.1082687   9.0351057  42.8687515  30.4989071
   8.5103989  43.5908699  30.1532784   8.4804087  42.0962524  30.3903389
  58.3553314  20.9743099  89.3687439  59.1856461  20.6108208  89.6764603
  58.2828369  20.6728077  88.4631653  84.7773132  45.1998634  45.1856575
  85.0028763  45.3483276  46.1039772  83.9318161  44.7521515  45.2160645
  67.9353714  31.4058571   5.8919716  67.9356995  30.9281578   6.7214513
  68.2665863  32.2754669   6.1162577  18.4799652  10.9920168  16.6553078
  18.4286118  10.6718206  17.5559006  17.6512680  10.7240467  16.2582130
  85.9686432   8.2856951  88.4154968  85.4536438   7.4796925  88.4524078
  86.8784027   7.9883108  88.4040146  76.6114960  46.2139206  37.2206573
  75.6600800  46.1782341  37.1218719  76.7482758  46.6126099  38.0800591
   2.3583379  52.5517998  80.0762863   2.3623333  53.1741066  80.8035736
   2.0737441  51.7264786  80.4688110  33.1144562  51.4314728  21.9362335
  33.3903503  50.7796593  21.2918320  33.8536453  51.4985199  22.5406647
  47.9727859  55.0394363  29.9970322  47.2862167  55.2815933  30.6184959
  47.7073021  54.1800079  29.6697140  36.4539146  11.7019291  77.4624405
  37.1654091  12.3358831  77.3723602  35.6956139  12.1357679  77.0712967
  33.4950256  52.0202332   0.5696325  33.0842400  52.0091095  -0.2948699
  33.2650261  51.1747589   0.9549941  86.1697693  34.5502205  27.3482323
  85.4432526  34.4874191  27.9682808  85.7678070  34.8678474  26.5396709
  37.0430489   7.5764971  32.2618980  36.3559341   7.6338110  31.5979538
  36.6277161   7.1276469  32.9982834  14.1502962  54.3607063  15.7778025
  13.6593323  54.9620972  15.2178774  14.0309467  54.7058449  16.6625996
  81.3075104  61.6662598  65.8145370  81.6459656  61.4309616  64.9506454
  80.3728485  61.4649277  65.7685699  49.2145157  66.6656876  39.7116661
  49.8703880  66.4834213  40.3846016  48.5244675  66.0212402  39.8689766
  71.2227554   3.3375871  70.9976273  71.2054825   3.8266809  71.8202591
  70.5712280   2.6464376  71.1161804   0.9232974  -0.0158601  45.8423653
   1.8547759   0.1515072  45.9857826   0.8195620   0.0068200  44.8910751
  49.1969337  55.6735153  18.8773861  48.2597733  55.8600311  18.9337406
  49.6050529  56.5310669  18.7578907  46.8040848   4.6288457  25.3317184
  47.5585098   4.7477155  24.7547054  46.1510239   4.1917982  24.7851505
  58.7779236  51.6010132  60.2442284  58.5403290  52.5258827  60.1779251
  58.8263969  51.4330482  61.1853294  72.2456589  48.1966171  41.2890015
  71.6656723  47.8536720  40.6091232  72.4376297  49.0921288  41.0107307
  29.1162186  44.2251549  31.3457565  29.5620956  44.3770866  32.1790276
  29.1218739  43.2737122  31.2410755  34.5584450  31.3585186  83.5209122
  34.8495827  30.4998531  83.8277740  33.6728287  31.2072353  83.1907120
  79.3288116  67.9378967  68.0658569  79.9688263  68.1522293  67.3871307
  78.6562424  67.4321136  67.6097031   3.5943427  63.3119621  50.9863853
   4.0290442  62.4597855  50.9538078   3.0414355  63.2691269  51.7665710
  55.2328339  32.7211380  66.7981873  54.7183495  32.4311676  67.5514832
  55.1615982  32.0033913  66.1689072  14.3026295   9.9892902  46.6325226
  13.8753738  10.5376787  47.2905159  13.6926785   9.9810858  45.8948746
  78.4591370   9.9650660  61.2610970  77.6067886   9.7329855  60.8924904
  78.4149323   9.6704779  62.1707649  57.7057190  17.7511578  63.2689705
  57.1015091  18.1817226  63.8737602  57.1882820  17.6049061  62.4770737
   1.5676380  27.6150589  23.0593243   1.1843001  27.6707802  23.9346409
   1.5395725  28.5126400  22.7279778  75.4841766   1.6367487  56.2484665
  74.8857117   1.6003757  56.9946213  75.2658081   2.4569998  55.8060493
  29.9537411  50.4596405   8.4898424  30.6154251  49.9939194   9.0012236
  29.4921227  49.7708817   8.0115614  59.8938484  57.4704285  60.3794670
  60.3766823  58.1409836  59.8962936  60.5639267  56.8453484  60.6560669
  65.8033905  55.9796791  64.1218185  66.5859833  56.2987404  63.6724014
  65.5881042  55.1606750  63.6755981  43.1483231  44.5574608  11.4006987
  42.2138710  44.4357758  11.2327032  43.1982384  44.7722702  12.3321476
   0.2807114   7.5313187  45.2582092  -0.4366094   7.4547625  44.6290665
   0.8781844   8.1668558  44.8640633  64.2155533  25.4750385   3.6404576
  63.5966949  24.7473869   3.7018359  64.6586456  25.4848289   4.4888725
  77.6044312  62.7243423  46.4796867  77.6523819  62.0484047  45.8036385
  77.4995346  62.2381248  47.2975006  45.5038414  43.1779251  12.5138960
  44.7782021  43.7772522  12.3393002  45.4657326  43.0242615  13.4579124
  50.8929024  43.9588356  17.6126976  51.2229767  44.0253639  18.5087204
  51.6563034  43.7039680  17.0945358  60.1591187  50.7362175  52.2347412
  59.2874641  50.7372360  52.6302757  60.0488815  50.2571449  51.4134178
  15.7608614  11.1048431  38.5502090  14.9272089  11.3274851  38.9645615
  15.9684639  11.8646593  38.0063248  53.0923195  44.6588058  74.7289352
  52.5847626  45.4584618  74.5904770  52.5178909  43.9552116  74.4269028
  18.6857204  33.2342224  14.1581535  18.3783073  34.1381149  14.2267742
  19.5109081  33.2977371  13.6772566  36.5307159  19.6193371   0.4326150
  37.0067787  19.8197136   1.2384963  36.1189270  20.4473476   0.1855091
  22.3297844  16.3749771  88.4071655  22.2711544  15.4731150  88.0918274
  23.1810284  16.6826992  88.0958481  77.4409561  46.8412323  88.1025848
  77.9638062  46.2841187  87.5259781  77.4425735  46.3839378  88.9434891
  70.4195023  49.6899529  31.0643349  70.7991486  48.8771210  31.3981037
  70.1546783  49.4805260  30.1686554  25.1961269  45.7806587   3.5295074
  24.8537865  45.7093277   2.6384697  25.9086361  46.4162865   3.4621725
   5.2558837  50.6528511  76.2476044   4.8534994  51.1850853  76.9339294
   5.6199541  51.2899475  75.6329575  25.5752602  33.4955406  78.2811737
  25.3310699  32.9134750  77.5615921  25.5613136  32.9356308  79.0574112
  71.3794174   7.8822494  36.7966843  71.1016464   8.4829226  37.4882507
  72.2177353   8.2336264  36.4966965  79.4897690  26.6642075  36.5075417
  80.3225861  26.5070286  36.0626450  79.5317154  26.1197968  37.2937279
  66.0776138  32.3398285  57.4736099  65.3683548  32.5003586  58.0960312
  66.3332062  33.2114754  57.1717148  78.7317581  16.5886860  67.8693466
  79.4334335  16.2479820  68.4241409  78.1078873  16.9762802  68.4831772
  69.4650116  66.3560333  39.8002052  68.7864609  66.4098969  40.4731865
  69.0093460  66.0239639  39.0266838  66.3505249  29.4010029  23.9548817
  66.4392014  30.3222485  23.7105980  67.0348587  29.2597332  24.6090622
  72.1478729  64.0345535  13.5214024  72.4346008  64.8107529  13.0402174
  71.3753357  64.3250885  14.0061769  33.4098701  43.3880768  73.1087799
  32.9667816  44.1183624  73.5407333  33.1447334  42.6168556  73.6099243
  85.8878784  14.0160990  53.6424522  86.3062592  14.8626232  53.4856491
  85.8960190  13.5831299  52.7888107  75.3771362  59.7129707  50.6063957
  75.1953430  60.2554207  49.8389778  76.0016861  60.2256317  51.1195679
  51.9630241  43.5695724  30.9295673  51.5573311  43.1728249  31.7004337
  51.5071297  43.1721153  30.1876678  11.9976368   3.0084884  61.3147659
  11.5013638   2.8710120  62.1216431  12.8742685   3.2528794  61.6114502
  15.1080446  18.7469006  61.1278229  14.2691278  18.2885284  61.1762505
  15.2463570  19.0873013  62.0116959  13.4143925  47.5622597  29.9008427
  12.9417362  46.9132156  30.4219646  13.7319937  47.0742149  29.1411228
  20.2782536  56.9459724  75.0127792  20.0548038  57.7355461  75.5056000
  20.6127892  57.2718048  74.1772232  39.4794350   8.9704800  56.8406448
  40.2373123   9.2960930  57.3262634  39.1389999   8.2559414  57.3789482
  73.8095016  63.5185394   2.2618570  74.7642059  63.4496918   2.2679875
  73.5466537  63.2828712   3.1515782  60.3316841   5.3748970  24.5547085
  60.2547722   6.2231522  24.9914913  61.0106621   5.5068913  23.8930435
  75.4406357  56.9469948  42.7083702  76.2705612  56.8866119  43.1814499
  74.7713470  56.8390617  43.3841171  13.5917206  50.3411407  19.4169254
  13.9135447  50.6324959  18.5638275  12.6935205  50.0558357  19.2493858
  65.3424835  59.6112518  65.7199249  66.0817871  59.0439110  65.5013199
  65.5501862  59.9505310  66.5905457   3.6729007  40.5852623  39.9222641
   4.2651925  40.4677086  40.6649628   4.2513351  40.7606277  39.1800423
  37.2172813  45.5595284   6.9492717  36.3771935  45.4067993   7.3818865
  37.7385979  44.7843513   7.1580000  50.5434074  33.2554092  75.9444199
  50.0857086  33.6644630  75.2099686  49.9238968  32.6087685  76.2824936
  15.5754156  40.9413261  12.3099518  15.0698242  40.3899765  11.7127733
  15.0609074  41.7447395  12.3877020  18.6642494  28.2410622  24.3504200
  19.2408371  28.7430706  23.7744293  18.2650013  28.8977013  24.9210835
  71.6117096  64.6731415  56.5248871  72.3843231  64.4145050  56.0224800
  71.0388107  65.0937195  55.8836861  56.3889656  48.6457520  84.7991562
  56.8158875  48.6414528  85.6558685  55.9619827  47.7911072  84.7400436
  54.1778183  42.6974525  86.2665405  53.6366692  42.0457993  85.8207397
  55.0302849  42.6362228  85.8355179  74.7974167  35.3880730   2.0369735
  74.0651627  35.3462982   1.4219208  74.9976044  34.4729118   2.2335413
  16.3445148  63.4933510  58.8495483  16.3879337  64.1923218  59.5020790
  15.6289892  63.7520256  58.2687340  59.8651810  54.2307320  30.3099136
  60.8135986  54.2678337  30.4338322  59.5754929  53.5251198  30.8882065
  66.6296921  57.9024124  50.4857292  66.8315048  57.9299393  49.5504532
  66.9433594  57.0450058  50.7733040  65.9942703  42.7713928  16.7961445
  66.0430756  43.4750290  16.1490364  65.5733795  43.1735573  17.5559807
  59.0997124  59.7620811  49.8115311  58.8885612  59.1858597  50.5461159
  59.9282799  59.4236679  49.4721451  51.9127464  18.2560959  11.9442549
  52.4845200  17.6667881  12.4362144  52.0221672  17.9893303  11.0315142
  48.6204796  35.2215729  80.6712646  48.0452766  35.1425476  81.4322662
  48.4258957  36.0875473  80.3128510  66.7846680  43.9557991  39.7637863
  66.3466644  43.1442184  39.5074196  66.5755310  44.5727081  39.0624161
  12.9828920  23.9208221  68.8954468  13.8083134  23.9794636  69.3765640
  13.2271051  23.5574512  68.0442352  76.6880875  43.4313278  65.4389267
  76.8313141  43.0270195  64.5832062  76.3334122  44.2974510  65.2382584
  26.8463650   7.8767672  85.1915436  26.3320808   7.2801948  84.6476288
  27.7481022   7.5699120  85.0969925  31.5097733  67.7425690  64.5110397
  32.3567696  67.9961853  64.1442871  30.8915634  68.3758621  64.1463623
  74.4095306   3.7479262  43.8039742  75.1169815   4.1998072  43.3440285
  73.9057999   3.3227615  43.1099129  28.3236847  49.2481842  32.0465393
  27.7114697  49.5459671  32.7194061  27.8037338  49.2244949  31.2432194
  17.5195465   3.6505899  19.5336819  18.2870426   3.6023583  20.1036415
  16.8235970   3.9887142  20.0972042  19.0964146  11.1536636   6.6246834
  18.6134872  10.3272448   6.6179142  18.4218769  11.8243780   6.7313313
   9.2885132  22.2911892  73.9255371   8.3479595  22.1500206  74.0335312
   9.3699856  22.7211342  73.0742188  83.1284180  48.4693146  18.7629280
  83.8502808  48.0126572  19.1949005  83.4739380  48.7024498  17.9012489
  66.6698151  42.8155746  42.5609741  66.3858414  43.3725243  43.2858200
  66.4218063  43.3012772  41.7743225  75.5126114   4.3981457   4.0188274
  74.7825165   4.9437075   3.7263324  75.8450851   4.8413363   4.7993875
   6.3176451  10.8785868  61.2614746   5.7368436  11.5650692  61.5895653
   5.8584104  10.0620947  61.4581337  80.2998886   6.6327424   7.9628201
  79.3726578   6.4369702   8.0975208  80.7613297   5.9048371   8.3793011
  42.8753242  13.9266577  65.2307587  43.4515495  13.1685858  65.1331482
  43.1209679  14.5084190  64.5114212  53.6714821  13.8141451  29.0816021
  53.5049171  13.2620640  28.3176022  53.0800819  13.4767828  29.7544022
  23.9025574  69.8548431  59.0448189  22.9873123  69.9627228  58.7861290
  24.2496777  69.2061920  58.4324532   6.2020235  40.2850227  49.0812073
   6.3531055  39.3689651  48.8482933   5.2796988  40.4357872  48.8742790
  29.9896126   9.0704737  30.6550369  29.1123371   9.3265438  30.3703480
  30.1433125   8.2274790  30.2284603   5.4848208  22.1798382  48.7832642
   5.7112718  21.7035809  49.5820923   4.5482445  22.0202866  48.6666412
  72.0096054  24.8799248  14.8672619  71.5506210  24.0465279  14.7623100
  72.4130936  24.8237228  15.7334442  48.3283768  64.4069748  28.7018681
  48.7497597  64.3648911  29.5602951  47.4493828  64.0578232  28.8491573
   3.0547683  10.2785215  24.5675583   3.5427332   9.6293440  24.0609112
   2.4007723   9.7677412  25.0446568  25.2958050  70.7598190  40.1053009
  25.4832325  71.3935699  39.4128723  26.1220989  70.2940063  40.2337227
  72.5402603  55.8620605  35.7185478  71.5905991  55.7959824  35.8185883
  72.6757431  55.9571152  34.7757645   5.5620060  34.9294777  61.0911102
   6.3276763  35.0980644  60.5419655   5.9117537  34.8787651  61.9806824
  34.9012833   9.4184179  46.9592514  35.4983521   8.8746767  46.4453583
  34.7027702  10.1610851  46.3889275  30.6754913   5.4050341  29.2549515
  31.1435833   4.7054806  28.7991600  30.0546341   5.7391438  28.6075439
  36.5056877   3.7915130  18.9808559  36.0915871   3.7070386  19.8397026
  37.2376175   3.1751800  19.0061989  22.9589176  22.4464149   4.6965446
  22.2403145  22.6009216   4.0833826  22.5314713  22.1250038   5.4904056
  65.9312897  12.2852345  27.2394333  66.4410629  12.3085680  28.0492611
  65.1568298  12.8150082  27.4285793  75.5937576  46.5616226  19.7724380
  75.2576065  45.6878014  19.9716225  76.5409012  46.4860573  19.8883514
  77.6764069  38.6720314  42.7562180  77.1512604  37.9170570  43.0216751
  77.2484207  38.9945297  41.9630890   1.4163041  42.4642792  49.3235855
   1.2448907  42.6730156  50.2418900   1.0909191  43.2238922  48.8405266
  23.2996502  57.8769989  41.9504852  24.2405663  57.9619331  42.1044121
  23.2078629  57.9195938  40.9986496  29.7872829   4.5527024  62.3290291
  30.4539204   5.1880240  62.0678902  28.9649849   4.9226198  62.0077515
  21.7852516  38.0434875  81.8677673  21.4004517  38.3184433  81.0355682
  22.5891590  37.5864906  81.6205521   1.4538176  71.2163315  28.9990635
   1.9896448  71.9276733  28.6481838   1.4332026  70.5641251  28.2987518
  20.9070606  10.5067701  28.9478340  21.8527298  10.4966059  28.8000507
  20.6757736   9.5877275  29.0823631  51.4790230  68.3193588  18.6685143
  51.1028328  67.9869690  17.8535099  50.8519325  68.0618362  19.3442917
  41.1793060  24.6277771  82.5200653  41.9273872  24.0953674  82.2496033
  40.6634140  24.7391720  81.7215118  16.1074562  52.0234108  33.2970581
  15.5021477  52.3042679  33.9833183  15.5487165  51.6080971  32.6401253
  70.3437805  29.6190357   9.8369198  70.9231186  30.0722446  10.4494543
  70.9351273  29.1264496   9.2677975  37.4471359  30.5679989  88.8680115
  37.6584053  30.0209293  89.6245193  37.9271965  31.3821163  89.0196228
  68.5077591  52.0569191   8.3904743  67.8558731  52.6658478   8.7375898
  68.3034668  51.9935722   7.4574761   0.6969846  59.9431915  23.9401321
  -0.0632789  60.4651375  24.1966572   1.4498924  60.4881706  24.1689587
   0.3643959  61.3751221  38.4085159  -0.3614392  60.7620964  38.2919235
   0.2389709  61.7302475  39.2885094  11.4404993  47.4148903  24.9244614
  10.4897165  47.4560585  24.8217506  11.6628504  46.5037537  24.7330971
  70.2576218  20.5057449  28.0466328  69.9642334  21.1997452  28.6369858
  70.0607681  19.6942024  28.5144806  40.4395218   9.4690523  34.4819412
  40.7832832   9.3210955  35.3629494  41.1430168   9.1831379  33.8992043
   9.2809935   8.5940475  68.0734634   8.8785524   8.9024715  67.2615891
   9.4103422   9.3874283  68.5931320  83.0709000  23.4012737  61.8060036
  82.7066498  23.5295086  60.9301567  83.4111328  22.5066471  61.7952805
  48.5270805  45.1062698  12.4580193  48.1824646  45.7118378  11.8016949
  49.3918419  45.4547386  12.6747875  61.1855698  39.2501450  88.2795258
  61.8125725  39.9474373  88.0874710  61.5985031  38.4563828  87.9394379
  10.2296562  10.8972998  80.7761002   9.8251038  10.4467793  80.0347519
  11.1707401  10.7976141  80.6323776  10.8154869  61.4350014  42.4434547
  10.3069153  62.1782608  42.1191864  11.2218161  61.7558327  43.2485619
  35.7341461  34.1420174  78.1933823  35.3470039  33.2851791  78.0139847
  35.0240250  34.7637825  78.0341110  54.5253067  21.4226704  84.7782440
  53.6224403  21.6953011  84.6147461  54.6550522  20.6674366  84.2046432
   9.9315758  26.2061367  29.6837540   9.5168314  26.7687664  29.0297909
   9.7486258  26.6352901  30.5195713  45.1234970  62.5766640  54.9768105
  44.5368385  62.0373535  55.5070992  45.3289833  63.3268204  55.5347290
  64.0717087   5.4912095  70.4875793  64.7010956   6.1359534  70.1644516
  63.2207375   5.8225665  70.2007370  84.0562973  25.9191647  60.1424370
  84.7997437  25.5211639  60.5953369  84.0037003  26.8050728  60.5010948
  51.8634644   3.1893599  21.6028271  52.6662903   2.8950803  21.1725922
  51.2058830   3.1913800  20.9072590   5.6014647  60.6994171  32.7551079
   6.3393750  60.3427429  32.2606354   4.9377170  60.8885002  32.0918465
   1.5070041  43.0212059  18.9056416   0.6200683  42.9618607  19.2606831
   1.8931624  42.1631241  19.0811539  52.3510704  11.8095274  52.1236382
  51.5732155  11.4747820  52.5698624  52.4088745  11.2906380  51.3213654
   5.9490681  54.8089905  36.2121964   5.8861804  55.6906738  36.5795021
   6.8424339  54.5294075  36.4120979  35.4419403  17.4316540  76.8759155
  34.9455261  18.1471233  77.2732925  35.7015305  16.8810501  77.6146164
  38.7265663  20.0783367  21.2541065  38.2390938  19.8169060  20.4729137
  39.6459961  19.9792671  21.0070019  76.5587769  28.7778111  30.5751209
  76.3227997  29.6594334  30.2865200  77.2400055  28.9155579  31.2332840
  70.1252441  33.4337692  41.0645752  69.9810257  34.2999840  41.4455070
  70.1589432  32.8436241  41.8174515  75.5449829  54.1506615  35.5071983
  75.1904831  53.4366608  36.0370712  76.4548798  54.2320900  35.7930069
  69.0387955  14.4410706  88.0165939  69.8054733  13.9929094  88.3737869
  69.4013672  15.1101341  87.4359741  63.7016640  63.7248154  62.5731354
  64.3052597  64.0457458  61.9031334  64.2698364  63.4034004  63.2732162
  35.4907417  65.0672913  52.4461327  35.9968910  64.6742096  53.1571388
  34.5778923  64.9541245  52.7109604   5.7145677   1.3084178  24.1586914
   5.5926466   1.0202698  23.2540703   5.0283499   1.9613410  24.2966347
  16.2774639  19.2216549  76.9489670  16.4862003  20.1222668  77.1970825
  15.3411055  19.2386417  76.7510376  23.6709042  38.6032219   1.2176765
  24.1458073  39.2614441   1.7250667  22.8132515  38.5487671   1.6392175
  52.2343941  41.8769836  81.3174744  51.3620682  41.6033249  81.6010056
  52.0726357  42.5884323  80.6978683   6.8724432  41.0632172  30.5199814
   6.8124266  40.4436302  29.7928352   5.9880962  41.4195938  30.6046009
  48.3051071  29.5713387  70.5516663  47.8069229  29.2228317  71.2909851
  47.6734924  30.1018715  70.0660477  22.0813065   9.5327930  16.7635002
  22.7768288   9.9293804  17.2880955  22.5184574   9.2509804  15.9599371
  67.4794769  46.1045151  86.1807251  66.9055023  46.8668633  86.2556763
  67.3230286  45.6070786  86.9834137  75.9281769  70.4271622  69.4071884
  75.4447708  69.6899719  69.7801514  76.6394577  70.5857239  70.0278091
  41.0196838  23.5222816  11.8961420  40.1173820  23.7327251  12.1365623
  41.0927696  23.7921047  10.9806719   4.4348202  12.9887047  67.0170364
   4.6726146  12.5083733  67.8101120   5.2534428  13.3901939  66.7256699
  33.1421890  46.6805305  26.4713993  33.8890419  46.7822113  27.0614052
  32.4176102  46.4278755  27.0435696  29.4895954  59.1271896  55.0919266
  30.3759422  58.8172531  54.9060287  29.4695225  60.0184898  54.7434807
  26.6278439   4.7431707  42.4711380  25.9746571   5.3611231  42.7993355
  27.3545380   4.8113990  43.0904045  10.0871067  46.1825104  65.9474411
  10.0849638  45.7594337  65.0888214  11.0084276  46.1933136  66.2068329
  58.5132446  58.9319267  85.2069244  57.7632484  59.5266647  85.2117844
  58.4875641  58.5211182  84.3427429  11.2442265  42.6319618  43.5704231
  11.1527205  41.6952553  43.3959465  11.9664383  42.9109993  43.0075912
  14.4484062   8.0793161  30.8246517  13.8209009   7.3595929  30.7578144
  13.9332151   8.8643093  30.6386509  65.0140686   2.3156536  12.5179634
  65.3124466   2.8455677  13.2571468  64.0589218   2.3405740  12.5755014
  60.4326591  67.5074158  87.3335266  60.8053589  66.6260300  87.3554077
  59.8514175  67.5406113  88.0933228  68.8257980  46.5932922  89.1607513
  69.7148743  46.8530960  88.9193344  68.8922348  45.6567879  89.3472443
  59.2369041  10.7017365  76.3129730  59.0840073  10.4094381  77.2115402
  60.1837616  10.8322411  76.2614059  54.4679298  25.4507141  77.6230469
  55.1273003  26.1414642  77.6888199  54.2184944  25.4449139  76.6989365
  13.4874182  42.5649376  34.2869377  13.7623644  42.8841400  33.4274330
  14.3009748  42.2977753  34.7147026  20.0235577  66.6383667  21.8998432
  19.9713631  65.6846619  21.8369637  20.0537815  66.9370270  20.9909306
  79.2463989  71.5101242  44.9523849  80.2035675  71.5063782  44.9460640
  79.0015717  70.6282349  44.6720963  20.5706711  57.2921333  59.3528900
  20.9206696  56.5399818  58.8754005  21.2443066  57.9664192  59.2646523
  22.3470631  57.9023819  30.2905636  23.2381077  57.7325974  30.5962543
  22.0555191  57.0666275  29.9262161  73.7846222   4.8663840  16.5531292
  73.5993652   5.7952032  16.4145451  74.3350143   4.6184955  15.8102608
  19.7502995  62.8926697  48.6081276  19.3166790  63.1657715  47.7996597
  20.5728340  63.3821678  48.6158905  43.2767830  10.2729349  68.9987869
  43.6029358  10.4949408  69.8708954  42.5797806  10.9081898  68.8348618
   4.7145109  41.2619400  19.5156384   5.3647585  41.3560181  18.8195362
   5.1744070  40.7916679  20.2110310  56.5113182  70.2575531  63.2277985
  56.7879639  71.1187515  62.9147072  56.9834518  69.6375961  62.6719398
  66.2193069  18.5201778  70.5884705  66.6551132  19.3704739  70.6459427
  66.3584366  18.2404041  69.6837006  20.3683033  52.5608940  60.9404144
  20.8629189  53.0637093  61.5875359  20.9861908  52.4204826  60.2229691
  76.7330780  54.7330627  52.9596176  76.3795471  54.2837219  53.7273026
  77.3806000  54.1248703  52.6031876  75.1912613  37.3105736   9.0983114
  75.8470840  37.1541634   8.4188528  74.4474869  37.6902199   8.6304359
  18.9594631  13.4979172  71.1108627  19.5230656  13.2840052  71.8543854
  18.8104992  14.4404173  71.1865997  43.3377724  59.7605858   1.2676138
  43.9041557  58.9913177   1.2070584  42.7523575  59.6869202   0.5138932
  23.2570171  23.4706745  25.2736034  22.4518166  23.6532726  25.7579002
  23.0779762  22.6518879  24.8112545  84.4136810  51.8778038   3.3498833
  84.0194397  52.6062965   2.8701990  84.1574020  51.0990677   2.8557935
  55.2807198  45.9668961  11.3163652  55.8407288  46.7317886  11.4488783
  54.4564400  46.1963081  11.7455101  83.7660217  23.5987511  49.0312958
  84.5347366  23.6092548  48.4610405  83.5338211  22.6729336  49.1032677
  78.9076385  50.9053116  63.2905235  79.5564957  51.6088829  63.3048248
  78.3124237  51.1137543  64.0105896  63.7692184  38.9490395  45.5665970
  63.5833130  39.8642120  45.7766571  64.5097656  38.7200584  46.1281891
  10.9049730  35.0495453  43.9865112  10.1528502  35.4842224  44.3885002
  11.1106014  34.3280983  44.5810394  23.0565147  24.1792202  68.7859497
  23.2016964  23.2885761  69.1051788  23.4000702  24.7414875  69.4802551
  52.7936096  57.1426048  36.3060760  52.2052841  57.7368813  35.8403015
  52.7954712  57.4650421  37.2073326  72.7119598  10.4912348  16.8511181
  72.3165588  11.3618479  16.8949413  73.6290817  10.6326084  17.0859356
  82.0832367  45.9312439  82.7291641  81.6635132  46.1744499  81.9039841
  81.5184250  45.2496643  83.0933990  62.2085457   1.0364847  15.5240250
  61.8264847   0.4587866  14.8633242  63.1391563   0.8124948  15.5287294
  43.7393761  60.2470360  55.3232880  43.2060966  59.7055817  54.7413330
  44.5660210  59.7710152  55.4026260   8.8533592   0.4524344  12.9312105
   9.7239218   0.1015087  13.1188364   8.9761267   1.4015892  12.9149294
  20.4949627  59.8289757  48.5733948  20.0366383  60.6684875  48.5361099
  19.8635311  59.1959801  48.2315712  86.0544586  11.9756021  84.8345718
  85.9051285  12.8503284  84.4757004  86.3766937  12.1326466  85.7221146
  85.4104767   3.2722669  40.4020691  85.2233734   3.6509600  39.5431061
  85.0360641   2.3922184  40.3625374  57.0278511  35.5422363   7.2197747
  56.5261078  36.2009773   7.6999230  56.6744270  34.7053032   7.5212140
  50.7699890  63.9867134   2.1113570  51.5592041  63.6934547   2.5667350
  51.0964661  64.4411697   1.3347547  18.1694756  63.2055855  72.4326248
  18.1783333  63.2807388  73.3868256  17.8890820  62.3056984  72.2658386
  44.4028091  66.1289597  58.4763374  44.2144852  65.8730469  57.5734100
  44.2980042  67.0803833  58.4824486  51.8375435  62.2708969  44.2314224
  51.0413971  62.4658318  43.7370758  51.5381737  62.1608086  45.1339149
  21.2615738  42.4595909  82.5802307  20.4769650  41.9805641  82.3134918
  21.1860123  42.5321465  83.5316849   1.6475297  12.7373114  82.2245026
   2.5931034  12.7734861  82.3687744   1.4977099  13.3114262  81.4733810
  65.6783447  29.4132099  40.5591774  65.5695343  29.4529495  39.6090126
  66.5372620  29.8045101  40.7184715  44.5589600  21.2488251  18.0233345
  44.5838165  20.5298233  18.6547222  45.3712692  21.7311344  18.1774845
  10.6133223  10.6539030  86.9936295  10.7516336  10.5829391  86.0491333
  11.4268017  10.3294010  87.3798676  21.3144722   0.3540582  58.9402313
  21.1846542   1.2900500  58.7875900  22.0423985   0.3112026  59.5603256
  66.4512100  41.3213959  55.1156654  67.0959549  42.0204582  55.0068398
  66.9476852  40.5938950  55.4904900  86.2876282  18.3254013  13.9528913
  86.2864990  19.1944313  14.3541603  85.3773193  18.0347462  14.0084581
  51.5733032  57.3523560  50.7199097  52.3643227  57.2576027  50.1893044
  50.9003448  56.8758049  50.2338448  60.0886574  44.9496078   3.5051112
  59.3701591  44.5035172   3.0567884  60.8704910  44.6986656   3.0131807
  14.7622423   0.1742290  61.6221466  15.6792917   0.1603864  61.8961220
  14.2976513   0.5684755  62.3603592  28.8136692  17.6895809   7.0631852
  28.5362072  18.6011906   6.9725509  29.4286156  17.5535927   6.3423662
   4.2221251  40.1234932  16.1585732   4.0346141  40.7744598  15.4823227
   3.4670846  40.1635933  16.7455463  28.0949535  45.6606750  86.1210022
  28.3793297  45.4294586  87.0052567  27.1519642  45.4963455  86.1220245
  29.1846294  56.9666977  68.4385681  28.3630352  57.0027771  68.9283829
  29.1112499  56.1749039  67.9057465  25.3589134  62.1834221  47.3372002
  25.7475891  61.3431702  47.0940056  24.4750366  61.9624519  47.6307411
  43.3990059  12.2584181   6.9191046  44.0279541  12.6600780   7.5185442
  42.6276627  12.8231392   6.9675627   6.8524384  16.8021030  19.5613155
   7.5000281  16.2893963  19.0775890   7.3710232  17.4318027  20.0620937
  30.6104813  29.9488010   6.7427325  30.6624794  29.5269279   7.6003757
  30.1790924  30.7860603   6.9134183  84.8155441  29.1958561  30.0112782
  84.2196350  28.6524887  30.5269146  84.4222412  29.2213268  29.1389828
  12.1636648  27.5533829  28.2356777  11.3339138  27.1785603  27.9402905
  12.3975801  27.0385666  29.0079975  20.1579762  40.1118088  15.7576504
  20.6973095  40.8657188  15.9963465  20.7044849  39.3525620  15.9603825
  19.7391224   7.8745389  54.6249237  20.4412003   8.4142752  54.9882469
  19.9604416   6.9823060  54.8917046  11.2540569  49.2480240  75.6864243
  11.7893715  48.7874413  75.0402603  11.7037029  50.0825958  75.8188553
   4.3544226  63.9398766  38.6021271   5.0882025  64.1636887  38.0296707
   3.5851412  63.9854507  38.0343590  56.1703072  39.3965530  28.6060181
  55.5251045  39.5379791  29.2987957  56.8707695  40.0193176  28.8003139
  10.4472227  71.4541473  63.8712883  10.4130383  71.0867615  64.7545166
   9.5912228  71.2510757  63.4941177  23.1826019  55.8673172  50.1736526
  22.6856136  55.9018402  49.3563118  24.0942459  55.9801941  49.9045868
  68.2311325   2.4338639  24.8808651  67.6533051   3.1565247  24.6356907
  67.6684189   1.6597999  24.8605709  42.4235916  57.1874390  48.6942558
  43.0224991  56.8751831  48.0159950  41.8454552  57.8001175  48.2397003
  75.4417267  71.3948975  34.3470421  74.5633163  71.5663605  34.0075760
  75.8355331  70.8041916  33.7050056  60.6186638  39.5130272   8.1260872
  60.5358543  38.6458549   8.5228062  61.4371796  39.4729576   7.6314583
  81.2560272  58.1736298  85.6307144  80.9459534  58.0540009  84.7330704
  80.9326019  59.0386200  85.8825607  22.2468796  55.0885048  58.3112831
  22.6826344  55.5363731  57.5861893  21.5636749  54.5644302  57.8931808
  86.1774216  29.4109325  33.5943184  86.8834457  29.6678658  34.1874084
  86.4837494  28.5961933  33.1960754  61.7793198  34.5300026  67.2056122
  62.1077614  34.9694138  66.4212189  62.5597305  34.3746948  67.7376633
  10.3669510  14.4523640  25.7416573  10.6716957  15.2661972  25.3403606
   9.6669502  14.7252359  26.3347607  74.7344513  61.8462906  72.0036316
  75.3730927  62.1573067  72.6452255  73.9594727  61.6304626  72.5223389
  60.3360252  46.8350105  32.8329010  59.5363274  46.8269386  33.3588753
  60.8885345  46.1598244  33.2267036  85.6124344  43.5440407  58.6068726
  84.9699020  42.9893951  58.1644363  85.7775040  43.1018791  59.4396248
  84.4419556  36.5247803  58.5688324  83.6426544  36.6726608  58.0633926
  84.5834198  35.5792465  58.5220718  58.5058136  41.6737747  31.1182976
  58.1519547  42.1108818  30.3437328  57.7449646  41.5309181  31.6812611
  70.4346313   1.8519371  85.5544281  71.2770309   1.7504429  85.1113739
  69.7994385   1.4628811  84.9532700  54.2734680  35.3428192  73.2094650
  54.6721916  35.2370491  72.3457184  54.2679138  36.2886429  73.3565063
  23.2879314  24.6974163  85.5098801  22.7040577  23.9651833  85.7077637
  23.0895824  24.9230671  84.6010513   6.5609560  35.8035469  21.4065456
   6.3122530  36.4149818  22.0997448   7.3097744  35.3269691  21.7648392
  77.5025787  27.1162758  42.1973000  77.8610916  27.9223709  41.8259392
  78.2649307  26.6521492  42.5431786  69.3541489  47.1063271  51.4103088
  69.1017151  46.8936768  50.5118141  68.5714798  47.5046425  51.7910919
  10.0667143   4.9978919  52.2529793  10.9688740   5.1551476  51.9743919
  10.1485205   4.4365273  53.0239563  65.6659012  63.7663689  41.8672371
  66.5838547  63.6795311  41.6102219  65.3561096  62.8651772  41.9573021
  50.3189735  12.8070135  64.5090714  50.3986092  13.0464582  65.4324112
  50.0292854  13.6107063  64.0773468  17.6101017  59.1637611  78.2300034
  18.0615597  58.7257271  78.9514923  18.2419796  59.1542320  77.5110626
  81.0546188  27.4055443  33.4922981  81.5953903  26.7903843  33.9876556
  80.6487503  27.9588318  34.1596603  44.4214020   0.4551394  77.1143188
  44.6405144   1.3007932  76.7230453  44.7310944  -0.1902284  76.4788437
   1.8344245  19.9324570  61.1187248   2.5520685  19.4259491  60.7383728
   1.7446026  19.5900078  62.0080452  18.7920380  67.9072647  76.9754868
  18.9942570  67.9720306  76.0421371  17.9109173  68.2725677  77.0555649
  78.2294159  70.8650131   8.3887615  79.1582489  71.0182343   8.5620260
  78.1783676  70.7513962   7.4396996   0.9483536  24.9979057  87.5482101
   0.3784170  24.2784691  87.8199005   0.3608328  25.6199856  87.1191788
   9.3288813   2.4649611  46.7108459   9.9826021   2.1371453  46.0932541
   9.4301929   1.9097859  47.4839897  78.1307526  58.6354980   6.0888805
  78.2326355  57.7994308   5.6340847  79.0156403  58.9988518   6.1232409
  50.5733948  27.6084213  34.1867371  51.1481323  28.0316238  33.5489197
  50.8223419  27.9943409  35.0265732  69.0932388  54.4736252  53.9145317
  70.0402756  54.5372925  53.7908249  68.8449860  53.6717300  53.4545708
  83.0791397  41.5090408  27.0529175  82.6427917  40.9125443  27.6612167
  83.9949265  41.5074883  27.3314228  70.8125534  62.3608704  67.1278915
  70.2897644  63.1262703  67.3668365  70.6128311  61.7137489  67.8043365
  29.2642231  61.5033913  53.7969818  29.5203018  62.4143982  53.6530304
  28.5660210  61.3475037  53.1610222  22.2018871  20.2875805  18.8740788
  22.4512882  19.4841270  19.3306866  22.6086082  20.9886074  19.3833656
  79.8857574  20.8828754  16.7105942  79.8630219  20.7069798  15.7699690
  79.5626144  21.7799778  16.7943783  11.8924446  64.7179184  86.1226044
  11.1158028  64.4394913  86.6079254  11.5502005  65.0477219  85.2917480
  85.6234589  19.6861115  63.6917000  85.8246841  19.8619919  64.6108322
  86.0515137  18.8497658  63.5085945  75.0616989  57.5320854   6.1874390
  74.9262619  57.2741280   7.0992208  75.9360733  57.9214096   6.1760268
  46.7111702  17.7921867   6.0450544  46.7682114  17.9358902   6.9896855
  46.1622925  17.0132942   5.9539881  19.0995960  64.8250046  24.5681419
  18.9122276  64.8343811  23.6295052  20.0413685  64.6627960  24.6227741
  55.8843193   7.8522592  64.8824921  55.2930832   8.5459032  64.5900421
  56.2232437   7.4694510  64.0732880  23.2373581  65.7891846   5.3776064
  22.6757317  65.1529999   5.8204136  22.8846397  66.6407089   5.6359010
  15.0377245   6.8212590  76.9007111  15.8387480   6.7436719  76.3824692
  14.4638300   6.1357751  76.5586700  55.4337997  63.4126167   9.7865515
  55.6619377  63.2733841   8.8674212  56.2446175  63.7220383  10.1903648
   2.4488962  17.9811707  43.7041779   2.4366782  17.0391483  43.8735275
   2.1843746  18.3772335  44.5344772  66.6435165  39.9305801   6.0236402
  65.7278214  39.7137413   5.8483586  66.6630707  40.1528587   6.9544683
  62.0398788  43.9587898  75.3200455  62.8312149  43.8570786  74.7911987
  62.3604164  44.0329742  76.2189255  63.9458199  12.3651304  68.3391571
  63.0681610  12.0920925  68.6063690  64.5323715  11.9124756  68.9452057
  17.0726547  55.7475510  35.6008530  17.3998775  54.9032593  35.2904854
  17.5357838  55.8954811  36.4253883  35.5341263  34.3289261   4.1465135
  34.7353859  33.8021011   4.1199880  35.8597450  34.2253914   5.0406523
  75.6935577  47.2783394   5.9712830  76.5881729  47.0608253   5.7093873
  75.1433792  46.8852692   5.2937655  43.9861031  39.7280312  55.2102661
  44.4801826  40.4364738  55.6228485  44.6265335  39.2792168  54.6583176
  32.7091026   6.8246851  83.3183975  33.5708084   6.9350414  82.9165039
  32.0948067   6.8774285  82.5862122   9.1681070  18.8685513  21.3360329
  10.1237049  18.8259583  21.3714027   8.9165277  19.2894592  22.1580887
  43.6731453  21.4878139  70.0938416  44.2680550  20.8461323  70.4818573
  44.2500343  22.1541462  69.7204361  24.7153282  46.5661659  12.6949139
  23.9831905  46.0701370  13.0611992  24.7617683  47.3567848  13.2324972
  60.7010307  66.5823364  37.4937096  61.0376320  67.4014511  37.1304169
  60.5672684  66.7695084  38.4228516  86.1156921  13.8347645   8.0430279
  85.3290329  14.3699255   7.9381514  85.8691711  12.9764528   7.6984158
   4.9698815  71.5335541  72.0707016   4.4951601  70.8668213  72.5670242
   5.8663363  71.4864502  72.4029388   3.7380440  11.7003260  62.3299141
   3.5377173  11.6895752  63.2658577   3.8580365  12.6267748  62.1212883
   6.4051704  39.0409622  42.8318253   5.5011482  39.2733536  42.6197662
   6.9340458  39.6954079  42.3755112  60.7409668  23.2833080  26.3619156
  60.1062164  22.9491081  25.7281704  60.2573433  23.9415817  26.8609276
  21.1250648   2.5798194  18.7399197  21.4082413   1.7754070  19.1746178
  21.4755955   2.5084367  17.8520775  37.4214478  69.5886688  29.3135986
  37.5642662  69.8284683  30.2292023  38.1809464  69.0527878  29.0850868
   4.5210772  35.1931000  70.9608307   5.2800584  35.7419052  71.1582947
   4.7410631  34.7696915  70.1310272  67.1629791  38.3105583  70.4459686
  67.7515793  38.6323433  71.1287918  66.3103638  38.2450104  70.8760681
  31.5538864  57.0742836  47.7165031  32.2889557  57.2032127  48.3159027
  30.7832909  57.0518036  48.2838707  69.4582672  46.5450439  41.4765701
  69.5059509  45.8203697  42.1001091  70.2423782  46.4480553  40.9362068
  17.0015965  41.7536201  80.5061798  16.9683952  42.4208450  79.8206635
  17.5138950  41.0416870  80.1228714  54.3371773  56.4936256  49.0924339
  54.4517479  56.8298340  49.9812889  54.3451233  57.2740631  48.5382805
  43.5458450  29.1699200  18.1713333  42.7271576  29.6395359  18.0118103
  44.1416855  29.8365555  18.5130939  64.2394867  53.4498177  67.1893463
  63.3712730  53.2611313  67.5454941  64.5324707  52.6173019  66.8188019
  68.7222900  11.3413486  82.7544708  68.7758636  12.0322762  83.4147568
  69.6197357  11.2442398  82.4360504  38.8692932  55.0911026   4.2446632
  39.5819435  55.1461678   4.8813195  39.3090668  55.0589294   3.3950779
  40.5671844  50.1216965  77.7474365  40.1897621  50.9926605  77.6241379
  41.3664360  50.2761078  78.2510071  12.9439125  31.8272800  72.9964828
  13.4722767  31.0725098  72.7368927  12.4250088  32.0350304  72.2194290
  22.0075092  15.0401173  57.8699760  22.2367153  15.2469330  58.7760239
  22.2500381  14.1200533  57.7656059  36.8820000  45.3490944  12.5319719
  37.4152794  44.5576515  12.6058903  37.5144081  46.0671997  12.5567131
  63.9237442  30.1138000  22.0510883  64.0633774  30.6182232  22.8525200
  64.1461639  29.2145748  22.2922478  49.6054955   7.2779498   5.9009209
  49.6371651   7.9171367   5.1891136  50.5002480   6.9434948   5.9624786
   3.1878226  25.7493038  60.7904243   3.1311595  25.5609913  61.7272034
   3.3563120  24.8987732  60.3849068  47.9109497  53.5093689  12.9898634
  48.3820915  53.3024445  13.7969828  47.2491531  52.8217812  12.9158440
  20.1672211  31.0373592  25.9336376  20.4706612  31.0686264  25.0263462
  20.8645363  31.4610119  26.4341373   4.3340421  67.6129456  12.2531414
   4.1713190  68.4925537  12.5937853   3.5653260  67.4176254  11.7172718
  32.8559570  62.2182693  66.3156662  31.9972420  62.1328163  65.9015045
  33.0732994  61.3310242  66.6016541  16.3557911  55.6722069  60.1646042
  16.9814777  54.9612617  60.3035355  15.9495859  55.4723778  59.3212204
   3.9306459  43.0472794  12.4478636   4.0275445  42.8875542  13.3866558
   4.7729540  43.4140549  12.1791182  80.8918915  68.9692993  38.4483681
  81.2147064  69.2375412  39.3086395  80.3506622  69.7027740  38.1562653
  15.3410654   1.1725335   8.3504858  14.6267319   1.4273081   7.7664914
  14.9029779   0.8434001   9.1353321   1.8405585  57.3435593  20.6795712
   0.9247591  57.4929657  20.4445801   1.9150982  56.3926735  20.7601261
  77.2930374  36.8965759   7.2391019  78.1838226  37.0950165   7.5278263
  77.3554306  36.0229073   6.8530436  18.7747993  16.5742092   8.8101463
  19.2016506  16.9509411   8.0406647  19.4846668  16.4468365   9.4395094
  39.1026459  47.8679276   7.1811557  38.7032356  48.6894188   6.8950448
  38.3956032  47.3996964   7.6250896  74.7372665  71.7199936  80.3500519
  75.4546051  71.1023636  80.4921188  73.9520035  71.2394257  80.6120682
  77.3824463  21.2383804  31.2326355  77.9971848  21.9070187  30.9305477
  77.2677917  20.6601810  30.4784660  67.7060471  65.1299667  62.3279610
  66.9941406  64.8314133  61.7620239  68.1164627  64.3241959  62.6418648
   3.7077813  68.1190720  50.8468933   4.3107271  68.6677551  51.3485298
   3.5128596  68.6323090  50.0627861  18.7038765  39.3549194  13.3230095
  19.0193157  39.4002571  14.2256031  17.7770824  39.1297722  13.4042130
  63.5501556  63.6933632  48.7011452  63.5568924  64.4331055  48.0937119
  63.4984474  64.0958023  49.5680923  72.3655014  44.6737175  20.1054955
  72.2183609  45.6060600  20.2646255  72.5019150  44.6106987  19.1601639
  68.9151077  57.3956909  53.4955368  68.0894623  57.5658836  53.0421295
  68.8106232  56.5175323  53.8618088  14.6473837  41.1094398   8.3717690
  14.5765095  40.7325783   9.2488012  15.4080420  41.6884422   8.4206305
  42.8667755  63.9168091  70.7050400  42.6638451  63.7254829  71.6207047
  42.3527756  63.2805672  70.2078094  36.2534866  24.4002991  76.9818954
  36.7708740  23.6549358  76.6769791  36.1980515  24.9801369  76.2223282
  52.2237473  12.6603184  20.8689117  51.6795006  12.0883217  20.3277607
  53.1161804  12.3432150  20.7302036   4.2414794  25.0191898  26.6610508
   3.6798575  25.0906010  25.8892250   3.6920888  24.5921459  27.3183441
  74.7710114  11.2702284  20.6586514  74.6100540  12.0297832  20.0988274
  74.0380096  10.6812124  20.4797554  39.7725143  61.8519173  46.1429176
  39.9092178  61.0705757  45.6071510  40.5154610  61.8615303  46.7463799
  26.2326546  62.8507423  77.1285019  26.5610714  63.5716400  76.5912094
  26.4813728  62.0612030  76.6478806  16.2943039  49.5236816  46.8830223
  16.0217838  48.9014854  47.5574417  15.4774599  49.9168091  46.5757027
  45.1314163  61.5602455  34.0347481  44.3883438  60.9734116  34.1751022
  45.6550598  61.4785042  34.8318329  72.1694717  51.3083878  78.9429550
  71.4292908  51.8230286  78.6212387  72.4194412  50.7583313  78.2005386
  81.7728958  35.0921669  26.0095310  81.3243637  34.6098480  25.3149681
  81.1770096  35.8091393  26.2265472  64.9113312  29.9755440  11.9197798
  64.7370834  29.1814518  11.4145222  65.2674484  30.5927582  11.2806702
  25.1372528  37.5748634  84.0562515  24.3400803  37.6949806  84.5723114
  25.7142220  38.2847519  84.3380280  86.0453491  47.0300903  65.1397324
  86.6210251  46.2661705  65.1751251  85.9530563  47.2173691  64.2055817
  21.7710743   9.2431326  39.2553787  22.6201477   8.8398514  39.4361267
  21.2250252   8.9965315  40.0018730  65.8529282  31.2545528  27.3959122
  65.5859375  31.8061962  26.6606331  66.0833282  31.8737144  28.0885792
  53.3406334   8.1780777  19.4356556  53.6111145   7.3216920  19.7668285
  52.7946854   8.5427198  20.1322231  68.4003677  52.7411995  14.5760288
  69.0395203  52.1886864  14.1260853  68.7565994  53.6267319  14.5041895
   4.6062155  40.5542336  82.9091339   4.7872920  39.8904381  82.2436905
   3.6742163  40.4520874  83.1019440   9.1107388  11.5441933   5.6312528
   9.8761959  11.7300348   5.0874057   9.3206272  10.7175083   6.0657296
  66.3953857  20.9317703  14.6705074  65.7264481  21.6005058  14.8172951
  65.9051590  20.1118755  14.6098576  65.6430740  42.0109024  64.3279724
  65.2823257  42.0795746  65.2119217  65.0740585  41.3812180  63.8853073
  43.3310280  59.1953163  41.3437538  43.4533844  59.0383606  42.2800369
  42.4886742  59.6460495  41.2845345  54.0266724  26.5936623  58.4880371
  54.4821396  27.0953808  59.1640968  54.3684425  25.7041721  58.5787811
  41.5420113  69.2031326  62.5701714  40.9771042  69.2582321  61.7994080
  42.4211578  69.3810501  62.2359886  45.8723564  63.6690636  77.0020218
  45.0406227  63.7837753  76.5423660  46.0285072  64.5116577  77.4285049
  29.7812386  70.2868042  64.5903778  29.0968761  70.7810745  65.0415649
  29.9441738  70.7816010  63.7873459  55.1566086  51.8844643  28.1544724
  55.9656754  51.8452339  28.6644707  54.5433884  52.3605919  28.7143822
  38.7197037  28.0458870  14.7573786  39.2920570  28.6369228  14.2681761
  37.8955116  28.5254040  14.8410692  48.4405136  40.2842598   3.9603796
  48.9315109  39.6163750   4.4390044  47.8232956  40.6342125   4.6028829
  50.6967583  47.7552757  40.0936661  49.8905106  47.3915749  39.7277222
  51.2278404  46.9892654  40.3113976  64.4381256  21.0848923  55.5936050
  63.8721199  21.7350788  56.0096893  65.0063553  21.5958347  55.0171623
  67.6691971  69.8832397  33.5532379  67.7052612  69.2711182  32.8182259
  68.2354355  69.4921951  34.2185936  32.3361740  40.7640495  71.0522766
  32.4048615  39.8135452  70.9625244  32.2668343  40.9111710  71.9955597
  47.5628433  55.3261948  34.3257713  47.6900902  54.7800446  35.1015015
  46.9202995  55.9817276  34.5971527  78.2267456  63.6843452  72.8631744
  78.5086441  64.0961914  72.0463867  78.7891998  64.0722351  73.5335617
  10.6884232  46.0670013  34.4146500  10.6645947  46.7427673  35.0921516
  10.9709806  45.2765465  34.8746223  75.0033875  61.1573524   6.8234510
  75.0629730  60.8802452   5.9091787  75.3986206  60.4391594   7.3176417
  62.3647804  53.7474823  20.3672085  61.6917610  54.3867493  20.6009083
  62.0255470  53.3189926  19.5813656   9.0382710  28.4320374  61.8909912
   8.7756624  28.6312599  62.7896461   8.2465410  28.0825977  61.4819794
  22.6523457  10.9955082  10.0951881  22.2097759  11.4460039  10.8145056
  23.5688534  10.9516783  10.3678112  35.7730484  49.1644897  28.9487991
  35.6397095  48.2358208  28.7589855  35.0352516  49.6037521  28.5257969
   4.7830977   5.6309853  26.5660343   4.3995633   6.2940116  27.1400795
   5.2233214   6.1334167  25.8804703  63.4864426  12.7054310  56.3746872
  62.5722313  12.5413990  56.6060829  63.9600639  12.6322870  57.2032814
  74.8481522  36.7731438  50.5088577  75.4967041  37.2080536  49.9552689
  74.6463470  37.4143410  51.1903076   8.2116385  30.7321815  82.9535141
   8.0953894  30.5177784  83.8791199   8.5066032  29.9141769  82.5533905
   2.8075867  23.7308178   2.2321815   2.8613377  22.8739567   1.8089420
   3.0545976  24.3521843   1.5472573  16.2026711  68.2589874  13.0702620
  15.2736320  68.1568756  13.2768784  16.6532707  67.7199631  13.7203751
  35.2004318  48.9338036  12.3072805  35.8436890  49.2126427  12.9589710
  35.1598930  47.9822311  12.4026537  28.4360371  22.4904137   5.0180635
  28.0434113  23.3542137   5.1442618  28.4860802  22.1190662   5.8988757
  70.1999512  53.0053749   3.2309718  70.1997375  52.0869179   2.9614074
  69.6799316  53.4513206   2.5624311   5.0515990  37.2937737  84.6556854
   4.5507412  37.0239944  85.4254837   5.5500460  38.0563393  84.9494171
  37.3384399   7.6415501  17.7163563  37.9579659   8.2933388  18.0443649
  37.1805763   7.0640168  18.4631939  75.8419266  27.7583981  50.0019073
  76.7075958  27.6196480  49.6177216  75.2300262  27.5353107  49.3004532
  29.2495594  13.1321630  76.6223602  29.7403927  13.8671274  76.2547455
  29.4087505  12.4099522  76.0146637  78.0193787  46.3628006   7.7848544
  78.7284698  46.8102837   7.3231368  77.9770966  46.7967262   8.6370001
  38.3195267  54.7784424   7.7400432  37.4885712  54.6750755   7.2762947
  38.7922249  53.9638710   7.5689816  34.3246727  27.1703186  77.8495407
  33.4808006  27.1377201  77.3989258  34.2480927  27.9134483  78.4479752
  69.1688004  35.6526527  42.1468010  69.3478241  36.5849762  42.0245171
  68.9158478  35.5759888  43.0667839  38.9323235  25.5674839  76.9898758
  38.1356583  25.3673344  77.4813004  38.6915321  25.4241238  76.0746155
   0.6680437  26.9822102  75.0686493   0.1350577  26.1914845  74.9855347
   0.0327389  27.6872959  75.1930466   5.0466356  32.8566055  78.8346176
   4.5479498  33.4937363  78.3231354   4.6978784  32.0070686  78.5646515
  63.7334938   9.0573244   8.1140900  63.5141029   9.9281921   7.7828979
  64.1465073   8.6158791   7.3719473   1.1977072  37.4491997  33.0653305
   1.5309983  38.0553169  33.7269745   0.4102659  37.8745422  32.7258415
  77.6557159  39.2828751  67.2937775  77.1438446  39.1022453  66.5053711
  78.5440063  39.0037575  67.0718002   6.4443126  43.7340279  10.5197411
   7.0331082  44.4566307  10.7374449   6.9018712  42.9513855  10.8268986
  78.0281448  70.0484695  57.8274460  77.5260773  70.7998352  57.5118408
  78.9216843  70.2141342  57.5268173  85.3364716  30.8932724  88.0785599
  84.5934677  30.4467182  87.6726456  85.6278534  31.5220413  87.4182739
  57.0465889  28.5557270   3.9938323  57.8466339  28.0871429   3.7559359
  56.7225151  28.9117107   3.1664972  84.4141159  14.0115795  11.8852768
  83.5609589  13.7962170  11.5084953  84.4834290  14.9618578  11.7936382
  78.0643921  65.5114822  61.9324951  78.4632263  65.4819183  61.0628471
  77.1252975  65.4254379  61.7683601  12.7453623  54.7802162  10.7466469
  12.1134758  54.5093880  10.0806122  12.8780670  53.9984779  11.2828417
  63.0170441  33.1923981  79.2666702  62.6380730  32.7034531  79.9971085
  62.2920494  33.7179794  78.9284744  66.3416443  40.4765892  26.8483715
  66.7839127  39.6286430  26.8886528  66.7447052  40.9217758  26.1029987
  22.0466862   6.6928444  37.1695404  22.8860130   6.9418344  37.5565376
  21.7922649   5.8988700  37.6397591   6.1870184  32.4457436  45.0015564
   6.4912562  32.1705856  45.8664017   6.9516139  32.8568459  44.5982895
  80.1232605  21.0690365  74.1692200  80.9258728  20.9179840  74.6684494
  79.5200272  20.3915825  74.4748383  45.3929100  16.2278805  30.9039764
  44.7977982  16.9085045  31.2183437  46.2556953  16.5016747  31.2152100
  21.2680302  37.9502945  20.1522732  21.5787830  38.2532005  19.2990952
  21.9728069  38.1781425  20.7585793  27.9345226   4.5189576  68.0007706
  28.5620403   4.1711550  68.6343994  28.0885410   4.0081611  67.2060394
   1.8089055  24.0040588   8.0120449   2.7587740  23.8858166   8.0116282
   1.6284131  24.4958477   7.2109208  49.3112602  29.7067223  55.3783798
  49.6618042  28.8409348  55.5875778  49.9139404  30.3178997  55.8020248
   8.5386391  44.8022346  32.6530075   9.3175850  45.3255844  32.8416367
   8.7879400  43.9084320  32.8879509  19.8858356  51.3293915  73.7250977
  20.3543053  50.5326958  73.9741898  19.6079502  51.1716537  72.8228073
  62.5119057  44.2357979  61.9127808  63.0122681  43.4450684  62.1143188
  62.3233261  44.1678467  60.9768066   7.2173142  67.9457397  79.0098114
   6.6956506  67.7305679  79.7829895   6.9765472  68.8485794  78.8021088
  57.8507156  32.4589005  64.2464828  57.6010513  31.7518482  64.8414383
  58.8055611  32.4940872  64.3036423  55.8298874  67.1848755  70.2653580
  54.9847984  66.7399750  70.2011871  56.4721985  66.4758072  70.2951889
  33.9578896   8.7173243  63.0838127  34.3550606   7.8569455  62.9487839
  33.6391335   8.6950378  63.9861031  11.7976484  18.4111843  20.8418179
  12.3190269  18.0245361  21.5453072  12.3648109  18.3681698  20.0719433
  46.1061478  24.7382927  21.6936722  47.0593300  24.6993542  21.7721577
  45.9513893  25.2849426  20.9233112  18.0896873  13.5174799  77.7141876
  17.9403000  12.5938578  77.5121002  18.2408237  13.5344830  78.6592255
  52.8443298  41.2382088  76.7589264  52.1318703  41.8764076  76.7223434
  52.8641663  40.9534988  77.6725922  16.7828922   5.4736123  87.4933090
  16.8023205   4.9908562  86.6669922  16.9962234   6.3743353  87.2495499
  25.7484760  65.0974884  62.5443001  24.9442558  64.8290405  62.1000023
  26.4219379  64.5148239  62.1933212  13.5266943   8.1336679  41.3986969
  13.9431076   8.7367926  42.0143852  14.2383204   7.8460670  40.8267670
  44.4991913  55.0361786  29.5482502  45.0182991  54.2895737  29.2493496
  44.8978996  55.2868500  30.3815708  85.1727371   9.1977625  10.6668444
  85.5593643   8.5077696  10.1277189  84.8121033   8.7363520  11.4239950
  31.8514442  60.5219307   5.3817077  31.3697033  59.8786430   4.8617663
  31.9246197  60.1228104   6.2486453  59.8424492   9.4475517  40.3813553
  59.9569130   8.6942892  39.8019371  59.9650764  10.2078276  39.8128700
  11.2359667  37.8982201  54.9734077  11.1500034  37.2966423  54.2338486
  11.0728006  37.3548508  55.7443542  51.4005547  29.9305344  58.7060204
  51.1913147  30.2991695  57.8477898  51.1057739  30.5938931  59.3299522
  22.9102459  60.2425156  70.6705933  22.6355076  60.6858482  71.4732132
  22.8405819  59.3102264  70.8760529  15.4505749  67.4036407  88.6434402
  15.2256966  67.4751816  87.7157822  16.3436565  67.7433548  88.7002792
  81.5040436  35.6116142  82.5733948  80.9777069  35.4722443  81.7861404
  81.4507523  34.7816048  83.0471802  57.7597084  64.6747818  59.3653374
  57.4161568  63.7941704  59.5160866  58.0016670  64.6821976  58.4392509
  53.8588943  42.5033340  11.7739315  53.4880104  43.3301086  11.4655123
  54.6954536  42.7487335  12.1691275  52.0895004   0.8082593   1.4728054
  51.7278061   0.2427366   2.1551495  52.5341187   1.5074816   1.9520077
  11.3598795  14.7580872  14.4152222  11.4742374  14.3513613  13.5563107
  10.4503498  15.0563593  14.4198017  51.8705330   6.1776085  11.0017662
  51.1294250   5.5981646  10.8250380  51.8765297   6.7899718  10.2660980
  34.8164558   7.0071888   1.4909526  33.9429817   7.3720775   1.3490586
  34.9301796   7.0206709   2.4412773  51.1596413  64.1888657  22.2482185
  50.6449242  64.9841080  22.1107807  51.9280586  64.3012161  21.6886253
  49.3401413  14.0321264  28.3715572  49.2786522  13.1419086  28.7179146
  49.9032211  14.4927940  28.9936180  15.1539068  22.9757080  72.7422867
  15.4123497  22.0607376  72.8530350  14.4468994  23.1031380  73.3748474
  12.9444981  49.5460434  25.3710594  12.5856609  48.6904488  25.1356392
  13.6606436  49.3476372  25.9743862  85.8104401  68.8100052  45.3519325
  85.8310928  68.0923080  45.9849548  86.7044754  68.8563538  45.0131454
  24.8475685   9.8298960  39.1913605  25.2042484   9.0964890  38.6902351
  25.5325584  10.4977102  39.1590385   8.2342815  63.8707390  70.1630859
   7.8574820  63.7078133  71.0277939   9.1336737  63.5499191  70.2294235
   8.2394123  55.6215782  32.5451813   8.7974834  55.8204155  31.7933483
   7.9424400  56.4768639  32.8558769  19.3072090  45.1456566  72.7295380
  18.5221329  45.0238075  73.2634277  19.9703388  44.5984802  73.1503601
   1.9825903  40.2010269  83.3951569   2.1259313  39.2697220  83.2267532
   1.2331530  40.2242546  83.9901657  77.4077911  66.8938675  18.9148140
  77.0956497  66.4883118  18.1059093  78.2767868  66.5167084  19.0520039
  29.3923149  69.4130783  83.3425446  30.2183247  69.8794250  83.4708328
  28.7322273  69.9814911  83.7393188  74.5619431  56.0108223  51.0351372
  75.2883301  55.4922752  51.3811150  74.6895370  55.9987755  50.0865555
  76.8088150  55.8413887  21.8073463  77.6423569  55.8787422  22.2764378
  76.2117996  56.3694229  22.3374252  82.9461594  35.4380951  64.3165970
  83.1411438  35.4180298  63.3796806  82.0773849  35.8360825  64.3719635
  71.6470566  23.6777134  42.8237343  71.7865906  24.4233742  42.2399940
  70.7038193  23.5187778  42.7879982  35.4685631  11.6556168  70.1130142
  35.2778397  12.4775028  70.5650787  35.8726082  11.1026230  70.7817230
  75.1582184  33.8231468  26.9376373  76.0671463  33.6041451  26.7324238
  75.2116394  34.6611176  27.3971786  34.5372314  67.7093124   1.4331753
  34.1447144  67.1286850   0.7812300  35.4695358  67.7172623   1.2164389
   8.0943556  10.1498280  17.0272846   8.1192160   9.3100176  16.5686626
   7.5258756   9.9941216  17.7814846  18.6757298  60.6944733  33.6560211
  18.4363384  61.0868721  32.8164139  19.5821686  60.4104843  33.5379066
   4.3339796  21.2188873  68.2700043   4.8241367  20.4921608  68.6545181
   4.8499045  21.4784584  67.5066757  23.3590660  12.0241699  33.0442581
  22.5773582  12.5566425  32.8971672  23.8411922  12.4901180  33.7273979
   2.2464836  23.2829266  59.5886040   2.0228088  23.9778748  58.9695320
   2.8466978  22.7153988  59.1049843  56.2266197  40.3099861  26.0692158
  57.1755066  40.4173660  26.1349125  56.0120850  39.6608353  26.7391472
  53.0871201  66.6037521  47.9586639  52.3607826  66.6388626  48.5811043
  52.6865463  66.3132248  47.1392937   4.7580824  43.8377190  35.6695633
   4.3954062  44.2772026  36.4386864   4.8752208  42.9288406  35.9460602
  86.6690216  38.5200653  50.5742455  86.0976715  39.1933937  50.9435997
  87.5399933  38.9170837  50.5770683  86.1050644   5.5066190  23.0149269
  85.9508972   4.5629368  23.0588436  86.5787659   5.6339221  22.1929588
  12.8915329  46.0541458  66.3476562  13.4409800  45.8393364  67.1014404
  13.5067492  46.1391220  65.6192856  82.5136337  45.4227448  61.7377510
  83.0110245  44.8090172  62.2782784  81.6086655  45.1169853  61.7991943
  65.4327393  50.2484436   3.4536593  64.7458344  49.5848885   3.5175469
  65.3526077  50.5911980   2.5635295  63.6567192  50.9062614  71.5101089
  64.3225250  50.5204468  72.0793839  63.8839645  50.5981598  70.6327972
  24.8295059  14.3801346  19.6740360  25.4072876  14.0327339  20.3535328
  25.4184074  14.8194380  19.0604897  25.3508415  39.7230415   8.4138565
  24.4162769  39.5338631   8.3299980  25.4504337  40.0459366   9.3094301
  18.6063499  59.6884651  18.8825321  18.2655983  58.8792992  19.2638149
  18.8520355  59.4474564  17.9893436  62.6238976  13.1007872  24.8524666
  62.6448097  12.4309444  24.1690159  62.5683708  13.9285183  24.3749638
  78.9500351  36.2072220  27.3604813  79.4716873  36.8671570  26.9037647
  78.5572662  36.6786957  28.0951080  78.7407074  16.8105297  15.7987309
  77.8836441  16.6923103  15.3892212  78.6784668  16.3338223  16.6264439
  57.0844955  42.7789993   9.5990734  56.8692856  42.7969894  10.5315924
  57.8363609  43.3654556   9.5154276  80.3863754  55.0987701  15.6426420
  81.0939713  55.1113586  16.2871437  79.9590302  55.9497833  15.7394848
  72.6880264   1.3860021  52.7877617  72.8733597   1.8450664  51.9685326
  72.7466202   2.0640712  53.4608307  10.6592131  38.0664177   0.2664855
   9.9189072  38.4658432  -0.1902832  10.2570534  37.4835434   0.9105010
   8.4133062  21.6310349   5.9972453   8.7498312  22.4041290   6.4503531
   9.1383600  21.3443108   5.4419799  23.7582264  66.8179855  52.8779335
  23.9572697  67.4934540  53.5262871  22.8298759  66.9418411  52.6802979
   5.4045181  12.0074711  32.9190712   4.8252597  11.4142952  33.3974380
   6.1917992  12.0620165  33.4607773  16.7961864  23.3774834   9.9990625
  17.3077488  24.1791420  10.1080494  16.3717651  23.2470512  10.8470516
  16.1739330  67.1496277  67.5253525  16.4774017  66.3598099  67.9729385
  16.7923164  67.2690201  66.8045349  33.9818382  67.9179077  51.8891716
  34.4577408  68.2538834  51.1296539  34.2801247  67.0126648  51.9774818
  58.6160278  22.3057251  83.2087173  59.3386650  22.0394917  83.7771835
  58.0122223  22.7684479  83.7897034  42.5893555  69.2760925  83.1263428
  42.4817505  69.0402069  82.2049255  43.4350166  69.7231064  83.1619644
  18.0177631  19.3749599  56.9722328  18.5815849  18.8554840  56.3991013
  18.2711449  20.2817326  56.7996330   1.7378963  40.8846703  53.0808945
   2.5670998  40.5131607  52.7798424   1.9391849  41.2544403  53.9405365
  13.1204214   0.7491139  42.3222389  12.5360193   1.4792974  42.1184273
  13.5395718   0.5377615  41.4880486  17.7480869   4.8262033  23.8912354
  17.9675388   3.8945396  23.8825455  18.1095982   5.1497369  24.7163830
  67.0110779   6.5069795  78.3993759  67.7192383   7.1470251  78.3280563
  66.7009201   6.3918586  77.5011673  55.8998604  18.5077381  16.6589336
  54.9677734  18.2900276  16.6520958  55.9971199  19.1215210  17.3869743
  50.9144783  49.1530151  88.6926727  50.1937370  49.4681168  88.1472626
  50.8215981  49.6351929  89.5143204  38.7530022  53.6383095  62.7127495
  38.9529572  53.1820793  63.5301247  38.7487068  52.9490318  62.0485878
  56.7907066  27.8998890  64.1083145  56.8461342  28.8458939  63.9732780
  57.4182014  27.7207336  64.8085861  27.8653870  33.9853592  74.4579544
  28.3502369  34.2308426  75.2459259  28.5401745  33.7087402  73.8379745
  45.2599564  56.9646988  42.9160004  44.6101494  57.4037285  43.4648514
  45.0119019  56.0406151  42.9437943  77.5858154  25.3579483  87.6494675
  77.8564224  24.4735985  87.8963089  77.7052612  25.8759270  88.4455032
  86.2942734  10.8713722  58.9097977  86.5178757  10.5154867  59.7697868
  86.0960083  10.1017733  58.3762817  49.9823112  69.3649139  41.9244766
  50.5560150  68.9776535  42.5856323  49.1201439  69.3884201  42.3396187
  85.6389771  27.1397305  18.0846901  86.3235779  26.6401196  17.6397743
  85.0294724  27.3837223  17.3881302  33.9174957  62.0176277  19.5566940
  33.1456451  61.7879028  20.0740929  33.5782127  62.5708313  18.8530731
  67.9242477  55.4340858  50.5750656  67.4489441  54.9113235  49.9292870
  67.6933746  55.0421600  51.4172783  10.0558796  69.9649658  40.3887367
   9.4948130  69.8430710  39.6228523  10.8670597  69.5079575  40.1665649
  77.7458115   1.7525527  43.9041367  77.5748825   2.3473125  44.6343956
  78.0823822   0.9571496  44.3167953  84.4391785  16.6623535  38.0352287
  83.7336960  17.2939224  38.1753998  85.0192719  17.0875225  37.4036026
  58.2371826   6.6318045  10.2951384  58.1188660   7.4056907  10.8458948
  57.3732224   6.4745264   9.9142647  58.7341118  59.9566574   8.7862568
  57.7920685  60.1174049   8.8405199  58.8846474  59.2148628   9.3721886
  75.6332397  24.7586517  12.0711279  76.2516327  24.0315495  12.1428576
  74.8201675  24.3527851  11.7704344  60.7534256  70.5413818  17.9477348
  61.7047615  70.6279068  18.0086040  60.4845276  71.2551346  17.3693905
  13.1462116  43.2252426  74.2604141  13.2035942  43.2732620  73.3061447
  12.2789679  43.5742722  74.4660721  71.1706238  62.5689545  46.0207863
  71.8737411  62.1735840  45.5054779  70.7135544  61.8249283  46.4128876
  83.9577408  21.2465534  10.1467381  84.7537079  21.7669163  10.2557783
  83.9594650  20.6469841  10.8928919  37.4727135  23.7369633   9.9502039
  37.3023834  24.2149467  10.7618389  36.7514343  23.9834499   9.3712091
  70.5019913  39.6183243  28.2137356  70.8482819  40.3062592  28.7821159
  69.8763504  39.1460991  28.7631111  20.4823284   8.0122995  29.1919041
  21.3792381   7.6833339  29.2516270  19.9529915   7.2342224  29.0168915
  72.0552826   6.9972281  75.4636841  72.1353683   6.0977921  75.7812271
  72.4787750   6.9867892  74.6053238  59.2456703  40.7143364  35.7372665
  58.6603165  41.4125938  36.0305748  59.7966156  40.5284691  36.4976234
   2.1625397  37.7259407  81.9777679   1.2275755  37.9165955  81.9021149
   2.4891939  37.7687225  81.0790482  49.0706367  71.9184036  67.4369202
  49.9140663  71.9235764  66.9843369  48.9393005  71.0041809  67.6882782
  65.4290848  26.4797840  75.4263763  66.1557693  25.8821411  75.6024017
  64.9743347  26.0904675  74.6794739  45.8204269   7.3657036  21.0130329
  45.2000694   8.0655317  21.2170601  45.6939659   7.1982837  20.0791111
  19.8239613  18.8926430  80.9013519  19.9741402  19.2109299  81.7915039
  18.8993301  19.0754662  80.7344284  11.3150539  63.9433174   6.9797845
  11.2187262  63.7454185   6.0482326  12.2235889  64.2305298   7.0709281
  25.1120586  37.4004478  71.7306366  25.5564613  37.4336090  70.8834991
  25.7909927  37.6267776  72.3662872  24.3348694   3.6267827   8.1922007
  25.0629673   4.1403670   8.5419645  23.9190712   4.2052464   7.5528855
  45.7485161  67.5875244  15.3679075  45.0210915  66.9772339  15.4888849
  46.1139069  67.7015686  16.2452393  32.2822418  21.6140652  26.6750107
  32.4001122  21.3627758  25.7589359  31.5009708  21.1374378  26.9554958
  56.2257309  26.4868431  87.1094513  55.4787483  27.0543861  87.2995682
  55.9376183  25.6140938  87.3768997  12.6166401  45.6685829  20.7242546
  13.0530138  44.8332024  20.5570698  13.3292160  46.3060379  20.7702732
  64.0068665  64.8391418  51.2566681  64.6961136  64.6842575  51.9025612
  63.1924591  64.7761002  51.7556686  85.8152771  50.2791634  68.8234024
  85.3243408  49.5440826  68.4561539  85.4222870  51.0541191  68.4218674
  51.1550941  11.4869938  38.8910751  50.6791077  10.8045607  38.4178352
  51.3250160  11.1067648  39.7529221   2.6205223   5.8456845  88.7954941
   2.2215691   5.7269273  89.6574478   2.6061656   6.7921510  88.6532745
  66.4940262   6.0078321  14.1492128  66.4058456   6.3177576  13.2478781
  67.4067078   5.7276177  14.2179289  32.6083794  12.3302040   6.3926907
  31.8121929  11.8472900   6.6143003  33.2992439  11.8952541   6.8924508
  25.8008308  46.7211075  33.2780418  26.2025776  47.5675011  33.0819550
  25.2510891  46.5348434  32.5169144  11.9951839  13.4263563  60.5307274
  11.6898479  14.0791283  61.1607208  11.3118391  13.4019661  59.8608932
  59.0091515  71.5696869   4.8221693  59.6497650  71.0703278   4.3157277
  58.7293243  72.2689362   4.2314248  45.3166275  52.0055542  68.5885468
  45.0693665  51.0810051  68.6059418  46.0579338  52.0666084  69.1910172
  74.4084167  64.8919525  22.3253441  73.7087173  65.5435257  22.2794609
  74.0534744  64.1980667  22.8810177  79.1361313  21.4856091  62.1277428
  79.0273285  21.4715786  63.0786362  79.7717361  20.7925396  61.9491425
   8.9586344  57.6295738  28.1095467   8.8331823  58.0040817  27.2376328
   9.5333834  58.2508583  28.5566502  66.8009415  64.8377686  10.2239876
  66.2134018  64.3180847  10.7725840  66.4223022  65.7168503  10.2333212
   9.8009481  63.1224289  45.1268044  10.6485844  62.6901703  45.0224190
   9.1784811  62.4044151  45.2417984  86.7495422  48.6371040  54.5899277
  87.0229187  47.8195114  55.0059090  86.0005493  48.9309120  55.1085014
  57.7240105  46.7823944  33.9341507  57.3887711  45.8860931  33.9120903
  57.0874329  47.2632599  34.4630814  20.8324318  59.9984131  82.9243622
  20.0291252  59.8466339  82.4264679  20.5399780  60.0784607  83.8322678
  65.3900070  67.5500031  53.1206665  64.9715042  66.9473877  53.7354355
  66.2815704  67.2147369  53.0260353  48.6340446   7.1037207  83.0835571
  49.0002708   7.7977920  83.6316147  47.6900139   7.2614331  83.0963364
  48.6234322  13.3050785   0.1723563  49.3147926  12.7886591   0.5865604
  47.8095474  12.9044952   0.4779004  42.5674133  67.0987167  30.2690792
  43.5226479  67.1350632  30.2197113  42.3858948  66.3735428  30.8669128
  82.6624374  38.3542671  55.0346794  82.4980621  38.9585342  55.7586098
  82.6105652  38.9004478  54.2503128  71.2979660  49.8374519  59.0183754
  71.0320587  48.9693260  58.7152519  70.4937973  50.3560944  58.9947662
  83.6386795  43.8249969   5.4898229  83.0524216  43.1397133   5.8106260
  83.0596848  44.4519386   5.0563068  70.4381332   4.5761371  25.3166943
  69.5751953   4.2865129  25.6128216  70.9005585   4.8121419  26.1208668
  64.9240036  22.9843140  44.0734634  65.8601990  22.9472485  44.2693939
  64.5343933  22.3173885  44.6388397   2.6661184  55.7962341  46.4183617
   2.0746124  56.3999939  45.9691086   2.5762148  54.9722290  45.9396515
  27.6794968  63.9659615  70.2961578  28.1420326  64.7429581  70.6101151
  27.7928047  63.9874039  69.3459320   5.2705956  15.4617367  31.1361256
   4.8145561  14.6227798  31.0697021   6.1946316  15.2421417  31.0170994
  20.0249481  10.4127693  19.0989933  20.9349041  10.2384567  18.8585243
  19.5581398   9.6096401  18.8681145   6.5310364  35.2922020  35.6113167
   6.0849767  35.7472992  34.8970680   6.5977211  35.9460182  36.3072433
  45.5247612  47.7976379  18.8004189  45.0684242  48.5845680  19.0982876
  46.0612030  48.0954781  18.0657387  78.0920715  36.9879570  38.9158440
  77.7071686  36.4574966  39.6134796  77.3489304  37.2362938  38.3660316
  54.4775696  47.8177223  73.1733704  54.5166016  47.1132660  73.8202438
  55.2481956  47.6800575  72.6225357  30.7151089   4.0667229  15.9569883
  30.9357014   4.8560033  15.4624090  29.7855091   4.1650906  16.1628952
   2.5600202  39.0902710  88.6589432   1.8465967  38.8076515  88.0867691
   2.1906703  39.8163986  89.1614914  74.9409943  38.2195168   4.9378586
  75.2289810  38.6504173   4.1331096  74.2297974  38.7711678   5.2636151
  16.3202724  65.2397385  22.9999371  15.7684584  65.8077927  22.4622993
  15.7990742  64.4463806  23.1230640  67.8401794  68.5943985  44.7425690
  67.4091263  69.4203720  44.9621239  67.5740662  67.9930649  45.4381371
  48.7163963  50.5943298  11.8812008  49.1182137  51.2482338  11.3091993
  47.7751999  50.7025604  11.7445707  44.5655937   4.8921051  76.4693222
  44.3051338   4.7821908  77.3838196  45.1575661   4.1594057  76.2991562
  21.4670048  46.1063309  11.6736422  21.8409386  45.7301292  12.4704351
  20.6647301  45.6055489  11.5259790   5.9369612   2.4095962  20.4485493
   6.0760770   1.4887398  20.6696873   5.0540075   2.4366453  20.0799141
  77.7166290  61.2895432  50.4492874  78.3453293  60.5866318  50.6132660
  78.2026978  62.0933647  50.6332397  58.6485863  66.4020691  23.1610870
  59.4282341  66.8574371  23.4789200  58.9735527  65.8239975  22.4708195
   1.3896645  57.6132088  73.8550415   1.4067689  57.9435768  72.9568253
   1.5324559  56.6708755  73.7664108  19.8739300  50.6524429  41.6802101
  19.0653839  50.1711044  41.5047112  20.4426937  50.0156021  42.1128426
  62.9866562  65.6609421  64.8087006  62.2702217  66.0875320  65.2787781
  62.5767784  65.3027954  64.0213242   3.5932765  61.2177582  23.9841728
   3.7976282  61.7615738  23.2234249   3.5909095  60.3226547  23.6450367
  43.5230026  71.5526428  64.7395096  44.3708839  71.4045868  64.3206940
  43.5318680  70.9807434  65.5070343  66.4287109  51.3367653  43.3718071
  67.0114822  50.8635063  43.9656372  65.6016769  51.4019127  43.8492928
  37.6510353  49.3918190  88.6704636  37.1072884  49.3419189  87.8842773
  38.5124397  49.6585045  88.3493805  15.1786585  22.9041862  87.4727631
  15.7007427  23.2495117  86.7486038  15.7034016  23.0832176  88.2530365
  64.0385056  11.6798820  52.7550201  63.8121376  11.4721441  51.8484726
  64.0598450  10.8311415  53.1970787  60.7893715  11.5301113  56.7740898
  61.0770149  10.6964788  56.4018707  60.0097389  11.7615213  56.2692604
   3.1219733  53.4873047  44.5279732   2.9253886  54.0065880  43.7482758
   2.5315132  52.7361069  44.4705811  86.2176666  41.7994995  44.8364906
  86.0048065  40.9289703  44.5001793  86.5600357  42.2722282  44.0778503
   5.7191377  52.6082153   3.2762251   6.0587096  51.8938675   2.7371235
   6.2971983  53.3471718   3.0864322  64.3187561  51.6906013  16.3193417
  65.1360245  51.1991005  16.2373486  64.5808258  52.6071892  16.2332020
  61.7893181  18.7321072  54.9718742  61.9507217  18.1977367  54.1942940
  62.3773117  19.4810581  54.8740654   2.7529473  70.6346130  37.9067116
   2.7808175  69.9743576  38.5991821   3.5597861  71.1366043  38.0218010
  68.8151779  17.8529358  18.3326397  68.0255356  17.5024700  17.9204884
  69.3710098  18.1169758  17.5994511  57.7998924  35.6534996  88.6696777
  58.6111374  35.7288094  89.1721115  58.0871315  35.4435539  87.7810593
  86.2842484  30.3848171  17.8222542  85.9044495  29.5166550  17.9574528
  86.1384277  30.8416939  18.6506443  41.9654846  27.4031277  83.1454773
  41.7143440  27.4822845  84.0657501  41.6943474  26.5190048  82.8984070
  68.6898499   5.5398908  75.0471268  67.8651733   5.0660200  75.1547394
  68.4259720   6.4300580  74.8143158  68.6523972  51.0968285  58.4925003
  68.5155106  51.9576187  58.8881416  68.2013474  51.1461449  57.6496773
  80.2958679   7.4989281  63.9523849  80.0435715   6.7607965  64.5071259
  79.5150223   8.0515709  63.9193115  15.3544521  48.6984177  12.3867645
  16.1533527  48.5094528  11.8945436  15.3499050  49.6511154  12.4794073
  60.2013855  31.3501263  78.3602448  60.5192299  32.2496529  78.4380569
  60.9717178  30.8456802  78.0988007   0.0086121  67.2612076  21.2210655
  -0.3113571  68.1140747  21.5151234   0.6976421  67.0354385  21.8459644
  41.2172966  13.7953033  78.8488541  41.1263847  13.5002537  79.7548981
  42.0201569  13.3756781  78.5397263  61.7034836  16.6469116  10.2483616
  60.9050560  16.3983612   9.7825632  62.3627281  16.7403374   9.5606833
  38.4918404  28.5281563  77.2150192  37.9388351  29.0190983  77.8227921
  38.6739464  27.7050362  77.6683884  58.2717552  37.8056679  38.8469048
  57.7271614  37.3081741  39.4569397  58.6566353  37.1425285  38.2738838
  18.9565029  42.9009285   4.2559128  19.6328487  43.0027008   4.9255629
  19.4419956  42.8294067   3.4340773   5.9577308  15.2962427  28.0524960
   6.2672739  14.3981504  28.1701660   5.1776843  15.2108412  27.5043488
   4.8192549  36.0501747   8.5928192   5.1367993  35.5891457   9.3692513
   4.2358117  35.4239197   8.1643009  80.4349976   5.0410795  19.7660885
  81.1270676   5.6977215  19.6880131  79.6480942   5.5457549  19.9717960
  34.8070450   2.9580007  16.2170010  34.1987953   2.4209216  15.7092505
  35.3712120   3.3665936  15.5604973  47.8870811  50.6960526  32.6761169
  47.0627823  51.1727867  32.7735176  47.7282829  50.0881195  31.9540157
  55.9884872  54.2221184   6.3285518  56.1983337  55.0434380   6.7731109
  55.4180031  54.4805527   5.6046805  49.1645203  62.9062538  23.4410725
  49.2856293  62.8773918  24.3901405  49.8812714  63.4562111  23.1247692
  74.7674713  12.6379414  64.2296906  74.8662415  12.5006943  63.2875443
  75.0949249  11.8300467  64.6250458  73.5353317  56.3049927  83.6321793
  72.8391571  56.4378738  84.2755432  73.2028732  55.6144447  83.0587234
  13.0977192  13.6556311  16.2921810  12.8803682  14.3578711  16.9052467
  12.5598860  13.8358221  15.5211449  46.8223991  36.2793007  56.5693512
  46.7773170  36.0184975  55.6494713  46.8088760  37.2361679  56.5479546
  50.5017624  55.2439766  75.7516479  50.6976738  55.3591385  76.6814804
  49.7447243  54.6583862  75.7371216  69.3121796   0.6287816  64.7138824
  69.1833420  -0.1288801  64.1432800  70.2490082   0.8162498  64.6552124
   2.2261527  28.0960102   0.3851652   1.3501953  28.4343395   0.1995196
   2.2418535  27.9803429   1.3352212  42.8502007  51.2007561  72.1333923
  42.7898979  51.3017387  73.0833359  43.0120506  52.0863495  71.8081818
  69.4208603   2.3766043  47.8798599  69.5764542   2.9181929  48.6536179
  70.2834854   2.2828467  47.4757271   4.4287562   4.0482392  60.3632698
   5.0381689   3.8847458  59.6434631   4.9350758   3.8593879  61.1533356
  65.7201309  19.8032475  57.6010780  65.6766510  18.9437218  57.1820869
  65.3616943  20.4057865  56.9493866  69.5894547  50.2887726  73.7567291
  69.3768921  49.8408012  72.9379730  70.3484192  49.8160172  74.0983658
   8.4030600  54.4468040  48.4881783   8.0715218  53.7561111  47.9143715
   9.1537914  54.8091965  48.0177460  52.5512314  66.6299896  53.9435196
  52.1079903  67.4068069  54.2845879  53.4757233  66.7735291  54.1458626
  63.5972786  18.9438782  12.3933001  64.4401779  18.5024662  12.2888565
  63.4952507  19.4579487  11.5923300  12.4834480  57.8707809   5.2865658
  12.9624052  58.6721954   5.4976683  13.0224457  57.1673050   5.6482806
  51.8382607   2.5145826  10.0026608  51.6344261   3.2352331   9.4065523
  52.3604698   2.9178090  10.6961603  64.1035385  22.9599323  18.8448906
  64.5467834  23.5572586  19.4473591  63.3731079  22.6062298  19.3524284
  34.6174889  18.4817085  17.5249672  34.0906410  18.1816559  18.2656631
  34.7823524  19.4067764  17.7074528  20.8273773  24.1257324  64.5638275
  20.9544830  23.2536411  64.9373627  21.6774197  24.5546589  64.6622314
  71.8748703  48.1930313   1.3740928  71.1516037  48.5944443   1.8557405
  72.6474304  48.6891479   1.6447421  46.8017044  58.7852745  75.2956467
  47.3317604  59.1448555  74.5843277  46.6291504  59.5332489  75.8674774
  38.6184769  44.3415298  22.1941986  39.4972382  44.5270844  22.5252304
  38.4349747  45.0583458  21.5869637  16.6448555   2.4920926   2.6774070
  15.7782001   2.0947402   2.7625611  17.0257092   2.0730112   1.9056859
  78.7178650  56.2397614  76.0650864  79.4710388  55.9781990  75.5354233
  78.3642197  55.4164162  76.4016418  67.8076477   4.8332901  61.1786041
  68.2835236   5.6538978  61.0506363  66.8855972   5.0749931  61.0912437
  56.8254547  10.3770161  69.3595581  56.8897476  11.2915936  69.6345978
  56.6216660  10.4216070  68.4253693  12.0764780  66.9880829  77.0484390
  12.3636427  67.1115417  77.9531631  12.4049931  66.1214828  76.8090210
  80.2946930  63.2290001  27.8209629  79.5955124  63.7408142  28.2276840
  80.0127106  62.3193588  27.9172230   8.8078632  33.1634903  42.4462967
   9.6224632  32.7707291  42.7599754   8.6849356  33.9345093  43.0000572
  83.2296371  12.0730247  36.8232536  83.8048477  11.8806267  37.5637550
  83.0896759  13.0188732  36.8681221  83.2132416  19.4752960  23.3429508
  82.8820419  19.5093842  22.4455242  84.1646194  19.4344349  23.2457504
  44.3482285  11.3051424  34.8008499  43.4433441  11.3563681  35.1087265
  44.4236374  10.4286242  34.4236717  58.5268936   0.3075767  46.2277412
  57.9336586  -0.1827768  46.7968292  58.3109856   0.0104607  45.3438072
   6.2976346  25.8808231  18.0123043   5.5849423  25.9800358  17.3810692
   5.9196029  25.3592777  18.7203407  45.6385918  61.3230782  31.1847267
  46.0231667  60.5386086  30.7936478  45.4504852  61.0722427  32.0891228
  84.9617996  24.0716076  10.0684767  85.0642395  23.6748009   9.2034426
  85.8529587  24.2964096  10.3359203  57.0749207  32.4871330  37.7891197
  57.0146713  33.2486801  37.2123642  57.2385864  32.8562965  38.6569710
  60.2540550  10.3708000  37.3347778  60.7727776   9.5703020  37.4145470
  60.4173927  10.6740437  36.4416962   9.9389954  68.6881485  55.4825401
  10.5564823  69.3859100  55.7018013   9.1170130  68.9583740  55.8918724
  73.5797806   3.2390709  26.3816547  72.8828278   2.7171640  26.7792664
  74.2700958   2.6060567  26.1841850  12.2729855  39.1908150  72.1002655
  12.5081701  38.2832413  71.9073105  12.5452166  39.6791496  71.3233109
   6.9769931   6.8796616  24.6463966   7.2541976   6.1285305  24.1218109
   7.1347308   7.6368971  24.0825310  24.2626038   8.9674349  15.0274506
  23.8764954   8.1270723  14.7805853  23.9280396   9.5850010  14.3771343
  79.6031342   4.9619470  81.2997284  79.3196411   4.9094944  82.2124786
  79.5201187   5.8889327  81.0760422  26.9781532  15.8500986  18.0473042
  27.7208385  15.9338627  18.6453285  26.6280785  16.7379913  17.9743328
  10.1326904  10.5079098  31.2235336  10.3201199  10.8789616  32.0857506
   9.6717644  11.2055445  30.7576103  73.2675323  70.0891266  82.9823532
  74.0475082  69.8704910  83.4923248  72.9221268  70.8783951  83.3994675
  44.4472847  50.2043419  29.5977993  44.9472733  50.1315651  30.4107857
  43.7012253  50.7595978  29.8243332  64.0065308  65.7939529  25.0487309
  64.1395645  65.2564697  24.2679348  64.6504211  66.4975662  24.9677143
   7.7252097  25.7613754  20.8168945   7.9238563  25.7272263  21.7526321
   7.0032468  25.1433640  20.7026005  27.5382862  28.4727097   6.0163636
  26.6059074  28.5469666   5.8129234  27.6744232  29.0821609   6.7418056
  52.1909904  51.1741104  61.5265617  52.6372871  50.6224861  62.1690292
  51.2869492  51.2206154  61.8376503  63.0645370  25.4940376  36.7141457
  63.4789467  24.6799030  36.4283485  63.1501694  26.0825291  35.9640923
  51.0317841  52.0906792  56.7084961  51.9524345  51.8981628  56.5308189
  51.0320740  52.4730568  57.5860023  51.4665375  62.7126160   4.9012918
  52.1717682  63.3299675   4.7069736  51.9016724  61.9830284   5.3424206
  77.0720978   5.0302043  67.4046021  76.3213425   4.9398060  66.8177261
  76.8081360   5.7061715  68.0288010   5.6540985  69.2961731  45.7078018
   5.1846986  70.0227203  46.1177101   5.8170629  68.6820221  46.4236870
  23.8294449  49.4178085  88.7722168  24.7604370  49.6369324  88.7338867
  23.5159950  49.8429489  89.5704880  52.6981239  18.1429005  51.9451866
  51.7482605  18.2423801  51.8811836  52.9588890  17.7827778  51.0975189
  84.2870483  12.5817070  71.7656479  84.4790726  12.0760612  72.5553894
  84.6431427  12.0539627  71.0508652  83.8395538   1.1648567  38.8911934
  83.6987152   0.2723561  38.5752182  84.6801529   1.4229693  38.5130348
  46.5543137  15.4424400  74.3844070  45.6660652  15.7917747  74.4565887
  46.5133400  14.5917187  74.8212433  82.5382843  18.8818817  81.6837082
  82.2239914  18.3413601  82.4084778  83.4192657  19.1474590  81.9474869
  37.3984985  29.6575146  79.2304459  37.5617180  29.6723251  80.1735153
  36.4817581  29.3941231  79.1501465  62.0930099  26.7913895  52.9693565
  62.7767715  27.2662563  53.4418030  62.5301056  26.0054893  52.6414223
  64.2653046   4.1333489   7.2501440  64.4523544   3.2102408   7.4207802
  65.1191483   4.5181599   7.0523767  57.7234688  49.3170319  20.2581177
  56.9336586  48.9716721  19.8419857  58.2383118  49.6749153  19.5348701
  74.7995682  54.1626282   2.3583379  75.7230148  54.3074989   2.5644989
  74.3676376  54.1193161   3.2114444  84.5368500  16.6038055  33.4612160
  85.4090729  16.9493828  33.2713852  84.3996582  15.9241486  32.8013077
  54.0163879  17.1397572  23.9861298  54.3209305  17.3505020  23.1034794
  53.1321716  16.7960167  23.8587170  78.3573456  57.1570625  43.7132492
  79.0048523  57.8499565  43.8431244  78.6930618  56.6511650  42.9732552
  83.9504776  11.4370079  53.9240074  84.6364822  11.2748337  54.5715599
  83.9089584  10.6295004  53.4117165   3.9538822  37.2642174  45.1068001
   4.1924176  36.3448524  45.2255478   3.4658194  37.4892616  45.8988762
  65.8876038  34.4133682  47.9301682  65.2966156  34.1490974  48.6352463
  65.4599838  34.1053085  47.1311226  30.4730034  46.9014549  76.4270706
  31.0032921  47.6983185  76.4214096  30.9192753  46.3211479  77.0437698
  51.0858498  57.4037781   8.6189795  50.5615997  58.0356293   8.1268845
  51.3677711  56.7649498   7.9642653  77.8440170  21.2571144  67.8826218
  78.6982956  21.3877468  68.2941589  77.7999344  20.3155746  67.7159195
  60.2474976  48.6574936  62.3638306  59.6505356  49.3478928  62.6523056
  60.7911949  49.0747452  61.6956024  86.2460861  45.9131851  76.5555420
  86.2789001  46.2252731  77.4598465  87.0799332  45.4608231  76.4278793
  29.7829590   1.2998680  83.4206314  30.2413769   0.4669091  83.5313721
  28.9595394   1.1850019  83.8949890  80.2454376   3.7294371  50.1235313
  80.7434616   3.9031839  50.9222908  80.4943390   4.4359651  49.5276337
  74.4897995  49.5361710  26.6497993  74.0611877  50.3654404  26.8615627
  74.4841385  49.5010529  25.6932602  11.6194868  55.0994110  25.4067745
  11.9701967  55.7047501  26.0600739  10.7371273  54.8965721  25.7174702
  84.2344513   3.4358683  57.7424088  84.7892685   2.8292503  58.2327461
  84.7031631   3.5776827  56.9199562  45.5619926  41.6169395   0.0448280
  45.6637039  41.2347488   0.9165019  46.4578629  41.7352028  -0.2708658
  40.9028168  70.2243500  78.6380844  41.0353889  71.1444016  78.4096832
  41.2122154  69.7404938  77.8723221  83.0424881  50.4149742  36.2782059
  83.4900894  49.8186951  36.8784904  83.4542770  50.2539139  35.4292526
  56.3382568  17.8168964   2.3843846  56.6820107  17.8181496   3.2777297
  56.4375877  18.7217045   2.0882633  14.4150333   3.2651918  45.4054718
  14.5085144   2.3357010  45.6141357  15.3133812   3.5932257  45.3655281
  69.0039825  19.3495502  55.1871376  69.3690720  20.2153358  55.0045090
  68.8470993  18.9686451  54.3231201  12.7643967  55.9488373  48.3307915
  12.6003819  56.6706390  48.9376984  12.0955486  56.0488091  47.6533852
  32.3407936  21.4535580  23.7086983  32.2687492  20.5226746  23.4977474
  32.6802101  21.8548603  22.9087067  20.3164978  62.5898895   2.5037951
  20.6465893  63.4712372   2.6784177  20.6048279  62.3986015   1.6113228
  36.7776108  61.3978157  41.7860527  35.9839172  61.6869049  41.3358154
  36.6020012  61.5648346  42.7120628  20.4622536  19.4561787  13.7114687
  20.7402248  19.6494293  14.6068001  19.7654152  20.0883293  13.5353069
  13.1703644  13.7470293  54.0557594  13.8423033  13.4936609  53.4228821
  13.5381365  13.5045290  54.9055634  66.2187042  20.7406387  27.6487007
  66.3475037  20.8055801  26.7024307  65.7024841  19.9431438  27.7659836
   1.7941997  33.3020477  33.6017761   1.1268952  33.7309036  33.0660362
   2.5391250  33.1890488  33.0113945  10.6696596  37.0403938  50.5545502
  10.1549072  36.5770302  49.8938255  10.6279469  36.4783134  51.3282166
  33.1462555  38.7323303  10.5610867  33.4332504  38.3414955   9.7357903
  32.4547310  38.1493950  10.8744659  79.8011017  60.3400574  46.3908310
  78.8754578  60.1177368  46.2908363  80.2092667  59.5319939  46.7017326
  31.3187561  56.5916138   5.1015821  32.0283699  56.6869164   4.4662910
  31.4666595  55.7334328   5.4989233  59.2732086  18.1592464  84.1691589
  59.9305763  18.4428959  84.8044891  59.3976250  18.7414627  83.4196396
  62.1571388  42.9901085  68.5543976  62.3602371  42.5644646  69.3873520
  61.8151016  42.2864265  68.0029678  25.3363209  22.6119308  21.0499992
  24.4488201  22.4307957  20.7405415  25.3481388  22.2836933  21.9490833
  67.3820038  66.5535965  41.8127975  66.5401993  66.9968796  41.9181366
  67.5117264  66.0866089  42.6382256   0.0617176  66.6804504  78.0879517
   0.7771899  66.0944901  78.3348923   0.2706107  67.5087585  78.5198059
  72.2747421  14.7946005  28.3288269  73.1454163  14.8024988  28.7264462
  72.2105103  13.9363184  27.9099522  43.5559082  45.7174454  18.6896210
  43.1730766  46.4897385  18.2734032  44.2841110  46.0606499  19.2074642
  86.3399048  48.0570717  62.3532104  87.2672501  48.2567749  62.2252502
  86.2955017  47.1011543  62.3312263  13.7106590  68.2241592  24.6239395
  13.3358784  68.2941666  25.5019321  14.5471764  67.7778702  24.7554836
  42.8560638  16.8642597   7.7040210  43.6021156  16.8431377   7.1046972
  42.4727097  17.7323494   7.5787501  78.4536743  27.7868099  48.6533394
  78.4639206  28.7415447  48.7212296  79.3655624  27.5487976  48.4859009
  39.4480095  31.9483776  87.0223083  40.0452156  32.2050896  86.3196869
  39.8174744  31.1347122  87.3653488  17.6103134  45.2695923  34.0374718
  17.3440018  45.9882050  34.6109734  16.8817997  45.1696243  33.4246864
  84.5067444  22.3603020  68.3353653  83.9286118  22.3474979  69.0981445
  84.8449478  21.4668026  68.2761459  18.1506519  52.1263924  59.3449554
  18.2875347  51.3121262  58.8607407  19.0080280  52.3297462  59.7188377
  12.4589062  22.2583599  88.2275925  13.3094463  22.6883831  88.1387482
  12.6656609  21.3850727  88.5605316  83.0443954  67.3149338  26.7397594
  82.5889511  68.0412750  26.3140373  82.4448090  67.0267181  27.4279861
  80.8139877  66.0071106  88.0024490  80.0867157  65.3871536  88.0568695
  81.5359497  65.4976730  87.6343842  36.2548103  54.1629295  79.3605194
  35.9541512  53.4190445  79.8825073  36.4656677  53.7863693  78.5061264
  51.3303871  66.8957520  27.4213200  51.8998108  66.8320312  28.1880856
  51.1360626  65.9871902  27.1911316  76.3485794  67.5972672  44.0656395
  75.5869293  68.1283264  43.8330650  77.0997849  68.1574936  43.8705368
  66.8789368   7.8100152  61.8168640  66.9782867   7.3315711  62.6399384
  67.4655609   8.5613241  61.9042358  57.4569054   7.5102544  69.7307663
  57.0743217   8.3843470  69.8070755  58.2680283   7.5588236  70.2366791
  45.4786720  33.0803223  22.3001595  45.1677895  33.9848785  22.2632065
  44.9813614  32.6281128  21.6186790  58.5902672  36.8331070  75.7693939
  58.7010307  36.5603294  74.8585968  59.4612770  36.7393494  76.1551132
  83.3427887  42.2782936  79.7740250  83.7887115  42.5264130  78.9641953
  83.4198227  43.0494537  80.3358078  18.5062275  54.7040405  39.4042168
  17.8379898  54.2343102  39.9032593  18.4958973  55.5904503  39.7653275
  24.4533272  67.0010910  64.2675629  24.0826015  67.1107025  63.3919029
  25.1355839  66.3387680  64.1576233  79.6961288  20.0577717  26.1191368
  79.9830093  19.1451931  26.0854778  80.3526611  20.5341244  25.6109123
   5.9313784  53.6935539  80.3001938   5.3559575  53.6259537  81.0621338
   6.6905026  53.1555138  80.5248642   7.8043075  23.2278519   2.9900246
   8.5511465  23.3952980   3.5648510   7.2658749  24.0160561   3.0611439
  38.8361740  70.8249435  18.5164509  38.6430969  69.9472504  18.8459988
  39.7879028  70.8387680  18.4151859  25.5437603   7.3373208  68.0317154
  26.1006088   7.0923057  68.7707214  25.8395004   6.7782121  67.3132706
  37.0297241  11.2350788  39.3685379  36.8635597  11.6522856  38.5232239
  37.8842392  10.8163424  39.2651100  28.4561176  31.5674934  85.9648056
  28.2072449  31.8842945  86.8330994  28.9638710  30.7742672  86.1357193
  24.4731579  53.4613152  67.9418411  25.0562954  54.1006508  67.5326614
  24.1887474  53.8815727  68.7534637   5.2979894  57.2419319  56.0999260
   6.0372863  57.1476898  56.7005844   5.6978559  57.4797440  55.2633934
  42.4158936   9.2116766  18.4838448  42.0234108   9.7746859  17.8166046
  42.7569962   8.4627981  17.9949036  47.5809517   0.3452543  45.8889961
  47.0162125   0.3872843  46.6607056  48.4535751   0.1679381  46.2401657
  60.2599525  46.9990768  52.7979660  60.4413147  47.7714386  53.3335037
  59.5301704  46.5663338  53.2411194  85.2025909  10.0708380  24.8004951
  85.1732712  10.7460556  24.1226654  84.8110886   9.3006611  24.3884487
  36.0560150   0.5764898  54.2911606  36.1635857   1.5268492  54.3296051
  35.1247292   0.4479473  54.1111221  36.5047226  22.7234020  26.5633392
  35.8080292  23.0833607  27.1122303  36.5672226  21.8053646  26.8270302
  31.8795528   8.8210974  36.6200600  31.2965107   9.5559082  36.8107147
  31.7989960   8.6903124  35.6752663  38.7416000  41.8289223  26.8858166
  39.5783539  42.1412315  27.2301102  38.0931206  42.1313972  27.5215950
  35.9451981   6.5614257   4.2880764  36.6360130   6.2165856   4.8538389
  35.2252808   6.7641363   4.8854542  60.8115463  63.4184341  62.3266487
  60.8563118  63.8713493  61.4845695  61.7240753  63.3383102  62.6043205
  11.2527285  19.1440678  35.9312286  10.3088341  18.9902096  35.8909340
  11.4153881  19.8109684  35.2641373  30.2887287  23.2203255  75.2080154
  29.6298676  23.4517078  75.8626938  30.1021099  22.3064461  74.9930115
  36.8757210  27.9214630  23.3316574  37.1206398  27.0463676  23.6324081
  37.0561371  28.4909744  24.0795498  58.7490730   4.4336920   2.5013142
  58.4746590   5.3461485   2.4099228  59.7047119   4.4735746   2.5386548
  19.5774250  32.5188065  17.8689117  19.2214527  33.3981400  17.7412777
  18.8238716  31.9915371  18.1342010  52.4982491  45.7670860  38.1067162
  52.4163170  46.6862640  37.8524933  53.1851387  45.7632675  38.7733459
  55.8801804  47.5707207   4.2295175  56.4338646  46.9646187   4.7217641
  56.4489708  47.9055443   3.5362625  29.3993454  66.0956802  18.5674934
  28.5648746  65.7302170  18.8613033  29.4185562  66.9776917  18.9388695
  64.9239044  16.5678444  45.8586807  64.7788544  16.6232548  46.8032036
  64.9340286  17.4785271  45.5640831  69.9787979  62.9187393   7.1563530
  70.7842255  62.4079781   7.0748272  70.2710953  63.7816849   7.4498110
   7.0141006  25.1169949  25.5072498   7.1449180  25.5593014  26.3459892
   6.1962457  25.4817200  25.1691360   7.4292140  56.9803963   5.6037970
   7.6710653  57.0332794   4.6791658   7.9742656  57.6405029   6.0320635
  50.7781754  37.3757057  81.9916306  51.0892868  36.5333481  81.6601639
  49.9821053  37.5512657  81.4899597  33.1726952  20.3975525  13.8131142
  33.8009529  20.0723476  13.1683149  32.8022232  19.6073418  14.2062435
  66.1942368  67.0641556  37.5889587  65.8563766  67.4232788  36.7685242
  65.4119339  66.8224945  38.0847740  53.1375656  44.3168755  88.4515457
  53.8587494  43.8342323  88.0475845  53.5265846  45.1497040  88.7185440
  73.8101654  52.9055443  58.6689072  74.7611542  52.8470154  58.7607002
  73.5844345  52.2015152  58.0609398  70.7859497  37.4029427  60.9625740
  71.0948639  36.5866928  60.5694656  70.2245255  37.1231346  61.6855812
  84.3400269  59.1533508   9.5400448  85.1812286  59.1959953   9.9947920
  83.8432846  58.4886055  10.0171165  40.9216576   2.0455008   9.8029070
  40.5528450   1.7748032  10.6436977  41.8511124   2.1862733   9.9832640
  77.8121033  24.9615269   6.7926502  77.1862793  25.4672356   7.3111358
  78.4716721  24.6761608   7.4249263  45.7705498  43.3761597  20.0827160
  46.2109337  42.5264359  20.0989437  45.2666054  43.3692436  19.2689438
  53.9252777  63.3550949  50.8296623  53.5392380  62.6752777  51.3819733
  54.8691673  63.2108688  50.8967819  80.7622147  60.6315765  78.8777847
  80.0247879  60.1168861  78.5498657  81.4852829  60.0066795  78.9316940
  52.1824150  14.6738176  54.8721924  51.7367897  15.5122700  54.7511673
  52.9688721  14.7402020  54.3306122  54.1225471  44.2058525  48.4649658
  54.6023521  43.7870598  49.1795502  54.0356712  43.5214920  47.8013916
  66.8313370  47.7861481  49.0126953  66.2751236  47.0787735  49.3390007
  66.7122040  48.4953384  49.6444244   9.2239122  33.3911858  72.3632431
   9.9527855  32.7708397  72.3753586   9.2058926  33.7220421  71.4652252
  75.3450928  69.1022034  37.7788963  75.0812836  69.7417908  38.4403839
  75.0294037  68.2640991  38.1167679  20.2160378  18.5284405  70.3963013
  19.6738205  19.3155746  70.3447647  21.0242233  18.7640724  69.9407349
  34.2131500  16.5488491  71.6053696  33.2825165  16.7447262  71.4968185
  34.4993591  17.1291351  72.3107605  71.7804031  67.7322845  55.5295219
  71.0392838  67.1587601  55.3344765  72.4079742  67.5597610  54.8276482
  13.6618509   4.6481166  53.2019920  13.0724497   4.4186525  52.4835320
  14.5290565   4.3852725  52.8936119  75.8361664  60.1096115  35.7236900
  74.9254608  59.8542900  35.5765038  76.2550049  59.3183403  36.0623589
   2.1684604  68.6280289  25.2717037   1.5990859  68.2733917  25.9545479
   2.7871203  69.1868439  25.7420406  62.9986725  25.8435440   9.3690739
  62.3904495  26.5814590   9.4112196  63.7107391  26.1517925   8.8085613
   1.0056651   5.6766014  20.0038090   0.5688906   4.8543234  19.7817307
   1.7225875   5.7448974  19.3732605  11.3035297  48.0507278  39.5100670
  12.0130529  48.3542480  38.9437790  10.5111523  48.4196472  39.1198540
  53.5978584  40.8052864   9.6450472  54.0538292  41.1635780   8.8835030
  53.7995644  41.4158325  10.3541155  66.5542297  10.6747246  59.9400063
  67.1735077  10.1851711  59.3986549  66.7917480  10.4489689  60.8393669
   4.2538738  66.1316833  29.0880203   4.7990479  66.7444153  29.5815620
   3.3590295  66.4418411  29.2269039  75.3590088  33.9602585  81.1954575
  74.9541245  34.8241730  81.1182785  74.7677383  33.3754425  80.7215118
  79.1823883  50.5786514  86.3021545  78.3675766  50.8420067  85.8744125
  79.2134933  49.6281281  86.1936646  76.4797745  14.2160511  11.3905792
  76.6005020  13.2869644  11.5866776  75.6374054  14.4371786  11.7877455
  68.9132462  69.7739410  63.2233391  69.0631790  68.9812775  62.7081337
  68.9553833  70.4860077  62.5850449  61.9154243  28.7418194  36.1379929
  62.3116455  28.3876152  35.3418922  61.0228386  28.3961067  36.1355438
  76.7943420  58.4131050  75.0210190  77.3176346  58.4389610  74.2199402
  77.1155624  57.6443291  75.4922256  52.9417725  38.6138802  74.3010025
  52.3832588  38.4182396  73.5486603  52.7620201  39.5326920  74.5002518
  68.3679276  17.9074554  72.6948547  68.1278076  17.4030437  73.4721222
  67.5339737  18.0954285  72.2642517  77.7390823  49.1356850  46.8036575
  76.8284607  49.3200417  47.0339088  78.2052612  49.9479980  47.0012703
  74.5107727  16.3788700  43.9235535  74.4828720  15.4397230  43.7406425
  73.6016922  16.6664219  43.8391953  72.9720154   3.7897942  12.2932291
  72.9518051   2.9222894  11.8891764  72.1927414   4.2301879  11.9540787
  38.3288345  39.8709373  20.3837547  38.0017166  40.4985352  21.0282269
  38.3660431  40.3656464  19.5651512  67.8476486  26.4531498  87.5089493
  68.1072617  26.8145790  88.3564224  68.4983292  26.7924919  86.8943787
  82.6329041  57.2541237  28.3312798  83.4795227  57.5860748  28.6300659
  82.2074661  56.9329300  29.1263084  54.0261536  29.6592178  23.9419632
  54.5262260  28.8821011  23.6924591  53.1120605  29.3774471  23.9063644
  59.0851860  40.8658028  57.4655876  58.4806786  41.6077728  57.4825134
  58.8808594  40.4089546  56.6496429  59.6035919  35.0889282  53.3488617
  60.5439873  35.2635651  53.3861504  59.4005699  35.0690804  52.4136505
  72.9979401  27.5550709  79.5494080  72.9263992  26.8006992  78.9645691
  73.2074280  27.1769943  80.4034653  85.5614777  32.2274704  72.5466156
  84.7746429  32.4534683  73.0426407  85.2375259  31.7231483  71.8003235
   0.8792092  11.9273014  77.9535217   0.9636399  12.8688993  77.8035355
   0.6950726  11.8494434  78.8896103  60.8968506  25.2970715  22.0760136
  61.2044792  25.7414188  22.8660450  60.3915215  24.5521603  22.4015617
  40.9771576   2.6616876  14.4064398  41.9336891   2.6284719  14.4194822
  40.7188835   2.4811289  15.3102789  79.7183914   9.0485239  67.0444412
  79.6355896   8.6526489  67.9119949  80.3689728   8.5084190  66.5958176
  68.8951263  35.0499840  32.9990082  69.3778458  34.2575264  32.7639999
  68.2398911  34.7529144  33.6303902  52.1193275  60.9345970  74.3688202
  51.9049377  61.2276077  73.4831543  51.8781548  60.0083427  74.3796158
  11.8235207  56.4157181  -0.0299533  11.5429001  56.8484650   0.7764044
  12.4024849  55.7126465   0.2645335  67.5262985   5.1863575  82.2848969
  68.0100861   5.0183306  83.0935745  66.7547913   5.6787071  82.5652466
  40.5314064  16.5103989  72.2160263  39.7579308  16.8388729  71.7576981
  40.2012215  15.7970142  72.7621918  35.8313866  36.9902115  10.2191353
  35.1594086  37.1482887   9.5560446  36.5551338  36.5911064   9.7362909
   0.8749392  22.3305397  13.8018427   0.4055138  21.7425861  14.3936052
   1.4152702  21.7498264  13.2660751  49.5899162  19.6874714   9.2775002
  48.6856918  19.9170761   9.0632849  49.7693939  20.1562061  10.0925522
  60.5982628  31.9625149  64.3537979  60.7065582  31.2805576  63.6908913
  61.1744461  31.6943970  65.0695877   9.5815620  71.3849869  77.8501816
   9.7293491  70.4806900  77.5733643   8.8265686  71.3356400  78.4365082
  18.4875889  67.8869476  74.1652374  17.6272488  67.5320129  73.9414749
  19.0316124  67.6958542  73.4011993  16.1779385  62.9130058  18.2124043
  16.0046711  61.9727364  18.1665745  16.1542683  63.2056007  17.3013287
  49.6035652  10.2582121  31.1528282  50.2996597   9.6063232  31.0708122
  48.8065186   9.7430906  31.2777290  52.6354790  71.1447678  23.3296700
  52.8039513  71.9491425  23.8204098  51.7306366  70.9181900  23.5445080
  10.5968370  43.4591064  21.0379715  11.0117970  44.2562523  20.7084255
  10.5248384  42.8916855  20.2704563  69.5395432  58.7992630  61.1797104
  69.7235031  58.0881233  60.5659790  68.8931808  59.3430443  60.7294312
   0.7768841  38.7121544  23.3734436   1.2957047  39.2431374  22.7691975
   1.2737348  38.7258224  24.1914806  78.2448730   5.1258235  29.1378975
  77.3336563   4.8596311  29.2605705  78.4095535   4.9931402  28.2043514
  52.5952682  27.8151970  29.0491562  51.7367859  28.1359196  28.7727947
  52.4497261  27.4696999  29.9298840  34.2732811  49.2949562   3.1825933
  34.9382477  49.6707497   2.6056812  33.4649391  49.7485771   2.9437501
  65.3970413  52.2026787  28.4552803  64.5334320  51.8136940  28.3170891
  65.6101685  51.9956169  29.3651886  56.6728897   1.1313723  29.2093201
  57.3522034   0.4859054  29.0140285  55.9724236   0.6249429  29.6205502
  71.7212906  61.0649567  37.1889191  72.4477692  61.6602173  37.0041924
  72.0421677  60.5084000  37.8985023  72.0959702  36.3768806  33.0884972
  71.3340836  36.7463722  32.6421471  72.5958099  37.1393471  33.3801231
  82.2668991  14.8606863   6.0536799  82.5546722  14.4017286   5.2645197
  82.1774750  14.1718044   6.7122216  37.4180870   4.9269404  79.0088120
  36.8844795   4.6228333  79.7429886  38.2757607   4.5276985  79.1545410
  -0.0140643  67.1774750  53.5048981   0.5906850  66.6723480  52.9614296
  -0.5313638  67.6849060  52.8794785  13.2022057  65.7804642  28.4213219
  12.6192627  65.3953171  27.7670517  14.0032282  65.2595139  28.3646984
  72.4783554  18.4810886   4.6279216  71.6795654  18.3365231   5.1351314
  72.2955322  19.2661972   4.1117692  12.2197876  43.7515678  17.2898636
  11.3457870  43.4634933  17.5532436  12.1036072  44.0872307  16.4010086
  49.6685944  60.4326210  52.8788643  49.7091484  59.7146225  53.5105782
  48.8842583  60.9234238  53.1241341  13.8847818  16.6667004  82.7396240
  13.3955803  16.9504128  81.9673462  14.1676245  17.4806843  83.1563568
   4.7104397  41.9862862   1.9894919   4.2143712  41.2822723   1.5717461
   4.7029028  41.7647095   2.9206626  76.7471008  27.9684734  20.3191547
  75.9409943  27.8780479  20.8273315  77.0938416  28.8245640  20.5703754
  52.3675537  11.8208990  32.9740791  52.1731033  12.1595039  32.1001434
  52.1249733  12.5327816  33.5662041  20.0034161  31.5961781  73.1751099
  19.8533249  30.7225494  73.5363235  19.4485645  32.1716270  73.7016373
   5.1255765   5.1934137  19.8042240   4.5113339   5.2554650  19.0727272
   5.0334682   4.2940474  20.1186886  65.1123047   9.7931461  68.9563522
  64.3635712   9.2857380  69.2696762  64.9748688   9.8644905  68.0117645
  30.0249767  16.5934715  88.4808655  29.2855167  17.0089493  88.9244995
  29.8522530  15.6549206  88.5551682  42.5309715  14.8681698  53.2558479
  43.4754143  14.8116999  53.1106873  42.1454773  14.6808414  52.3999672
  67.8645020  64.1231461   0.9144038  68.4163361  63.8385162   0.1859158
  67.2997818  63.3716621   1.0949523  73.7300873  70.4621353  46.2078857
  74.0136337  70.3604660  47.1164513  73.9506454  71.3672562  45.9880142
  68.7533951  24.2118626   4.9187365  69.3500290  23.9492683   4.2178025
  69.2899323  24.7497692   5.5009894  30.6455288   9.1493301  59.2665329
  29.8929329   9.7357397  59.1893539  30.6584663   8.8964691  60.1896400
  33.1178398  14.4352331   7.9062753  32.3186035  14.6749830   8.3752861
  32.8275833  13.8093233   7.2427855  13.0804157  69.6477127  32.7627106
  13.1387053  69.4631119  31.8252888  13.9831581  69.5876160  33.0752449
  37.5439301   6.1081691  88.5807343  37.9813271   6.7591410  88.0319595
  37.2111816   5.4579988  87.9620361  69.1667862   9.4199362  15.2688189
  69.0141068   9.3573589  14.3259487  68.4704590   8.8921785  15.6597576
  47.9798737  55.7031746  83.5861206  47.9853745  54.8683586  84.0544052
  48.8204269  56.1057587  83.8043671  57.4264450  19.8117638  49.7365990
  57.4049835  19.1717567  50.4480515  56.8580093  20.5214710  50.0356483
  57.1520462  43.5165977  47.8713722  56.5232010  43.3279877  47.1747971
  56.6645622  43.3662224  48.6812973  46.9686165  22.8987198  19.3736286
  47.4942970  23.6064873  19.0008583  47.1374779  22.9450169  20.3146782
  72.7088242  68.7643127  85.5363464  72.5936813  68.4612503  86.4369736
  72.8471985  69.7080154  85.6170425  13.9968319  23.8397427   8.9194040
  14.9335785  23.6495857   8.9701710  13.5724125  22.9956646   9.0731287
  59.4677505  19.9796276  70.2624969  59.4796562  20.5979366  69.5318909
  58.5982437  19.5811634  70.2249069  49.6350594   6.0646882  18.5232372
  49.7533951   6.7486563  19.1823406  49.9857750   5.2739267  18.9330254
  33.2789192  10.2167339  75.3649368  33.0478020   9.9075785  76.2408600
  33.3664551  11.1650686  75.4610138  18.8228359  11.5088091  21.9114037
  19.1349373  10.6784372  21.5518131  18.0809250  11.7468281  21.3553944
  11.6647997   5.4663444  86.4097595  12.1648045   5.9642401  87.0565414
  11.4292173   4.6558895  86.8613052  65.6267776  28.1225891  52.2511711
  64.8549118  28.0620270  52.8140144  65.3269653  28.6124439  51.4854088
  38.3609085  58.8641548  62.1669083  38.2836418  58.4109383  61.3273506
  37.8188667  59.6467896  62.0673790  76.4846573  53.2142792  40.2923813
  77.3978653  53.2775383  40.0125923  76.5144806  53.3489647  41.2395897
  50.2291679  70.6218643  85.4939041  51.0647087  70.6368713  85.0271301
  50.2083817  69.7651443  85.9203110  23.6119118  59.4753151  79.4088364
  23.7707691  60.3460693  79.0444412  24.2351227  59.4007645  80.1315308
  57.3297539  57.6111107  36.2459183  57.7921562  57.7528915  37.0719414
  56.7170067  56.9000435  36.4334297  50.3904800  65.2557144  62.0578461
  51.2736397  65.5314865  61.8124619  50.2879105  65.5563354  62.9608078
  51.9788094  14.3921413  62.5924301  51.1077423  14.7884016  62.6136703
  52.2925415  14.5509558  61.7021561  73.9173431  67.6967545  76.7535782
  73.6002808  68.3568802  77.3699646  74.4211197  67.0874939  77.2932510
  80.1792984  22.0125389  27.9175167  79.8267136  21.2657032  27.4336243
  80.0054855  21.8064804  28.8359737  68.6290207  47.0685959  33.7781906
  68.9885559  46.2041817  33.5788155  69.3853836  47.6546173  33.7513084
  74.7524719  27.1791439  57.4910278  74.9311600  27.7545071  58.2348442
  74.7189865  26.3008881  57.8702087  12.7144194  16.4988823  51.7496109
  11.9059277  16.0715313  52.0323563  12.8878050  17.1543598  52.4252739
  21.3740807  47.0035286  57.0093460  20.6855850  46.5191498  57.4649620
  21.8450756  47.4619293  57.7052383   9.9697056   5.7554517  56.1679344
  10.3024263   6.3219771  55.4718208  10.1322470   6.2456160  56.9738846
  21.1020298  28.6192970  76.7305603  21.2827282  29.5365620  76.9360046
  20.8543777  28.2302780  77.5693512  75.7414017   1.4386839   9.2750206
  76.6604614   1.6259370   9.4660788  75.7623062   0.9532069   8.4503345
   8.6661224   2.2528989  29.7180576   9.4131804   2.3266218  29.1241703
   7.9289169   2.6070254  29.2207108  79.9543991  -0.0668683  53.9338951
  80.2834167   0.8254811  54.0420227  79.3495483  -0.0111317  53.1941071
  65.5988693  44.6074295  82.7240448  65.4229584  45.4595184  83.1230850
  65.3147659  43.9720039  83.3811264  63.0707741  41.5713501  25.9488773
  62.9527817  41.9514465  25.0783386  63.3317184  40.6657486  25.7814598
  61.7765961  34.5301285  74.0039444  61.1992264  34.5991898  73.2436066
  61.7376823  33.6062088  74.2510986  22.5207462  22.1085224  71.7564087
  22.7021694  21.7437382  70.8902359  22.8695793  21.4595566  72.3674622
  56.7215347  14.7930355  25.3971786  56.4093132  14.7655125  24.4927502
  55.9312363  14.6869459  25.9267139  62.3357048   8.4750481  34.6197205
  62.2611008   8.5314236  35.5723457  61.6656227   9.0744104  34.2911110
  20.9822960  48.7765427  73.5459824  20.7896099  48.9140549  72.6185150
  21.9365788  48.7132072  73.5855255   0.1918093  53.7486992   5.7647090
  -0.5461816  53.1515427   5.8872004   0.5582940  53.8596535   6.6419835
  30.7689896  29.1329689  18.7869072  30.6238956  29.6454105  19.5822582
  31.4858093  28.5397568  19.0116253  54.3452950   6.7649183  28.7349415
  53.9244347   6.3393388  29.4819298  55.2622261   6.8533764  28.9950314
  14.6626167  17.6933784  73.9220047  15.0696878  16.9222317  73.5272217
  13.7289124  17.5925579  73.7369080  69.8272934  11.4951773  42.7241631
  69.8076096  10.8225937  43.4049530  69.8511047  11.0040636  41.9029007
  69.0706558  26.3375568  11.6283636  68.6172485  26.7198219  12.3797140
  69.5278931  27.0748959  11.2240181  29.9743366  52.6830063  52.3374405
  30.5847378  53.2147484  52.8482170  29.4157448  53.3204155  51.8925591
   4.2073946  41.3449554  76.9787827   3.8448532  41.5963860  77.8282394
   4.8605628  40.6764755  77.1855240   6.0147033  32.9329185  23.8594360
   6.7058005  33.5289459  23.5707054   6.2866511  32.0750160  23.5334263
  86.6721039  60.4721527  10.6044044  87.2632599  61.1680717  10.3172455
  85.9849319  60.9272728  11.0911150  20.1803017  43.8163338   1.8331027
  19.8815708  44.0020103   0.9428685  21.1140175  44.0267220   1.8211899
  70.3429794  56.2963829  59.5274849  71.0503387  56.9228745  59.3745537
  70.7783356  55.5300179  59.9008141  65.9144592  67.6642761  74.7310333
  66.7414627  67.1831741  74.7600327  65.3603821  67.1528244  74.1414185
   2.4424260  66.8218155  62.7562408   2.7495434  67.7238693  62.6656380
   2.9603908  66.4637299  63.4771538  67.2095413  55.6126480  70.8121338
  67.1110992  54.7113800  70.5051193  66.8395233  56.1468468  70.1093140
  78.3775101  43.0729752  13.0531416  78.3679199  43.1555481  14.0067253
  77.5947113  43.5419998  12.7642336  38.8405228  61.3000984  30.8319302
  37.9238968  61.4604912  30.6076488  39.0994492  62.0663223  31.3438778
  55.5494919  14.3056355  58.3526611  54.8944511  13.6751328  58.0532951
  55.7515106  14.0342207  59.2480698  81.4432068  53.7530899  41.4835625
  80.5841522  53.9840126  41.1301041  81.6220169  52.8822784  41.1286659
  13.0822353  58.6357307  84.8882828  12.1609535  58.6313400  84.6285706
  13.2572746  59.5439415  85.1347504  73.8173370   1.5853345  22.4572239
  74.3317871   0.9554310  22.9619961  73.3422318   2.0901797  23.1172504
  38.5298805  14.9481468  27.6422749  37.6160240  15.0741425  27.8976669
  38.7941399  15.7913151  27.2742176  73.3702850  21.2337418  12.6268768
  74.0437927  20.5739422  12.7920580  73.3229752  21.7364941  13.4400396
  79.8138275  53.1220284  76.7011566  80.3368454  53.6914024  76.1367950
  79.5250549  52.4139633  76.1254120  37.7543335  70.4385376  43.3797379
  38.6593819  70.7155838  43.2370224  37.7026367  69.5720673  42.9762688
  69.8200378  19.0469170  42.2595596  69.7967453  19.4604111  41.3965912
  69.1161957  18.3987160  42.2336349  11.6653185  68.2737503  36.5791130
  10.7637739  67.9531021  36.5540123  11.6351433  69.1099548  36.1142616
  30.5805626  61.2269859  64.8640823  30.8731689  61.1215591  63.9588203
  30.3636589  60.3397865  65.1505508  43.1454010  62.2496719  15.2990198
  43.6427689  62.7716484  14.6694145  42.5433197  62.8734894  15.7047052
  37.2400513   8.3571053  64.2252197  36.6935539   7.8501263  63.6247635
  38.1376495   8.1452866  63.9689369  13.6717873  69.4639206   5.7777753
  12.9977140  69.0668182   6.3292904  14.4209166  69.5810318   6.3620043
   3.8141029  26.6673584  16.5711136   3.5107236  27.3397808  17.1810665
   3.0288477  26.1612701  16.3625965  57.4488144  19.7644520  78.5685043
  58.1411514  20.3459587  78.8827515  57.9114838  19.0824947  78.0815735
  24.7563419   5.4011788  12.3510923  24.1058998   6.0974903  12.4422350
  24.2578487   4.5916748  12.4626312   6.5284042  14.6753283  48.1031914
   7.0354600  14.7922716  48.9065895   6.1102881  15.5240812  47.9581718
  41.2045059  29.9923763  82.1391678  41.6117706  29.1499271  82.3407745
  40.5062180  30.0821362  82.7876816  41.4407997  62.7374153  54.5220070
  41.4714050  63.2890930  55.3036385  42.2824020  62.8859787  54.0908852
  21.6759624  53.2541771   2.7088244  21.6178703  52.8987846   3.5957034
  21.9882412  54.1508408   2.8300891   2.4657271  44.2255783  26.3390369
   3.1354489  44.8226509  26.0055523   1.7708569  44.8003273  26.6600571
  41.5346756  64.3174210  14.3651619  40.7808609  63.8319740  14.7003384
  41.4778252  64.2215652  13.4144716  28.0636597  63.6934624  67.3287125
  28.2927113  62.7650452  67.2862091  27.4221287  63.8141785  66.6286469
  74.4250717  62.5311852  43.4723930  74.9811478  62.4486351  42.6976700
  74.6005707  63.4131737  43.8003082  62.7570114  65.1915359  46.4282112
  63.4213829  64.7769012  45.8778305  62.1574440  65.6067200  45.8082314
   8.3848848  32.6859550  16.4689884   7.8009391  32.6960182  17.2273674
   8.6406803  31.7682858  16.3758221  63.8983879  60.0487251  11.4032097
  64.8435516  59.9370461  11.3011074  63.6811562  60.7853889  10.8319216
   7.0741739  68.4154129  11.5116100   7.6135721  68.2884979  10.7311125
   7.1744051  69.3434143  11.7237225  51.3752480  63.0185852  72.1985397
  51.5580215  63.8641586  72.6082153  51.6323013  63.1350327  71.2838898
  29.2867107  44.8160324  88.4052734  28.9286690  44.0680008  88.8832779
  30.0673809  44.4716492  87.9714737  61.5378380  10.7350388  59.2916107
  61.4007874  11.3296080  60.0291290  61.5341797  11.3036928  58.5216446
  66.0669632   9.1126795  88.3767166  66.9843826   8.9361973  88.5850983
  66.0924988   9.8965864  87.8280182  11.6468687  55.9917603  82.5551147
  12.5617504  55.7102966  82.5543671  11.2309179  55.4560661  81.8796539
  56.7311668   3.8075862  29.2543373  56.8176308   2.9711275  28.7970715
  56.3657188   3.5769808  30.1084442  55.6212463  13.4321203  81.6745758
  56.4473000  13.2421522  82.1193008  55.0367622  13.7296000  82.3717957
  17.9777336  10.0920744  85.1568298  17.6122665  10.9759512  85.1190643
  18.9084129  10.2251978  85.3366852  44.9446678  38.8370590  13.0506458
  45.0142097  37.9605827  13.4290400  45.4705124  39.3898926  13.6286573
  60.8586121   5.2750645  16.3817253  61.6515350   4.7655730  16.5488377
  60.9792595   6.0787063  16.8875275   5.5056262   5.1739168  64.8850784
   5.7292714   4.8213410  64.0237350   4.9684367   4.4932041  65.2904053
  44.5758095  39.4309006   5.3935456  44.2717438  39.8918648   4.6116986
  45.5201111  39.3400459   5.2659636  43.4957886   4.2261906  46.3225784
  43.7522316   5.1461940  46.3863144  44.2764244   3.7408960  46.5896454
  34.1152916   9.2857924  69.8083878  33.9739418   8.9161196  70.6799316
  34.6249313  10.0807266  69.9651642  66.8922729  22.1433945  31.1666622
  66.1504211  22.6488838  31.4988708  67.3427963  22.7423420  30.5712433
  58.6552048   5.5806503  66.8375397  58.8787498   6.5003929  66.6949387
  57.7028275   5.5777311  66.9334641  64.8784637  68.0003738  42.0923119
  65.0178757  68.8852692  42.4295921  64.3914490  67.5540009  42.7849846
  19.3241959  20.9853287  69.3453827  18.9389477  21.8380470  69.5470963
  20.0530415  21.1847439  68.7578049   6.4268837  15.8290415  16.9715443
   7.3320484  15.5296936  17.0569801   5.9717522  15.0989408  16.5519733
  37.5043373  61.0946426  74.7290421  37.3808975  60.1598701  74.5641174
  36.6858101  61.4987907  74.4411163  56.6851578  18.4155598  72.2768250
  55.7912521  18.4914360  72.6106110  57.2274933  18.3328457  73.0612183
  43.7091446  24.8772297   0.4058070  43.7319450  24.5780010   1.3147480
  42.8867569  24.5303459   0.0600094  18.5412960  24.8847485  58.7866211
  18.9027882  24.0212746  58.5867043  17.6009521  24.7919884  58.6337128
  57.9813309  45.8930244   5.1588559  58.3673286  46.4078026   5.8675456
  58.7112541  45.7181053   4.5648508  79.9167480  24.6494884  28.9390831
  80.1608963  23.8751144  28.4321613  80.6969604  25.2037029  28.9204998
   4.1622367  55.5812073  64.1596069   4.3398948  54.8892593  63.5225220
   3.6615489  55.1476860  64.8507004  85.5822906  68.9631348  51.7521973
  85.5445480  69.0233231  50.7976341  84.8577499  69.5101852  52.0555153
   0.6040210  70.5047836  31.4071655   1.3427356  70.9369278  31.8358631
   0.7111975  70.7119827  30.4788265  72.9691620  32.6232643  58.4116402
  73.3120270  32.9299240  57.5722122  72.0437012  32.4469261  58.2423325
  52.0594864   3.6008775  84.1998444  52.7345200   2.9872444  84.4897003
  51.2342300   3.1457124  84.3671951   5.4677644  55.2467918  20.6705704
   4.9636612  55.4278717  19.8772717   4.9852495  54.5439148  21.1057434
  66.3837509  55.3981743  81.6473389  66.3791275  54.5048943  81.9912338
  66.9199295  55.3474121  80.8560257  83.6121826  28.6724720  82.9028778
  83.1985168  28.6381493  82.0403595  84.4529266  29.1031532  82.7483215
  11.1672544  45.7380638  55.2260704  11.1842890  46.6950722  55.2175636
  10.4073296  45.5072823  54.6917610  11.7055655  16.8526936  66.9473267
  12.0222740  17.7061653  66.6515045  12.4798117  16.2901878  66.9283600
   3.8311229  64.5468979   3.6750269   4.1463308  63.6617661   3.4922228
   4.6147165  65.0946350   3.6281712  61.5566673  36.1376877  25.6269360
  61.2743683  35.8302994  24.7655144  61.2742043  35.4507828  26.2307606
  43.7411499  58.8207779  58.6764259  42.9722443  58.6268005  59.2125130
  44.4618454  58.8793221  59.3036461  33.0070381  21.9204082   8.8935900
  32.5909004  22.2770023   8.1087971  32.4466934  22.2089996   9.6139765
  51.3427696   2.1663663  55.7376976  51.5037193   3.0106676  55.3164139
  50.9130745   1.6402416  55.0633202  82.8741226  29.6295834  60.8053932
  82.7019958  29.3691063  59.9005394  83.7855377  29.3796711  60.9573288
   5.5065646  57.5017815  39.3472824   5.9604249  58.2834282  39.6623535
   5.5036540  57.5942001  38.3945580   3.9000292   1.7957708  70.3332596
   4.2652555   1.1383011  70.9253540   3.8960016   1.3701352  69.4759064
  27.2321606   8.3115273  31.0309544  26.6869659   8.1677990  30.2574329
  26.6510773   8.1323614  31.7701931  84.8320541  62.2789192  78.0514221
  85.4037094  61.9396324  78.7401352  85.3587265  62.9448738  77.6094437
  32.9337692  66.5777283  60.7463493  32.9039116  66.2603149  61.6488991
  33.8122711  66.9455872  60.6507683  34.0846901  43.8420334  84.8870010
  34.5823364  43.9350662  85.6993637  33.4498558  44.5579987  84.9116898
   2.1690190  37.0714378  74.9916382   2.6118999  36.4207802  74.4468994
   2.8276737  37.3336639  75.6347885  27.2339611  24.4422779  22.6780453
  26.9954395  23.5233860  22.8004303  27.7917805  24.4433784  21.9001846
  26.0005093  59.1057587  36.7843056  26.3107910  58.2006912  36.7559013
  25.6389065  59.2624741  35.9119987  42.8573799  60.5108757  83.8356247
  42.3352280  61.1402969  83.3382034  42.4187431  60.4535789  84.6844711
  78.1828842  18.6333790   8.5868826  77.7403641  19.4133167   8.2520590
  79.0853882  18.7196751   8.2798357  51.3676300  67.6241226  70.7430191
  51.3416977  66.7157593  71.0437317  50.9463921  67.6040649  69.8837204
  43.1954155  66.7767334  78.3681107  42.9664116  66.1686249  77.6652679
  44.0426140  66.4658508  78.6872406  82.0168686  11.3427258   0.0277235
  81.1005630  11.5077686  -0.1944842  82.0684280  11.5075016   0.9692233
  78.4585724  13.1859608  62.0058861  77.6139755  13.4201403  62.3906441
  78.2746887  12.4074440  61.4802132  56.6340942  53.2809486  24.7567654
  56.6782608  54.0373459  24.1718330  55.9549789  52.7236252  24.3767376
  17.0357704  71.5382233  20.6007843  17.6816788  70.8409729  20.7142639
  17.2957096  72.2103653  21.2307777  84.9567719  12.0730896   6.1099291
  84.7750931  11.1610966   5.8830104  84.3712387  12.5808859   5.5482168
  65.7918625  62.9614944  23.6923656  65.8897018  63.3742142  24.5504589
  64.8623352  63.0574532  23.4850178  60.0186844  23.0288868  43.4492493
  59.1366005  22.8657780  43.7832489  60.5290604  22.2738838  43.7420235
  57.7877235  60.7270889  37.0717354  57.1766853  61.4416656  37.2513084
  58.4749870  61.1277161  36.5393829   2.3018489  15.0620670  11.0769081
   1.6930017  15.5196562  11.6566916   2.2826731  15.5662098  10.2634554
  72.7026825  60.4330711  27.1187172  73.6163940  60.2559242  26.8951454
  72.4402695  59.6892700  27.6610527  85.1603470  54.3683624  23.1795902
  85.8388519  53.8081818  22.8026829  85.3614655  55.2437859  22.8488007
   0.5485929  28.3290939  25.5053329   0.8191077  27.8158703  26.2666817
   1.0767298  29.1259403  25.5537090   5.6964402  57.8067551   7.4190249
   6.2636051  57.2475014   6.8881845   5.0928569  57.1990089   7.8462982
  44.8081474  14.0694475   8.5233679  44.0634766  14.4799395   8.9629002
  45.5215912  14.6999846   8.6216316  62.6567001  44.7409134   7.9874768
  63.5623283  44.6552391   7.6896009  62.6429367  45.5621109   8.4790812
  14.4778814  41.1534920  66.2786331  14.4728727  40.5398712  67.0132599
  13.9306240  40.7355690  65.6137390  25.1533451  59.5216408  50.5067673
  25.3389378  60.4601784  50.5374222  24.5514221  59.3725777  51.2359467
  42.1606941  47.8296928   9.9319086  42.9350967  47.8488007   9.3696232
  41.8142891  46.9429359   9.8324242  37.3157806  21.4782543  33.3835640
  37.8374557  20.9560966  33.9930229  36.9660187  22.1913776  33.9177513
   7.0726976  66.7983932  40.2869263   7.9702473  66.9194336  39.9771118
   6.5306377  67.2246857  39.6230927  18.0491924  71.3830185  25.0594006
  17.7681828  72.2974777  25.0915909  17.6939545  70.9950027  25.8590736
  44.9669495  66.6522980   6.6662974  44.6313744  67.3716736   6.1313982
  45.6063538  67.0640564   7.2475400  57.2073784  64.0396881  32.8162003
  57.2989120  64.1539993  31.8702698  56.2916718  63.7897835  32.9397545
  71.5318909  22.9583397  46.3097649  71.0548935  22.1284618  46.3073959
  71.2133560  23.4199028  45.5340538  10.5747890  18.2866306  84.0057831
  11.2989912  18.7381401  84.4392624   9.9889784  18.9891701  83.7238388
  46.9862671   1.2920696  54.7121315  47.2721100   0.4310068  55.0172462
  46.0305138   1.2538811  54.7483597  67.0926285  10.9276114  39.9763908
  67.8149643  10.4128561  40.3362465  67.5117264  11.5346794  39.3664284
  34.3722000  63.0986443  86.4933701  35.2960625  62.9273453  86.3107147
  34.3245392  63.1628532  87.4472275  25.2279263  33.6006584  73.1414032
  26.1306782  33.8948288  73.2627869  24.9198532  33.4018822  74.0256042
  71.5158386  30.5424404  37.1786156  71.2080765  31.4313908  37.0017586
  70.8564606  29.9764118  36.7772980  77.6458893  43.9229813  80.9666672
  78.2918015  43.2302017  81.1048050  78.0051346  44.4459457  80.2499466
  55.2666740  30.3307838  65.3239822  54.3823967  30.0101662  65.5014267
  55.2944298  30.4434299  64.3738327  81.8575287  48.1077652  28.3347492
  81.0598831  47.5963058  28.4704189  81.8855667  48.7095833  29.0785656
   4.1740627   0.6274212  51.0903053   3.4870908   0.0996201  51.4974022
   4.4603744   0.1090760  50.3382607  54.4334717  15.4788685   2.0834675
  55.1154251  14.8333559   1.8977706  54.7599792  16.2906342   1.6953198
  37.3109627  55.2461205  23.2461834  37.4792633  55.6093712  24.1156406
  36.3654976  55.3369827  23.1275520   7.8275657  18.8695984  60.4447975
   8.5342684  18.5154819  60.9846153   7.0514784  18.8187771  61.0027733
  68.9946060   5.2442183  53.0845871  68.0910416   5.0699363  53.3480911
  69.3659821   4.3783875  52.9153214  84.4675293  61.5047455  14.4848490
  84.1763077  62.3780022  14.2224636  85.4164200  61.5211601  14.3600559
  61.0741920  50.1390953  71.5691605  60.9020081  51.0352783  71.8580246
  62.0288544  50.0765457  71.5386047  49.6812973  67.1213989  20.2245102
  49.2122040  66.3958740  19.8124466  49.7949219  66.8470993  21.1344986
  76.8671494  52.8943100  12.2966518  76.4680939  53.7462196  12.1199131
  77.7757492  53.0970078  12.5193272   0.1012579  62.5875168   3.8471107
  -0.2264101  61.8056870   4.2916398   1.0282378  62.6261368   4.0825858
   8.7564049   0.3731923  48.6940079   8.6445961  -0.3449639  48.0711250
   7.8782477   0.7399173  48.7968864  80.3666611  40.5401268  30.7329750
  79.4644241  40.7679062  30.5086784  80.6786194  40.0319557  29.9841900
   8.1025343  12.6986122  80.4573593   8.7292290  12.1733561  80.9549408
   8.5374002  12.8609047  79.6202316  58.8472366  60.5423546  31.3739223
  59.5529251  60.7195320  31.9958916  58.9554482  59.6191216  31.1455383
  23.1302681  62.3220100  85.5662079  22.2579231  62.7117233  85.5081635
  22.9717770  61.4208031  85.8471756  62.4459267  18.5833015  44.8858376
  62.0958481  17.9208603  44.2901459  61.8602028  18.5585041  45.6425018
  38.8707123  19.7631931  34.8264503  38.3404312  19.2264862  35.4155006
  39.1848450  19.1503429  34.1616440  84.6894989  39.3642654  47.0484009
  84.1416245  38.8510246  46.4545631  85.5205841  38.8902550  47.0773773
  61.3809395  24.2433281  39.5195656  61.1160278  23.9541054  38.6464081
  62.0178070  24.9394798  39.3583145  63.4617920  48.3287773   3.3564425
  62.5116577  48.4444809   3.3659346  63.6149750  47.6599960   2.6889858
  73.3777008  64.7656708  73.1403580  72.7003098  64.8345261  72.4675827
  74.1995697  64.8940277  72.6667557  47.8742065  63.5657845  66.6228867
  47.3929291  62.8115578  66.2826691  48.7953072  63.3421898  66.4894409
  18.5908756  67.2549286  45.9490395  17.8055382  67.2441101  45.4019012
  18.8490372  68.1761551  45.9792900  45.9510002  43.2974625   3.3197212
  46.1421242  43.7646828   4.1329918  46.4278183  42.4714012   3.4003353
  49.8053017  53.7605591  71.4082870  49.9580154  53.0647659  72.0476456
  50.0630722  53.3765526  70.5702438  54.8725166   0.5283601  54.8469696
  55.7574387   0.1688734  54.7843628  54.7082100   0.5978630  55.7873993
  85.3623657  57.8243980   4.1841960  84.9759216  57.0213509   4.5335011
  86.1044312  57.5244370   3.6592214  64.3864517  50.6098671  20.9486771
  63.8659019  50.6153183  20.1454163  63.8199501  50.1937141  21.5983868
  21.3355007  21.6759224  67.1031265  21.5729847  22.5886459  67.2667465
  21.8009205  21.1825600  67.7785568  31.3127098  21.5611839  16.8709354
  31.7250748  22.4142818  17.0066319  30.3741817  21.7344360  16.9443035
  66.1350327  64.0079803  13.0782814  66.7301254  63.3471680  13.4324474
  65.2646866  63.7169380  13.3503361  72.8917847   2.4483247   6.7685137
  73.3902435   1.9649509   6.1096320  72.6194000   1.7818955   7.3993149
   5.8521132  60.4640274  77.5473938   5.2227907  60.0786057  76.9377747
   6.1137433  59.7373352  78.1128159  48.6823158  67.2437744  51.5301132
  49.0086250  67.0926056  52.4171867  48.0037117  67.9106598  51.6349373
  40.5603943   2.1165090  25.4314842  40.8160934   2.4230804  24.5615063
  39.9646378   2.7910161  25.7575951  46.8246498   2.6981955  30.9989414
  46.5793762   2.6858327  30.0737820  46.3432198   3.4403858  31.3644676
  76.0188446  61.0929642  20.8347015  76.4995728  61.4238319  21.5934200
  75.4819031  60.3812485  21.1831150  20.2510223  69.7632828  48.9207268
  19.9750290  70.6543503  49.1353340  19.9688663  69.6367798  48.0148468
  33.9238091   1.0205157  17.8109112  33.0733490   1.0427060  17.3722076
  34.4304581   1.7128091  17.3863354  10.5026159  59.8891029  88.0951996
  10.8297129  60.7667198  88.2927628  10.3905220  59.8836441  87.1445999
  80.0977631  66.0855026  48.3067436  79.7882233  66.5557480  49.0808830
  81.0521545  66.1276550  48.3666000  73.0615692  12.6902819  73.6582489
  72.6010132  11.8585701  73.5470276  72.3644333  13.3415995  73.7358093
  12.2847948  12.4882889   6.7579832  12.0384798  13.4063997   6.8703837
  11.8501711  12.2211313   5.9480691  55.8486824  46.8808060  42.5619469
  56.6003990  47.2775269  43.0021324  55.7999611  45.9953766  42.9223251
  84.8515091  60.8275223  81.2387924  85.0195999  59.9417725  81.5603943
  84.1595535  60.7182007  80.5865021  48.8045578  66.0347519  78.5483398
  47.8875542  65.7857742  78.6638718  49.1440697  66.1185532  79.4393768
  13.4036303  66.8019485  31.1217518  13.4975328  66.3173523  30.3016396
  13.0117741  67.6362000  30.8634834  16.1492634   4.4365444  42.7544022
  16.3917274   5.3252640  43.0144463  15.1985331   4.4690433  42.6481705
  58.7624397  25.1897488  45.2868004  58.2962456  24.5510883  44.7473488
  58.7731590  24.8018188  46.1618004  66.3656921  39.4526138  22.9932919
  66.0835342  38.7373505  23.5633907  66.4628296  40.2025604  23.5801296
  13.6833820  42.1838760  23.3567638  14.4990311  42.6558533  23.1888676
  13.5735998  41.6164284  22.5937557  36.2204514  61.2530136  30.1168213
  35.7770958  61.0554848  30.9418373  36.2868385  60.4079056  29.6722736
  65.5664673  47.8237801  88.7385406  65.0183868  47.1833076  89.1920166
  66.3992920  47.3722000  88.6017532  16.2157230  39.8642654  18.5503674
  16.5688362  40.5806503  18.0227928  16.7393475  39.1026917  18.3012657
  54.8539505   9.6481962  71.2212067  55.6948051   9.4396477  70.8141403
  54.2229271   9.6056976  70.5027161  79.5616226  48.2007675  42.0384293
  80.4737320  48.1543808  41.7518196  79.2349930  49.0199471  41.6662865
   4.7803135  43.0023003  15.5289249   5.5732088  43.1607285  15.0166273
   5.0903382  42.9198189  16.4307632  60.3420296  39.1465645  80.7260818
  59.6961403  39.7768288  80.4069824  59.9057655  38.7044945  81.4544220
  51.4990387   5.6447663  42.1480484  50.8951378   6.3861585  42.1047516
  51.1123199   5.0585165  42.7984238  10.6795721  28.1041183  59.5395393
  11.2876806  28.8433170  59.5441895  10.0933714  28.2715740  60.2774811
  48.2234497  49.5959625  41.3438225  48.7839508  50.2868385  40.9906082
  48.7927094  48.8280907  41.3942871  86.0323792  22.1943741  84.0568008
  85.9969940  23.1420937  83.9271469  86.9577789  22.0088387  84.2163086
  51.0025558  56.3837547  39.2775497  50.5606155  56.4970589  40.1190262
  51.6448860  57.0927734  39.2469826  72.7906952  60.6913261  63.1205292
  72.8587570  60.8056679  64.0684357  73.6974182  60.6202393  62.8221397
  28.7100677  52.8211250   7.3722758  29.0735245  52.0102234   7.7280426
  27.8215885  52.5876350   7.1033545  12.2837391  56.0009270  19.7396450
  11.9881220  55.2474709  20.2506714  11.5724983  56.6368217  19.8171444
  82.3106232  49.5762329  76.3745728  82.5451279  49.8855629  77.2495270
  83.0253906  48.9890213  76.1285706  71.5287552   0.3212913   8.0488329
  71.3162842  -0.0808304   8.8910837  70.8381500   0.0199033   7.4585247
  30.9168377   6.9657078  18.5307865  31.5027657   7.1649132  17.8005562
  31.4906120   6.6049919  19.2067299  82.7950821  57.1181412  11.0997858
  82.4977493  56.5238647  10.4108295  82.4251862  56.7557144  11.9048052
  74.2094879  28.7654572  73.3654327  73.3037338  29.0013771  73.5658646
  74.1797180  27.8239861  73.1952057  83.0717087  35.3845520  77.7432098
  82.8245316  34.8648796  76.9783020  82.4269409  36.0914726  77.7710114
   5.7591543   0.1268405   1.9334549   5.8398719   0.0196204   0.9857100
   4.9791527   0.6698173   2.0474970  75.1170883  10.2878122  40.7643394
  75.5691605  10.8839321  40.1672630  75.7710571   9.6227913  40.9795113
  86.3168106   7.9298029  57.7592010  86.1882706   7.0677376  57.3635330
  87.2633438   7.9969211  57.8848953  38.9209671  52.5656662  30.4353752
  38.1180534  52.4595032  29.9251881  39.2882271  53.3965912  30.1338577
  73.4032745  66.1265182  45.9053497  74.2758484  66.0863571  45.5138969
  72.8337250  65.6997986  45.2652283  82.7846680   6.2293234  83.6179123
  81.9998932   6.7325106  83.4007187  83.4784164   6.6293530  83.0935822
  41.3821907  27.4026222   1.2516681  41.8907890  27.4197998   2.0623865
  40.6531219  26.8112850   1.4387850  13.5870628  67.3703995  13.3048344
  12.8682137  66.7879333  13.0594330  13.7547264  67.1691895  14.2255049
  20.4210110  41.8505325  31.8325462  20.0513039  42.5855484  32.3217278
  21.2144337  42.2048759  31.4311085  23.5021286   6.4960971  80.6681900
  23.3496971   5.6385155  81.0651093  23.6008568   6.3134012  79.7337875
  41.4157486   1.9240566   6.9231100  40.9809761   1.1032002   6.6920309
  41.1935616   2.0618186   7.8439174  59.9240875  59.8666573  24.6840572
  59.3253555  60.5233994  25.0396442  60.7897530  60.1447906  24.9832191
   5.0017390  19.3807869   6.5872016   5.0317979  20.3303242   6.4701195
   4.1237788  19.2091217   6.9277134  86.5092926  47.2197113  50.9473534
  86.6984024  46.6854515  51.7187424  85.5604706  47.3442078  50.9689789
  58.2491112  18.4681816  32.5744057  58.8673897  19.0982571  32.2043152
  58.6826096  18.1421967  33.3631020  30.2605553  12.8065939  85.5932617
  29.7557545  12.0221834  85.3785324  31.1475811  12.4842854  85.7530518
  83.6714478  53.4045982  86.1307983  83.7870255  53.2158775  87.0620651
  83.3717041  54.3133163  86.1059647  31.3893223  68.9506836  24.7595940
  30.9658928  69.4908371  24.0923786  31.4876881  69.5334473  25.5125542
  71.4280090  50.8705673  67.2299881  72.1984253  51.0776634  66.7010269
  71.7023315  50.1322136  67.7738724  73.0305634  39.7929268   5.9057932
  72.1481705  39.9942398   5.5941849  72.8972626  39.4161186   6.7755518
  30.9838905   0.4571966  51.3481140  31.1419563   1.3825746  51.1612396
  30.7413063   0.4378360  52.2738647   1.6405156  65.4356079  60.3539200
   0.7055358  65.4073792  60.1508255   1.6833129  65.8104553  61.2336311
   5.5156093  55.5348740  11.7424793   4.6019397  55.7321854  11.9486542
   5.5332141  54.5861740  11.6164379  72.5396042  58.4011116  29.1964283
  72.0465469  57.9789085  29.8999004  73.4378433  58.4419975  29.5246429
  63.7119255  70.4716644  32.2988968  63.6043587  70.8288345  33.1804237
  63.0217400  70.8907089  31.7848186  86.5192719   0.0683839  71.4717941
  87.1628876  -0.6273247  71.3376999  86.5430374   0.5762311  70.6607742
  18.5200710  13.3931856  51.6677628  19.1409206  13.0451145  52.3077812
  18.4411373  12.7020426  51.0102501  18.6785793  17.7872829  74.1529999
  17.9553585  17.7309532  74.7775040  18.7396717  16.9089680  73.7774200
  50.5254555  12.5274925  83.7362671  50.0856171  12.2603788  82.9291611
  50.9822197  11.7400093  84.0320282  74.1100388  24.9277382  80.9212494
  73.8615646  24.0097885  81.0301590  74.4721375  24.9744968  80.0364227
  60.4659729  13.1408157  38.6024284  61.2173843  12.6501646  38.2694435
  59.7039337  12.6707649  38.2639389  19.9120464  67.4435349  71.7793274
  19.5186844  67.6036682  70.9215088  20.1573792  66.5184784  71.7613907
  56.2332153  35.5026436  85.0253143  57.1724777  35.3466530  85.1237106
  56.0051117  36.0655403  85.7651443  81.6751633  20.7247219  87.4572754
  81.5045166  21.1155167  86.6003113  82.5744171  20.4020290  87.3985825
  46.8854485  18.8935699  76.3654251  47.4313164  18.2508545  76.8183899
  46.0692902  18.9093895  76.8652954  75.3071899  68.0801773  55.0083199
  74.5148697  67.7264023  54.6042213  75.0346222  68.9222031  55.3729134
  26.5791969  21.7660713  72.7115555  26.4932365  22.1595020  71.8431931
  26.7970562  22.4997616  73.2864151  38.2786331  22.9812660  82.8658066
  38.3035431  23.4075184  82.0091095  37.5814819  22.3298683  82.7890396
  84.4733582  54.0609360  50.5767670  84.2083435  53.5033531  49.8452606
  85.2455902  53.6278381  50.9405327  29.9619045  64.2362671  11.8169975
  29.7988224  64.5397415  10.9239454  29.1027927  64.2593842  12.2384520
  51.5214386  49.4394341  75.1846085  52.0720596  48.8537254  75.7042160
  50.9468689  49.8588791  75.8250504  75.7504807   5.8706946  14.2715998
  75.8132172   4.9244123  14.1418133  76.2910156   6.0430708  15.0425348
  15.3873377   2.1247351  28.7449017  16.0628109   2.2997758  29.4001331
  15.7300100   1.3882912  28.2384853  41.1676407  31.0700054  18.3185215
  40.4356918  31.1699123  18.9272099  41.4467010  31.9660835  18.1303673
   1.8113450  37.2598953  11.1167612   2.0932095  37.5222359  10.2404270
   1.9751849  38.0297127  11.6615267  26.8688526  65.5334167  81.6646347
  26.0332031  65.0948868  81.8246841  26.7426682  65.9938660  80.8350067
  18.3377018   1.2274367  65.3137207  18.7656364   0.3748652  65.3926315
  18.0145931   1.4157106  66.1948547  81.0311890  68.2116623  24.7156277
  81.1770782  67.5331192  24.0564423  80.0910797  68.1759262  24.8921432
  59.3771133  58.7232018  11.5668459  59.3550606  58.1824455  12.3563576
  59.4576454  59.6196251  11.8926926  28.2635765  57.7004585  64.8824005
  28.5252705  57.2001266  64.1094742  29.0868778  57.9028702  65.3267365
  48.8473701  34.3090286  73.9248123  48.3464394  34.8050613  73.2773132
  48.3633270  33.4893875  74.0254440  74.3493118  58.8180275  21.4132328
  73.4152603  59.0236282  21.4519558  74.4484787  58.3044548  20.6115856
  77.9785919  11.3142338  18.8688641  78.7532883  11.8647337  18.7547474
  77.9050293  11.1976500  19.8160858  34.5143738  54.1071968  42.5502777
  34.4140434  54.7327423  41.8327370  33.9531288  53.3711052  42.3065414
   3.3517344   3.5732772  77.5050354   2.5447123   3.8976254  77.1053543
   3.4101729   4.0394850  78.3389816  83.7090988  22.3891411  29.1582127
  83.9487076  22.4433517  28.2330742  82.9866638  21.7616463  29.1821480
  29.5094585  54.6232071   3.3329527  29.0524006  55.4231453   3.5926237
  29.9199104  54.3095436   4.1387911  24.5339756   8.0798073  58.4751434
  25.2664452   8.6602535  58.2682610  24.9181099   7.3953938  59.0230980
  17.4539261   8.7375059   7.3684592  17.5337162   7.8065262   7.1607533
  16.5107460   8.9003162   7.3801622  41.2462883   9.6950903  58.7333565
  42.0946579  10.1325235  58.6615562  41.4232788   8.9137039  59.2571335
   8.2448626  60.8244476  11.3804913   8.9957447  60.5912666  10.8345671
   7.4822559  60.6066551  10.8445520  57.5613403  52.1459618  29.4336147
  57.2959518  52.6596451  30.1964569  58.0018044  51.3801270  29.8020134
  36.1512222  67.0631638  23.4082031  35.3872185  67.6189423  23.5619297
  35.8574219  66.4272003  22.7559223   1.5147954   5.3634009  69.1410370
   2.0382333   5.5847225  69.9112701   0.6161129   5.5756593  69.3931198
  73.4475479  54.3977089  24.8445454  73.1897507  54.7952423  24.0128384
  72.7332916  54.6127701  25.4443855  43.9988441   6.4814801  63.0049210
  43.4063683   5.8874979  62.5440636  44.7819443   5.9569225  63.1717186
  29.3454304   0.5211900  15.4139509  28.3918591   0.5276594  15.3309326
  29.5086842   0.7811412  16.3205967  23.1371975  67.8222198  26.9512463
  23.2345581  68.6557465  27.4116669  22.5034103  68.0044327  26.2574558
  66.4811707  52.7991905  37.1727295  66.0434341  52.1513100  37.7248840
  67.3516998  52.8942642  37.5592079  82.4267731  34.9550095  18.9264603
  82.3695602  35.8118439  18.5036221  83.1900940  34.5401268  18.5246658
  27.8728962  54.3484802  19.8338566  27.4319611  53.7735443  20.4593620
  27.1632156  54.7266045  19.3146172  76.9817581  37.9198608  55.4642982
  77.5290375  37.5347328  54.7799034  76.1708298  37.4120636  55.4365768
   2.5617826  47.5433044  84.9191437   2.3631387  46.9158401  85.6141663
   3.4625199  47.8164062  85.0932770  24.7485428  59.8904991   8.6371756
  24.8777695  60.3377037   9.4735603  25.1174850  60.4879150   7.9866314
  77.2447128  64.5286331  53.2608490  77.0850067  65.0252380  52.4582863
  76.5147552  63.9113846  53.3098297  74.3450699  47.8298378  49.8026886
  74.4731445  48.7608719  49.6210289  74.6450348  47.3873978  49.0086517
  86.7273788   5.5922308  41.3230324  86.5622559   6.1481667  40.5615234
  86.2623978   4.7780080  41.1305008   2.0347149  34.0236626  84.8978958
   2.4545898  34.3430862  84.0992050   1.3551197  34.6708183  85.0864944
  70.3027878  55.9869690  49.4749451  70.1289368  55.9799461  48.5336914
  69.4361115  56.0367203  49.8782158   6.8187466  48.3963509   7.5950160
   5.9700041  48.4370346   8.0357113   6.7235293  48.9744225   6.8380475
  84.3992996  14.6490355  17.1903267  84.8827972  13.9392586  17.6130276
  84.4732971  14.4647913  16.2539444  27.2728901   6.0275021  47.2139282
  28.0837841   6.4908299  47.0041466  27.4626732   5.5718632  48.0340538
  67.1613770  69.6657639  67.8237762  68.0396042  69.3031998  67.7076111
  66.6524124  68.9458237  68.1964417  81.9791946  69.6049957  70.7615967
  82.5948105  69.1936340  71.3682556  82.4901047  69.7534256  69.9658813
  70.9833527  16.6412716   7.5096126  70.6366043  16.3547554   6.6646833
  71.6613007  15.9992685   7.7204285  80.9363098  53.0258827   3.4485199
  80.5148926  53.8642960   3.6374755  81.7319717  53.2600555   2.9706898
  79.5131302  57.9726295  37.3905640  80.2843628  58.4477005  37.0811577
  79.0057220  57.7975998  36.5980110  39.3511734  69.3906097   1.2417570
  38.6826820  69.5222626   1.9140810  39.7871056  70.2395782   1.1679642
  74.5826797  24.9063663  84.7939835  74.6055222  24.1057892  84.2697830
  74.7765045  25.6064281  84.1706238  82.6758881   6.8553305  37.2054329
  82.0902863   6.5507236  37.8986282  82.1027679   7.3171659  36.5934868
   7.4144788  18.8126831  16.5734520   7.6848011  17.9035282  16.7022762
   7.7499270  19.2735519  17.3424149  39.9219017  32.5425644  74.5379105
  39.0722122  32.9824219  74.5099258  40.5324974  33.2194366  74.8298874
  11.0619555  28.7863808  75.9932785  10.3786850  28.3047352  75.5270233
  11.1065969  29.6316700  75.5463791  65.6025696  27.8253918  80.9128647
  65.2404327  27.3134060  80.1897125  66.0923004  28.5287781  80.4866638
  73.5092087  51.4143486  70.8735275  72.6594315  51.4992332  71.3058472
  74.1031265  51.9425316  71.4069366   2.5421305  42.1306534  64.3265686
   1.5917970  42.2313690  64.2722092   2.8211811  41.9983940  63.4205513
  12.5420914   4.0180907  38.2569656  12.2474165   3.2925787  37.7064857
  13.4147081   3.7566278  38.5509224  49.5903549  24.3424225  67.1991043
  49.4187508  24.4588585  68.1335754  50.3648911  24.8785725  67.0291977
  70.8102951  35.0012207  34.8425674  71.3545074  35.3073349  34.1170654
  69.9200897  35.0011292  34.4907684  20.6365490  15.6813745  74.6872101
  20.4694538  16.2165508  75.4630280  20.5894642  14.7792883  75.0038376
  16.8588905  39.8116341  52.6028748  16.2217350  40.4351425  52.9514427
  16.5840225  39.6694336  51.6970825  69.4216919  29.7321625   0.1338300
  69.1257858  28.8225250   0.1688799  69.5292511  29.9845428   1.0508723
  22.7653751  29.7939453  83.2365112  22.8407764  30.5736599  83.7865906
  21.9105091  29.8802185  82.8146210  73.5633316  59.9428444  83.9395599
  73.1922913  60.7139969  84.3683853  72.9193192  59.7069855  83.2718430
  11.8229303  50.5720863  79.0007324  12.5687342  50.2231865  78.5125961
  11.6559334  51.4270973  78.6041260  86.5868988  66.3403397  49.6101532
  87.3298950  66.3481369  50.2135849  85.9058685  65.8542404  50.0750465
  14.7650595  20.7758141  58.9919052  14.7353964  19.8254108  59.1018448
  13.8473740  21.0367050  58.9143257  74.1688690  52.4705467   9.2040939
  74.5615234  51.7794533   8.6707649  74.8846893  53.0855675   9.3640203
  24.7611790  61.8965759  62.4243851  24.2835884  62.3764191  63.1010628
  24.9059811  61.0293388  62.8027534  70.6100464  57.6605682  55.7893791
  69.8332138  57.6056747  56.3459320  70.2795868  57.9725914  54.9469643
  84.7843399  67.1456833  24.0566311  85.3150253  66.3503265  24.1015282
  84.4048462  67.2300949  24.9313278  28.1107292  52.4140320  68.9014206
  27.6417637  52.1693954  69.6992035  29.0140381  52.1406631  69.0612183
  36.1417961  10.5920248  67.6528854  36.0077667  11.3609791  67.0988312
  35.8611336  10.8725853  68.5239487  27.1478119  58.3222427   2.3719962
  27.5726070  57.7842331   1.7039194  27.0763512  59.1888428   1.9718385
  27.8187752  57.3176956  46.0096855  28.4238358  56.6167145  45.7672882
  26.9519749  56.9152374  45.9556808  74.4920959  49.6383705   6.3953905
  75.2675095  50.1782837   6.5485730  74.8092194  48.7380524   6.4667630
  84.6936188  34.2186584  56.9562073  84.2968063  33.4105186  56.6311150
  84.7357254  34.7901115  56.1894646  12.3451424  21.6566753   9.4263687
  11.7564211  22.1528473   9.9950972  11.8614120  20.8568058   9.2203474
  60.7723427  37.3053398  16.2814674  61.3860054  36.5741158  16.2110367
  60.2304726  37.2398567  15.4951324  32.1215515  71.1963959  38.7895927
  32.3571243  72.1046371  38.9788857  32.8012505  70.6779251  39.2202110
  74.8708496  22.7058907  83.3633041  74.7179184  21.7629185  83.4236832
  75.5583725  22.7952499  82.7033310  52.4613037  34.5426445  82.5363007
  52.2378807  34.4812279  81.6075668  53.3633919  34.8626404  82.5449753
  10.0704870  53.8518257  87.0499268  10.0253401  53.0801506  87.6144714
   9.7834415  53.5382881  86.1922989  82.0406876  52.2729492  50.6523705
  81.6418533  52.0363274  51.4897270  82.7671127  52.8501511  50.8876839
  23.0679970  15.8549042  49.7248573  22.7403450  16.7438507  49.8614159
  23.7056904  15.7242384  50.4266434  65.2553482  66.6189117   4.2575207
  66.0467224  66.8906631   3.7926497  65.2553101  65.6639252   4.1923647
  32.5860977   4.3317280  33.3678856  32.8306580   5.1270642  33.8410263
  33.2186928   3.6753223  33.6597557   4.1343241  56.1113739   5.1578231
   5.0206065  56.2600021   5.4874358   4.0676718  56.6752701   4.3872294
  21.6264362   4.9134989  76.8109665  21.4201889   3.9900267  76.9555130
  21.1280270   5.3782802  77.4831238  54.3897247  65.2311096  23.4553623
  54.7604446  64.3997345  23.1593628  53.9192314  65.0108337  24.2593174
   6.6528516  47.6461830   4.5054874   7.1749158  46.8666153   4.6950955
   5.7810097  47.4381104   4.8413877  60.0290260  46.0697403  46.2248573
  59.5979958  46.5572014  46.9268723  60.5734215  45.4266586  46.6790771
  60.5438423  69.9980392  20.6007271  61.0924873  70.0566330  19.8185596
  60.1180725  69.1435699  20.5311699  78.5248108  38.3405914  52.6361465
  78.4636078  37.4133492  52.8657150  79.4646988  38.5097008  52.5710945
  25.7584991  14.3582325  79.4921341  25.0624771  13.7020264  79.4578171
  26.5635452  13.8488474  79.5852051  75.8101349  26.5432243  26.0255280
  75.3047867  26.1862106  25.2951908  76.6811447  26.6992130  25.6604958
  78.4923782  65.1988297   2.6452932  77.9584503  65.9842453   2.5258145
  79.3169785  65.5226440   3.0078061  66.9467163  50.9162636  68.6114120
  66.3731155  50.2126274  68.9149017  67.5476685  50.4889450  68.0010910
   8.6057358  20.4913368  77.4027252   8.6247053  19.5409107  77.2906342
   7.8683648  20.6482754  77.9925461  51.1390038   7.7272906  78.5187225
  50.5175438   7.3659635  79.1507492  50.6003189   8.2513208  77.9258957
  20.3366547  34.5008507  80.1833038  21.0901966  35.0905991  80.2078934
  20.2307072  34.2861176  79.2565384  12.5034485   3.1168876  57.9505920
  12.7200336   2.1979218  58.1081467  13.0713654   3.3757870  57.2248688
  69.1211472   7.7596965  34.2369728  69.2594604   8.6273632  34.6167870
  68.6155624   7.2867193  34.8979645  15.8539009  60.0206413  17.9086628
  15.9120321  60.0689201  16.9544506  16.7155075  59.7089577  18.1856441
  74.1171265   0.4431700  15.7351131  73.9394150   1.1226838  15.0847960
  73.2714233   0.2867315  16.1552906  30.9317989   0.8905755  30.9036541
  31.2634621   0.6554245  31.7702198  31.6914825   1.2507592  30.4460754
  68.1539612  27.2723789   0.8869119  67.2398605  27.2257099   1.1670271
  68.6466446  27.4003296   1.6975465   5.0986943  61.7263985   9.2214060
   4.7598686  61.9461937  10.0892296   5.6902900  60.9897041   9.3747911
  41.8382301   1.2434989  43.7450066  41.3990326   2.0909252  43.6728630
  41.4667053   0.7199645  43.0349998  62.2837906  44.7060204  23.3888721
  62.9689865  44.6614647  24.0557709  61.5608444  45.1632538  23.8184299
  38.1184235  13.7902308  77.0180283  38.6409531  14.4214983  77.5126953
  38.7639771  13.2463379  76.5667343  21.1409874  24.2744312   2.4298995
  22.0835323  24.3984184   2.3182404  20.8006840  25.1549644   2.5882838
  22.9416485  19.7976170  73.0623245  22.9091625  19.9486713  74.0069733
  22.7233315  18.8712521  72.9602585  49.1061935  64.3365326  74.9267426
  49.7790298  63.9233818  75.4678726  49.4953308  65.1672821  74.6534958
  49.8312492  18.9400635  65.0546188  49.0048523  19.3267403  65.3440781
  50.1545296  18.4650116  65.8201523  82.5983582  59.2846565  69.7499466
  82.7545853  59.8642883  69.0043869  82.2479706  58.4832878  69.3610077
  51.9340706  64.6115952  83.6083832  51.9931946  64.7012711  84.5595398
  51.6419945  65.4709930  83.3044815   8.6066961  45.9781761  48.8276901
   8.0301008  45.6569557  49.5209312   8.8352642  46.8671989  49.0990295
  62.2677879  18.5126839  59.1422691  62.9601860  17.9767189  58.7555428
  62.7082291  19.3217468  59.4023857  63.4126740  49.2761879  81.6773834
  64.3006439  49.5829430  81.4939651  62.8623734  50.0501747  81.5576019
   9.5588694   6.4377160  41.8947220  10.0368462   6.1629009  41.1122589
   9.3551035   5.6208348  42.3501511  60.3745422  33.8871498  71.6426010
  59.4637260  34.1255875  71.8151932  60.3752136  33.5858612  70.7340546
  32.2714005  63.2413139  37.2475739  32.9371910  63.9275665  37.2924194
  31.4445248  63.6996727  37.3972893  50.8863411  42.6922340  87.1715393
  50.8034821  43.4575920  86.6026917  51.4243813  42.9947052  87.9031525
   1.5100217  57.0789070  50.1681862   1.9000614  57.8017578  49.6766663
   0.9879919  57.5054855  50.8477058  43.0312309  43.3105965  26.3641834
  42.9168358  44.2038345  26.0397282  42.8778648  42.7563477  25.5989914
   4.9361086  55.4716568  49.6710243   5.7984467  55.3647957  50.0725021
   4.6540599  54.5796852  49.4683838  69.0477982  28.1230049  83.1156845
  68.9722824  27.1708164  83.0535126  69.3777313  28.3935566  82.2588425
  79.1603165  24.4194565   9.5261202  80.0588074  24.2716484   9.8212500
  78.6794357  23.6485271   9.8272047  26.6527023  16.8404655  79.1372910
  26.4705658  15.9032879  79.2062531  26.8129845  17.1202660  80.0385437
  86.4735260  27.5135365  68.7529526  86.4891739  26.9297009  67.9945831
  86.6906891  28.3749657  68.3965607  72.6163101  34.7474899   0.5527851
  72.5239868  34.7705116  -0.3996741  72.2799377  33.8876534   0.8053095
  65.7033234   1.6557043   3.1340950  65.5676346   2.5374038   2.7870700
  65.8545761   1.7873423   4.0700574   5.7405510  18.7744389  62.2968140
   5.8184052  19.7284126  62.2865028   5.2026200  18.5863323  63.0658913
  45.3062592  68.1123047  22.0193520  46.1446991  68.5738754  22.0048752
  44.8686142  68.3852997  21.2130184  66.3563538  56.1967583  52.8249741
  66.1107254  56.0872345  53.7436180  65.8018341  55.5754280  52.3530655
  60.3511086  64.9011307  51.1726265  60.2950134  63.9783669  50.9244347
  59.7969093  65.3541946  50.5371513  25.2465591   3.9746723   4.0929065
  25.0514374   4.6285238   3.4216111  24.5576878   4.0903749   4.7473531
  30.2531490  33.6809845   3.5908518  29.7730999  33.0096092   3.1060460
  29.7421474  34.4802017   3.4629452  73.5162277   4.7040486  46.2797585
  73.1606140   3.9183462  46.6950226  73.6932983   4.4387112  45.3772736
  44.7276001  65.1055832  16.7835960  45.1445503  64.4898834  17.3863449
  44.9579277  64.7815018  15.9128742  66.8086624  67.4140701  26.9746437
  66.6140442  67.2476501  26.0523319  66.2839737  66.7700043  27.4501495
  72.7651520  12.7628946  48.7820587  72.4513855  13.6254139  49.0537949
  72.2259140  12.1452951  49.2760506  59.9176788  67.6017838  81.2839813
  59.6786079  66.6764832  81.3377991  60.7379417  67.6660690  81.7731323
  69.0199814  65.8327255  64.8245926  69.1565552  66.7796249  64.7934799
  68.1846771  65.6963959  64.3774872  51.5990028  55.7287560   3.6544428
  50.7239723  55.8659668   4.0173779  51.5359612  56.0422592   2.7522380
   2.7403486  19.4594154  71.6614380   3.1397223  18.8474922  71.0431442
   2.4592633  20.1973057  71.1203766  54.6314316  31.5998955  13.1197271
  53.8972549  31.0438175  12.8589659  55.3355484  31.3661747  12.5148907
  31.7923298  41.0371094   2.8326931  31.6312618  40.3326874   2.2049339
  32.6974831  41.3017502   2.6686969  37.5462379  44.5391502  -0.1391675
  37.1221085  45.0663528   0.5378872  37.5883255  43.6587448   0.2341310
  65.6871872  70.9481049  24.7383804  66.4773407  70.4183502  24.6322880
  65.6685104  71.1664124  25.6701660  23.2619114  48.2488403  78.7981949
  22.4474678  47.7725143  78.6368713  23.0952454  48.7433434  79.6006393
  25.4940681   5.3545833  44.9582748  24.8805561   4.6206822  44.9932709
  25.9593410   5.3178673  45.7939835  12.4096575  29.3372173  81.6485977
  11.9014006  30.1304359  81.8180466  11.7526464  28.6478386  81.5520248
  19.5897541  44.8380318  20.0762901  20.3555508  44.3553238  19.7651958
  19.2882748  45.3278160  19.3111401  62.6224251  53.7436180   0.7930738
  62.7964058  53.2025261   0.0228901  63.4584961  53.7741890   1.2581333
   9.5729103  30.4245071  44.5505447   9.1554022  30.1550617  43.7324257
  10.4100704  29.9604378  44.5563889  84.1707611  41.9510422  13.6524286
  83.4969025  41.2726707  13.6081324  83.9293060  42.4791565  14.4133654
  61.1271591  26.5850449  29.5086479  61.1085739  26.6603470  30.4626999
  60.2922859  26.9558735  29.2228107  75.7736282  50.0750656  31.7538147
  75.8174591  50.9873619  31.4674091  76.0522537  50.0977783  32.6692848
  70.7539597  52.0782623  21.3058167  71.6342087  52.4446564  21.3903847
  70.6540680  51.5153351  22.0735188  26.9099884  12.5652618  17.6294060
  26.1548595  12.4736109  17.0483627  27.1790009  13.4785223  17.5303097
  62.5524712  18.7780304  81.5336685  62.2851830  19.6964531  81.4977722
  63.0909271  18.6545620  80.7519684  60.0155106  15.8848896  44.9570160
  59.9299431  14.9788170  44.6604652  60.4329376  16.3382187  44.2245674
   5.3711452  49.4132881  46.7072220   5.1665530  49.6842804  47.6021729
   4.5314093  49.4465828  46.2490005  72.5364609   0.0780793  33.6176147
  72.0008087  -0.5748150  33.1670227  72.5357285   0.8345762  33.0311508
  50.6274071  71.4506607  57.3605690  51.3593216  70.8381577  57.4338455
  51.0325203  72.2779160  57.1002541  69.5744019  29.3091755  54.2641182
  70.3986969  29.7957554  54.2607498  69.7288818  28.5804691  54.8652458
  67.1816406  28.1222610  56.6924362  68.0044327  28.4606018  57.0456734
  66.6092072  28.8878632  56.6434517  44.3423767  52.0744400  60.5403214
  43.4677391  51.9811859  60.1627731  44.6153984  52.9589157  60.2966118
  55.1970978  31.1182709  26.4905949  54.6949692  30.7765846  27.2304268
  54.6345596  30.9700413  25.7304554   0.2603151  14.5692997  25.9104900
  -0.1522488  15.3515196  25.5442200   0.9307166  14.3301249  25.2704983
   6.0563745  22.3047619  77.0928421   6.1082463  21.7969799  77.9025955
   6.8184509  22.0251904  76.5855865  62.5669708  39.8057251  14.4412413
  62.6477089  40.1012802  15.3480816  61.6804314  40.0595589  14.1846313
  79.0441360  44.5936050  43.5221100  79.8586502  44.4027939  43.0569344
  78.5256653  45.1021118  42.8985405  32.5374336   1.3285601  70.6541443
  31.8370953   1.0412176  70.0683136  32.2015419   1.1530528  71.5331192
  70.4510498  68.1023331  10.3656912  70.8519821  67.2338791  10.4014120
  69.6166840  67.9999542  10.8234844  41.7596245  17.0440731  63.3053436
  41.1803207  17.1878853  62.5570412  41.1729355  16.7861633  64.0163422
   4.1357780  34.8820877  29.1698914   3.7995062  35.2991829  29.9631023
   4.8402958  35.4595375  28.8758907  62.0810280  45.9171982   5.1089096
  62.0791168  45.5611458   5.9974227  61.3481750  45.4808502   4.6744471
  63.2243500  64.6415558  81.2145309  63.3471375  65.5748367  81.3881149
  63.9832649  64.2208939  81.6186600  46.4776573   2.0550752  68.9269943
  45.6931839   2.5924997  68.8174210  47.0155640   2.2576075  68.1615753
  61.4811440  58.8327065  48.7409096  62.2872887  58.7954712  49.2556686
  61.7734337  58.7587090  47.8324356  77.6357727  30.4502869  86.5849152
  77.0072479  29.8006592  86.8998184  78.3109131  30.4786301  87.2628708
  13.6675100  40.6318359  87.8808823  14.0432682  40.7248726  87.0054474
  12.7703848  40.9535141  87.7918777  32.6379128  56.1323318  80.2582397
  33.5642242  56.3363419  80.3869324  32.5232697  55.2730675  80.6641388
  12.7692213  11.6034489  37.0362167  12.5635662  12.5246515  36.8770828
  12.2222586  11.3615751  37.7835846  28.3915062  63.7234459  43.3728371
  28.1101875  64.2766418  42.6440964  28.6456070  62.8970680  42.9620247
  21.5961037  11.2868805  70.6606140  22.0708866  11.5704784  71.4418869
  22.2035923  11.4494600  69.9389801  49.9278717  50.8962097  76.5531158
  49.6916847  50.9310455  77.4800644  49.2611427  51.4259605  76.1159973
  53.6989403  19.6593952  54.0564957  53.1858826  19.1504974  53.4287796
  54.2395439  19.0100460  54.5063057  33.6272240   6.0428300  72.8589706
  33.5769997   5.1945887  73.2996521  33.8987923   5.8328271  71.9654541
  47.2144356  15.8544846  89.4367142  46.6939278  15.8491249  88.6334229
  47.7878113  15.0923138  89.3556671   0.0609821   2.6120698  25.8516788
   0.4451853   1.9145113  25.3206120   0.7980546   2.9699662  26.3465176
  39.1094856   8.0366440  41.1907845  38.6405945   7.9029484  42.0144958
  40.0046120   7.7525353  41.3758926  85.1894455  61.4020042  56.7404060
  85.8632965  62.0233536  57.0162392  84.5852890  61.3591957  57.4816208
   5.1393647  28.9436359  32.6652336   4.2796745  28.9267654  32.2446632
   4.9476199  29.0339222  33.5986748  57.0925713  56.7044411   4.6690083
  57.6231613  57.4440994   4.3730221  57.6557503  55.9405708   4.5442667
  19.5333843  67.3642044  40.3530045  20.4826012  67.2408447  40.3518219
  19.1844959  66.5413666  40.0102844  73.7824402  10.0923767   5.0718150
  73.7811508  11.0495148   5.0826416  74.1017532   9.8631525   4.1990447
  10.9301481  41.4182701  77.4454117  11.1213284  40.6371193  77.9645386
  10.0271215  41.2960510  77.1524353  35.4834175  10.9350481  35.9134750
  35.4422607  10.2043781  36.5304527  35.1612587  11.6868372  36.4107246
  12.9588747  20.1413441  37.8272057  12.7241945  19.6210423  37.0588036
  12.1362934  20.2472248  38.3050995  79.9696121  50.2602234  45.1646004
  80.0459824  50.4914665  44.2388954  79.2594833  50.8124924  45.4916306
   3.9190800  34.5615540   2.2615514   3.6030440  34.7552757   1.3790410
   4.6412935  35.1749077   2.3973405  16.9324493   4.6483445  70.6510849
  17.3159676   3.9005835  70.1928253  17.3095875   5.4139657  70.2176971
  16.0679531  54.4723587   1.3533525  15.9853611  54.4681206   0.3997319
  15.7085514  55.3181458   1.6211317  80.5935516  16.4066734  20.8792496
  80.4760437  16.6539288  21.7964687  80.0182343  15.6511297  20.7592678
  78.5268784  10.0066538  88.6764145  78.2621536   9.2819777  88.1098480
  77.8953323  10.7008791  88.4881973  40.9349213  49.1820030  85.3100586
  40.2593231  48.6690140  84.8666153  41.6644859  48.5723343  85.4208298
  59.9139938  52.8957024  76.3321915  60.4886284  52.9135208  77.0975113
  60.4869041  52.6425858  75.6083527  16.5140743  10.7521648  70.9402466
  17.4590225  10.7190342  71.0892715  16.3731651  10.1985178  70.1722260
  37.6744080  14.1882238  20.4997883  38.2593079  14.6131945  19.8724728
  36.7967148  14.3382502  20.1485386  16.6202393  34.1196404   0.6974003
  16.5785580  33.8293991  -0.2137827  15.8555975  34.6855469   0.8037264
  73.8271942   4.3515162  35.6621666  73.2625580   4.9995427  36.0834427
  73.3467636   3.5274422  35.7416649  65.8444061  61.1513824  16.4559364
  66.7039261  60.8846855  16.7820301  65.2244186  60.6090164  16.9434681
  75.6235123   4.6595583  37.6820641  74.7879410   4.6479988  38.1488914
  75.3920670   4.4734955  36.7720947  30.2316780  65.2409439   4.4765539
  30.6455002  65.4477844   3.6385798  30.7479649  64.5145111   4.8257976
  71.5856552  66.6017532  79.1767731  71.7728195  67.4106064  79.6531830
  70.7275925  66.3266678  79.4997025  59.2892876  69.7207794   6.6901851
  60.2454987  69.6864014   6.6635523  59.0579834  70.4251404   6.0847077
   1.5312721  36.0338669  21.6817074   0.7092781  36.0537376  22.1717720
   2.0178111  35.3013000  22.0596752   6.4794164  26.7462254  27.8173904
   5.7143593  26.3168201  27.4345989   6.2647028  26.8348942  28.7459736
  16.8489685  31.9311504  12.4447517  16.3098297  32.6497192  12.1142683
  17.4025269  32.3348618  13.1131992   0.6835797  52.8545647  22.6250782
   1.1094589  52.8796463  23.4819508   0.4099920  51.9433136  22.5201740
  62.5827713  63.6756592  68.1811447  62.6205788  64.3932571  67.5488052
  62.7348518  64.0946198  69.0282440  62.2384758  36.9453049  86.9166565
  62.6730843  36.2149429  87.3570251  62.8002129  37.1413651  86.1668243
  67.5542603  54.7837448  56.2099838  66.8217239  54.8927116  55.6035538
  68.3232651  54.7065926  55.6452637  10.2930689  54.7288818  52.1724854
  10.2669945  54.2977600  51.3182678   9.6711826  55.4523735  52.0947113
   5.1078773  53.8047371  69.3114243   5.9334102  54.1973457  69.5952988
   5.3175864  52.8814163  69.1709366  42.8612404  14.0233536   3.9123421
  43.3405991  14.7930889   4.2188654  42.6439972  14.2233810   3.0018330
  68.6124191  62.8896980  33.4585609  69.1352310  63.6460800  33.1925049
  69.2357330  62.1636047  33.4808617   4.2575274  49.5652695  52.4696312
   4.1735950  50.5141983  52.3762398   3.3554022  49.2459831  52.4910088
   7.8008485  67.7826080  42.8855591   7.1728172  67.2630386  43.3874130
   7.5722113  67.6168213  41.9709702  71.4539490  65.3788071   9.7159529
  72.1658020  65.5664215   9.1041527  70.6648560  65.3840561   9.1741581
  16.9139252  63.5278244  68.5522842  16.8909245  63.6940689  67.6099167
  17.7455463  63.0760422  68.6955719  84.3916626  41.8772087  62.1859627
  84.3319092  42.5314026  62.8821602  85.1229248  41.3169250  62.4459000
  48.8928337  58.1554260   2.7853003  48.8736343  58.3194466   3.7281473
  49.4336662  58.8609657   2.4304173  83.6932449  42.7345848  42.0545235
  84.5431747  42.5151100  41.6728439  83.7540970  42.4365005  42.9620895
  36.1490479   7.0876474  15.1818008  36.7687378   7.5455289  14.6138573
  36.4584312   7.2690358  16.0692768  80.4794617  53.0571671  87.9425354
  80.4717712  53.3521576  87.0319595  79.6986465  52.5094261  88.0234604
  64.8873215  41.5295296  35.7444458  65.4997253  40.8312378  35.5129890
  64.6610031  41.9365616  34.9081802  65.7696304  19.8151531  65.1763992
  64.9443665  19.4760170  65.5230331  66.0480804  20.4689941  65.8176422
  80.7760620  16.0472889  18.2273521  80.7020340  16.2419910  19.1616135
  79.9136581  15.7109175  17.9837284  29.6552067  70.5788574  74.1744308
  30.1717606  70.7753677  74.9559631  29.7820950  69.6406860  74.0331116
  68.1620636  55.9326057  41.9975967  67.2389679  56.1441536  41.8584404
  68.4780807  55.6609764  41.1358643  11.3168268  53.6745644  47.2087822
  11.9563055  53.7801323  46.5043983  11.7922640  53.9195786  48.0026093
  50.1331329  38.4727707  88.4680328  50.6223640  37.6821556  88.2404099
  49.3073540  38.1483307  88.8272858  12.7208767  15.8223267  28.6233654
  11.8701649  15.3841534  28.6004353  12.5092068  16.7557068  28.6385078
  61.9729767  35.8859558  28.6105022  61.5942116  35.6823997  29.4656811
  61.6280861  36.7527046  28.3959675   7.3524413   8.2195415  45.3131523
   7.9536772   7.6085167  45.7390594   7.7369909   9.0820580  45.4694176
  58.6180954  11.2906866  32.7993164  57.7188301  10.9936562  32.6603088
  58.6632614  12.1354094  32.3513947  82.1743393  58.9918175  59.7748146
  82.5147705  58.5661964  58.9879303  82.8125000  58.7808762  60.4563484
   4.5611320  33.6225014   6.6065216   5.4112210  34.0582962   6.6670370
   4.5803857  33.1764412   5.7598257  19.2053051   3.3972762  85.1568680
  18.9151020   4.2937961  84.9887466  20.0757084   3.4956777  85.5428009
  20.1044273  41.7394180  79.3524017  19.4896545  41.9476280  78.6488800
  20.4361210  42.5899544  79.6401443  75.2683105  18.8931675   4.5276356
  74.3134689  18.8260994   4.5309839  75.5612183  18.1689625   5.0807734
   8.8231297  12.2947836  63.4758186   9.5981350  12.6717329  63.8923645
   9.1300163  11.4687967  63.1019249  85.9977951  41.9327469  74.5036850
  86.5421753  41.5436211  73.8192368  85.7971191  41.2053223  75.0925903
  36.0832672  55.6353989  54.5446053  35.4352493  56.0114975  53.9489098
  36.6950226  56.3513641  54.7160110  23.0661335  65.6452789  79.4763794
  23.1960716  65.0534286  78.7353897  23.5665131  65.2492599  80.1898346
  49.1758575  54.7516594  64.1613388  48.9438744  54.6171989  65.0802155
  49.5047989  53.9011307  63.8704262  76.4221191  20.7578297  80.8565674
  76.9468002  20.5609112  81.6325531  76.7723694  20.1808205  80.1778793
  51.6659126  12.9745855  30.6896667  51.1153641  12.3525047  30.2141228
  51.3662949  13.8342762  30.3940449  23.1329727  62.8203964  15.2270613
  23.7664013  62.9739990  15.9280643  22.3744297  63.3517189  15.4690142
  10.2848425  34.9046936  15.5937376   9.7180433  34.1350555  15.5424728
  10.0849743  35.2930336  16.4454861  67.4629440   7.9004588  75.4314728
  67.5352325   8.8520699  75.5052490  67.1048050   7.7546306  74.5558548
  31.5177250  65.1677704  72.1583633  31.0410309  65.2062836  71.3292007
  30.8482819  64.9595032  72.8100586  13.0689335  18.3387318  58.1923523
  13.3767519  17.4324265  58.1829224  13.6362867  18.7908878  57.5679359
  43.1845741  11.4342518  79.4159241  43.8419609  11.8247433  78.8400879
  43.4820061  10.5333052  79.5426559  83.5799561  37.1102028  12.9514256
  83.5442352  36.7948952  13.8544970  84.0743484  36.4380112  12.4824171
  25.9339676  63.0054092  58.9058571  25.7360153  63.9418945  58.8995934
  26.3191795  62.8362770  58.0460701  76.4735718  45.8303566  45.0906372
  76.7896957  46.6725273  44.7634506  75.9158554  46.0566444  45.8349342
  36.4390450  53.4093552  40.0532417  35.5759544  53.6899796  39.7490044
  37.0556564  53.9189034  39.5275192  20.3727303  34.4345093   9.7019005
  19.9177704  33.7652206   9.1907301  20.4341507  35.1858330   9.1120071
  11.6545820   9.3361874  19.6236629  11.2862387   9.8228655  18.8863029
  10.9272823   8.8044300  19.9469280  52.8590240   4.6169772  35.7700462
  52.4800072   3.8128963  36.1250572  52.1978188   5.2882385  35.9387245
  46.6605911  18.2081013   1.5882169  46.7132454  17.3291836   1.2127680
  47.5085068  18.3383598   2.0128331  27.8933887  23.4551392  77.0644226
  27.8339977  24.4095268  77.1074295  27.1906261  23.1454411  77.6357727
  63.1562996  58.5595169  42.8345566  63.2025337  58.6641693  41.8842201
  62.7318077  57.7110672  42.9617157  28.5319386  21.6893291   2.3749106
  28.4788609  21.7952633   3.3247488  29.4479427  21.8706951   2.1645017
  36.3328209  26.6221371  67.4655609  35.4215202  26.8858490  67.5929108
  36.6440544  26.4040508  68.3440857  12.6825809   6.9848804  88.3405380
  13.0904341   6.3476853  88.9269485  13.3531103   7.6558290  88.2122803
  49.2937737   7.8011746   2.4991806  48.4455948   7.3717713   2.3876665
  49.6247902   7.9126797   1.6079863   0.4763379  38.5483856  27.9532337
  -0.4703738  38.4930840  27.8231945   0.7113829  37.7142944  28.3597755
  77.7680130  57.8532372  18.3042088  76.8807755  57.7530861  18.6491871
  78.3316040  57.4756088  18.9794846   8.4258823  60.2192764   4.2553759
   8.5774488  59.8723526   5.1345243   7.7566910  60.8930016   4.3758316
  55.8562012   5.8241377  72.4219208  55.9351425   5.0438204  72.9706497
  56.7568321   6.1260848  72.3039322  12.3050566  62.3127518  18.8399239
  11.7069988  61.6049080  19.0797424  12.5335627  62.7257118  19.6726818
  23.2255592  34.9690437  88.4124756  22.3197060  35.1462631  88.1589890
  23.1532726  34.3790550  89.1627502  67.4249496  69.5945282  60.4694290
  68.3072205  69.8970108  60.2541733  67.5536346  68.7163925  60.8279572
  40.9422035  69.5513153  69.1908569  41.2576675  68.8313751  68.6445999
  41.6861801  69.7699509  69.7520370  26.3401051  49.3199120  72.7854233
  25.5333290  48.9169846  72.4644928  26.0701923  49.8114967  73.5611343
  21.0407314  40.9479141  12.5005960  20.2691116  40.6286049  12.9684401
  21.7820454  40.5879478  12.9875364  55.2112846  47.1626129  30.3682060
  55.8924942  47.5383835  30.9258633  55.2345505  47.6926689  29.5715046
  60.3681564  57.3762550  55.0623741  60.4398918  58.0966988  55.6885109
  59.5055351  56.9972572  55.2311325  23.2414856  55.9534569  33.9085884
  23.5292091  55.9554749  32.9956589  23.0031452  56.8632545  34.0866089
  82.5730362  67.8888397  14.9866476  81.6782684  67.6803436  15.2552586
  82.6965790  68.8001709  15.2520571  12.1713991  59.2414818  17.9260330
  11.6342297  59.6224442  18.6206913  11.5433884  58.8083611  17.3478966
  63.8488274  63.9119492  16.6115265  64.1511536  63.3345985  15.9104586
  63.0043526  64.2408905  16.3034859  58.7375298  34.7625198  17.0763073
  58.2460632  35.0443726  16.3047810  59.6128426  34.5643158  16.7434731
  52.9308586  37.8442764  84.3135681  53.0381889  36.9973946  84.7465820
  52.3053093  37.6754570  83.6090012  60.3578072  63.9779968  25.3324242
  59.9820137  64.2526779  26.1688232  60.9225388  63.2379150  25.5551014
  67.1051712  62.0456772  19.9698486  67.0817413  61.1555138  20.3209782
  67.4786301  62.5721893  20.6766300  16.0291405  69.7158508  33.1516418
  16.5526524  68.9946976  33.5010834  16.6393414  70.4514999  33.0995712
  58.2683067  39.6445389  71.9987259  59.0524635  39.1202812  72.1614609
  58.4669914  40.1305962  71.1984100  79.3326035  44.7835121  10.5785875
  79.1714706  45.2228355  11.4136114  78.4641190  44.6845970  10.1884832
  74.6559677  21.1831760  32.2719917  74.3814697  20.6689911  31.5127182
  75.5475922  21.4616642  32.0629997  79.4292450   4.1451244   4.1713438
  79.6496964   4.2401662   5.0979524  78.9858017   3.2986305   4.1162467
  17.8634796  17.2758656  77.8662567  17.6217232  18.1438332  77.5431137
  17.7019958  16.6911011  77.1258469  13.2993870  69.4906998  17.7761383
  12.6048098  69.3328705  18.4155788  13.5556889  70.4015274  17.9208221
  58.1949463   3.8015635   7.2498736  59.0310364   3.6462529   7.6892681
  57.5411606   3.4253647   7.8391705   2.3953903  23.0831680  39.0867310
   2.1251926  22.2888889  38.6259193   3.0677323  23.4689083  38.5251350
  55.2779846  15.4380455  71.3134842  55.9515953  15.9134264  71.7997894
  54.4899902  15.9726458  71.4109573  82.0454025  10.8726358  84.8262787
  81.3292236  10.5232258  85.3565903  82.0464630  11.8112774  85.0138474
  60.4231911  59.4900513  72.5045013  60.7947197  58.9223175  71.8293076
  59.4925117  59.2668076  72.5196457  52.7774353  14.9743319  16.2513752
  52.1602287  15.5899420  15.8560143  52.4453392  14.1109571  16.0053501
  65.5698700  27.1735516   1.9309655  64.9360123  26.7603741   2.5172591
  65.0484238  27.4697495   1.1849167  62.1202736  30.8516769  44.5571251
  62.3372612  31.2524014  45.3988914  61.2303848  31.1514416  44.3714600
  71.6438370   1.4139500  44.1682777  72.2502365   1.3229347  43.4332733
  71.1280823   0.6077021  44.1545219  43.6044121  10.1109238  87.2496185
  42.6972504   9.8234339  87.1464615  44.0402756   9.3773794  87.6834030
  18.3758984  53.4567261  47.9304810  19.2372322  53.3996239  47.5168686
  17.7613564  53.2111588  47.2389145  82.0388947  36.7119751  40.3454323
  81.3438263  37.3600769  40.2310791  82.0659485  36.5537491  41.2890778
  33.1527824  23.7117996   5.0754104  32.4404068  24.2681026   4.7603221
  33.6910400  23.5500927   4.3005815  66.3096848  53.3727722  69.5663223
  66.4929581  52.5396690  69.1320648  65.4476089  53.6291008  69.2386856
  79.3134689   2.7023876  37.0301552  79.0987625   3.2140958  37.8100853
  79.1683655   3.3050935  36.3008270  71.6956711  69.0394440  19.4607735
  71.1898880  69.8135681  19.2134914  72.2788162  69.3461075  20.1551342
  32.0959930  67.1829834  47.7506981  32.2828331  67.0417557  46.8225937
  32.9189186  67.5106812  48.1135178  54.6185226  57.8966370   5.0893354
  54.5827904  58.0080490   4.1393132  55.4387321  57.4283447   5.2448864
  36.6236420  55.7936821  86.5913010  37.0713196  55.4962234  85.7992554
  35.9228249  56.3617401  86.2713013  44.7638893  32.3617554  57.2082138
  43.8251610  32.5328026  57.2841148  44.8224754  31.5971527  56.6353455
  46.4557724  71.3717651  43.2713890  47.2425308  71.4763565  43.8064651
  46.3265648  70.4248276  43.2180099  69.7996826  22.9102573  29.2272587
  70.1950073  23.6475220  29.6924362  68.9091263  23.2008915  29.0306129
   6.8669600  25.6406403   2.5157292   6.3743453  25.7832317   1.7075022
   7.2711501  26.4879704   2.7025239  48.5919914   3.2310057  15.4497442
  48.5049515   2.8720362  14.5666838  47.8159485   2.9166856  15.9136314
  10.6755543  39.7235527  81.6327286   9.7607164  39.4625778  81.7385330
  10.8425760  40.3142853  82.3671494  36.8467789  62.1967468  68.7582397
  37.0651741  63.1159172  68.9120560  35.9060936  62.2004509  68.5812454
   9.4551430  54.2758484  74.3795395   9.0280132  54.8760948  74.9906845
   8.7759171  54.0617561  73.7399673  10.9327374  61.8545456  38.7360802
  11.6916361  61.5172920  39.2120667  10.3101749  61.1274757  38.7318649
   6.5127401  17.7296486  67.1849289   7.0940242  18.2324905  66.6144104
   7.0973010  17.1442356  67.6663971   9.5758886   2.1974103   6.8477998
  10.1450481   1.4580570   7.0614500   8.8905191   2.1728511   7.5155554
  76.2578049  11.8232012  87.4844055  75.5824966  12.2939787  86.9959717
  76.4616318  12.3957949  88.2238770   2.0829518  49.0063934  24.3982525
   1.2803096  49.4377365  24.6914101   2.1818933  49.2789764  23.4860344
  26.4468403  67.2306290  30.5112305  26.8250351  68.0652390  30.2344112
  26.3026104  66.7507858  29.6956463  16.9334068  19.1661530  82.4752731
  17.0683308  19.1264305  81.5284576  16.2702351  19.8460388  82.5943832
  58.4628487  54.0344810  13.8549528  59.0691032  53.9728508  13.1167870
  57.6678391  53.5978851  13.5490484  82.4240417  60.4404373  33.0626526
  82.5537872  60.1596184  32.1568184  82.6106644  59.6599617  33.5844345
  83.1056061  62.3309479  63.5684242  83.7939606  62.7492218  64.0855713
  83.5742340  61.8798294  62.8662071  63.3702621  30.5712185  88.5057068
  62.8062668  30.0159912  87.9673157  64.2384186  30.4839134  88.1121216
  63.1210747   3.5195489  16.3775654  62.7938805   2.6990879  16.0087585
  63.5929489   3.2557216  17.1674786  52.0599442  44.8643341  10.7016459
  51.1833725  44.5724144  10.4513674  52.0264359  44.9322128  11.6558485
  31.0587006  14.7576447  75.2898865  30.9200535  14.7863340  74.3432159
  31.6915760  15.4552031  75.4605179  25.4909000  38.5643501   4.3185482
  25.7054844  38.9645500   5.1611776  25.5273075  39.2882729   3.6933763
  11.7051916  12.4730291  76.6680527  10.9207964  11.9707899  76.4473419
  11.7864799  12.3852129  77.6177368  20.0248642  44.1982231  33.5324860
  20.3241310  43.9046021  34.3929863  19.1597614  44.5741882  33.6952095
  24.9723320  40.1932869  85.5610809  25.4934139  40.9960022  85.5422592
  24.2879734  40.3365974  84.9073639  36.6912041  17.2994194  48.7183113
  37.0061226  17.4831104  47.8332596  36.6261978  18.1597786  49.1327858
  36.8436623   9.1619291  12.4352646  36.4970970   9.4994678  13.2612133
  37.5515785   8.5725842  12.6955767  24.1316929  65.6010284  35.3426285
  23.8787785  66.1826935  36.0595245  24.6764297  66.1449356  34.7737122
  24.5737438  12.8887758  64.9062958  24.0066223  13.6292095  64.6909790
  24.7971230  12.5038052  64.0588684  27.7057190  42.7327118  71.3317719
  28.1006527  43.5812569  71.5323334  28.4500179  42.1594810  71.1483002
  41.2261658  34.2467270  17.7753353  40.5709763  34.9175682  17.5831776
  41.5085297  34.4370003  18.6699295  47.7981224   9.7458525  41.4533234
  46.8846359   9.4631109  41.4105148  47.9091263  10.0623455  42.3498383
  10.8667736  26.7376518  12.4102516  10.8367643  27.2068577  13.2440252
   9.9848595  26.3809605  12.3042707  86.6925278   4.7098975  63.6198883
  87.3770218   4.0485401  63.7214470  85.8740997   4.2274137  63.7365685
  20.7258968   2.8290956  58.3556252  20.5114040   3.7196188  58.6334648
  20.3073349   2.7378986  57.4996338  81.5595016  65.6296005  32.2248802
  81.1214600  64.8776169  31.8262863  82.2599869  65.2465439  32.7529144
  35.5139351   6.6671500  61.9791031  35.3977776   5.8835063  61.4418488
  36.1960487   7.1664586  61.5300560  33.9850273   1.5215060  20.4969158
  33.8760376   1.4602908  19.5479126  34.7478027   0.9750618  20.6861420
  31.4921341  27.1670742  78.8865662  31.5079670  26.7609119  78.0199585
  31.3794956  26.4345760  79.4923630  60.5727692  69.6511154   3.5410717
  60.7819328  69.0601120   4.2643976  61.3439064  69.6190109   2.9748986
  56.3060036  56.5878830   7.8684535  55.5103989  56.9560928   8.2527304
  56.9791298  56.7237587   8.5352898  78.7369919  15.1006432  64.4852676
  77.7863159  15.1125803  64.5961533  79.0128174  15.9949503  64.6861954
  70.0639038  16.7593307   2.8273807  69.4757309  16.1289539   2.4115591
  69.8732758  16.6841183   3.7623863  56.7955322  56.3396873  75.2917709
  57.3116646  55.7367020  75.8267899  55.8891106  56.0626144  75.4254074
  24.1941071  48.9412346   2.6512637  23.4081364  49.4726601   2.5244889
  23.9840679  48.1016388   2.2423708   9.4820890  43.1800423  14.5246239
   9.3834925  42.4376259  15.1207190  10.0253277  42.8442345  13.8116331
  21.7639370  55.6731071  25.2854767  21.6558170  56.6189690  25.1860428
  21.2548809  55.4545937  26.0660820  33.0717659  64.6085663  57.0379333
  32.1305237  64.4345703  57.0419197  33.1450424  65.5350418  57.2671013
  46.3642044  18.4341507  69.1204758  46.3387489  17.8124466  69.8478470
  45.8684807  19.1904373  69.4343567  49.5935173  32.9571152  71.3333282
  48.8830986  33.2737083  70.7753754  49.5799751  33.5401917  72.0923233
  33.5360870  62.2053452  15.2899580  34.3398590  62.4394608  14.8258696
  32.8449135  62.6763725  14.8245068  46.6700630   9.5135918  55.1114235
  45.7359276   9.3176279  55.0391350  47.0063667   8.8558464  55.7201118
   6.3438172  60.1816216  39.7397728   5.6249266  60.6178322  40.1971016
   7.1295991  60.6418304  40.0347099  57.6475143  35.5528946  31.3421993
  58.0798149  35.0202141  32.0097313  58.0225296  35.2509117  30.5149136
  39.2005997  52.9815483  27.5190811  40.1327477  53.1898727  27.5817528
  39.1720619  52.1523285  27.0417805   9.0845118  38.4295998   4.3064880
   9.8975983  38.2247353   4.7681708   8.6548538  37.5821419   4.1905489
  82.3579788  48.1610718  62.3723869  81.4320068  48.2627678  62.5925560
  82.4702148  47.2200546  62.2377815  16.4924316  42.2060585  68.0826187
  16.6851864  41.4855232  67.4826965  17.3464832  42.5939789  68.2732697
  36.1771507  29.5373287  10.2145405  36.4893341  28.7208786  10.6046486
  36.0991249  30.1411934  10.9531136  76.3475037  43.8269730  40.7847252
  76.0657806  42.9541512  41.0586586  77.2900009  43.8377800  40.9515343
  57.7155571  38.5423698  55.7172356  57.8003731  37.8679848  56.3912125
  57.5700836  38.0541458  54.9068604  30.1060429   5.3654509  52.5096817
  30.2868214   4.7343807  51.8130493  29.3054180   5.0427651  52.9233322
  69.1385040  68.9596710   2.3614819  68.3578262  69.2353745   2.8418531
  68.8955231  69.0461655   1.4396864  41.3053017  71.6260681  20.1596222
  40.9096222  70.7574844  20.0873184  42.2407951  71.4548264  20.2680740
  64.7153473  65.4880142  73.4312820  63.9551544  65.0484161  73.8122025
  65.4326935  64.8637619  73.5405960  16.3106537  22.8989601  12.5940342
  16.0820408  23.7286510  13.0130596  15.6593380  22.2782116  12.9206705
   8.7397165  18.3724995  35.3106956   8.2953510  17.7966061  35.9328880
   8.1897440  18.3489304  34.5276222  62.9874763  19.6346493  65.9883499
  63.0150642  19.9059811  65.0708237  62.1855431  20.0294056  66.3308411
  15.7278261  54.8729897  57.6922531  15.4215345  55.7670059  57.5401001
  16.4559975  54.7619896  57.0809593  78.7056046  39.1495819  57.1638565
  78.0918198  39.5916100  57.7504616  78.1503220  38.7416801  56.4993935
  56.1031265  35.3050575  51.5797348  55.8628693  34.4202690  51.8547935
  55.3878555  35.5800896  51.0061684  67.8883286  23.7894516  88.1667862
  67.0664291  23.5457783  88.5926361  67.9042892  24.7456970  88.2064133
  44.3915100  54.7054710  59.5073204  43.4445267  54.7308159  59.3701744
  44.7522392  54.4875412  58.6478958  44.7926064  69.4947128  40.1971626
  45.7017708  69.6783829  39.9606972  44.3120193  70.2770615  39.9266129
  73.7300339  64.3342590  41.4470482  74.1704865  63.5346642  41.1591721
  74.1417389  64.5461502  42.2848015  14.2845783  50.7497139  64.9004974
  14.5240021  51.4486732  65.5090714  15.0975695  50.5456734  64.4382782
  73.8543930  15.5209656  62.2878456  73.1982498  14.8644190  62.0540657
  73.8128586  15.5716276  63.2428017  14.7493134  48.0891647  70.3350830
  15.6774225  48.1689377  70.1148987  14.5310202  48.9200592  70.7572098
  58.4487915  52.2340927  26.7302818  57.6598740  52.4920044  26.2534943
  58.2199173  52.3499031  27.6524734  47.1587524  58.4148369  20.8860302
  46.6990585  58.9832077  21.5039845  47.5251236  59.0144577  20.2360611
  80.3950958  30.9503250  60.9991417  80.2426682  31.3442535  60.1401787
  81.1545639  30.3820477  60.8706512  57.9183617  54.1300812  61.1485252
  58.7764511  54.2499657  61.5553932  57.3506165  53.8477936  61.8656120
  53.0157852  52.9442368  26.6943874  53.2447433  53.8421898  26.4546223
  53.7852402  52.6171684  27.1604347  18.2727432   7.2458310  57.3661385
  19.1276741   6.8154006  57.3588028  18.0739574   7.3678017  58.2944908
  81.6013718  33.9235992  34.7386093  82.2995300  33.5842361  35.2986450
  81.4967728  33.2595139  34.0572281  47.4212494  50.1548576  67.7024536
  46.7805595  49.5298920  68.0418167  47.8727875  49.6799316  67.0047455
  47.2508011  11.0876818  67.8806305  46.4501190  11.4075146  68.2963867
  47.3326950  11.6116943  67.0838013  82.0590897  34.6458740  31.5758438
  81.9719925  35.2712822  32.2952271  81.2088928  34.6661987  31.1365433
  29.2860050  27.4092903  23.3529205  29.8617725  28.1656189  23.2402687
  28.5205326  27.7570457  23.8104668  63.4515686  15.5353584  30.8283577
  62.5148773  15.3382883  30.8274345  63.5121613  16.4124794  30.4499130
  11.5434561  24.9746094  32.8587189  12.0302544  25.6358891  33.3506241
  11.7833691  25.1307507  31.9453239  18.9793034  70.6256485  41.2858238
  18.7423820  70.2203674  40.4516525  19.7579460  70.1478806  41.5716362
  39.3964310  64.7250137  82.7383118  39.8078613  65.0488358  83.5396271
  39.0386581  65.5078659  82.3195419  34.8276634  21.5835361  30.3140526
  34.1657524  21.0498428  29.8744183  34.4431229  22.4593048  30.3513527
  60.5332985   2.4051459  38.6315575  60.6461945   1.5079106  38.9453354
  61.1570854   2.9186482  39.1448174  51.7367477  67.8627396  50.8964691
  52.2245674  67.1375275  51.2867622  50.9407082  67.4579773  50.5519142
  69.2936707   4.3646626  84.2980728  69.7946167   3.6557074  83.8947525
  69.6941910   4.4809089  85.1596375  63.5482330  10.3133373  82.3683243
  63.4746399   9.8025627  81.5621490  63.4100533   9.6760788  83.0690689
  68.6023560  29.8709679  40.2957039  69.4978638  29.8792381  39.9577103
  68.3406830  30.7916737  40.3032227  85.3649826  10.4882689  67.3505096
  85.0190277   9.5964947  67.3146515  85.7512970  10.6302319  66.4863129
  15.6112614   8.3793077  35.3057671  15.1946096   8.5355911  34.4582939
  15.0115299   8.7676382  35.9427567  55.2446480  34.6181259  29.9202271
  55.6711540  35.0315781  30.6708164  55.9356308  34.5462570  29.2617378
  22.9721622   1.7694036  40.1920815  23.2422447   1.2226771  40.9299011
  23.6277027   2.4660456  40.1576080  75.0402145  66.7785721  68.7944717
  75.0468674  66.1775131  69.5394058  74.6580276  67.5849533  69.1407700
  33.7394104  34.4064407  76.2662582  33.1145058  33.9140739  76.7985229
  33.7271271  33.9679565  75.4154892  86.6450806  14.5250416  68.3357010
  87.4096756  14.0013018  68.5751266  86.1741257  14.6517611  69.1593399
  72.6796570  51.9752388   0.3601893  73.3174133  52.6508789   0.5904356
  72.7170258  51.3530807   1.0866550  63.4174385  14.6267204  60.6369820
  62.6077385  15.1363764  60.6664658  63.4876823  14.2380476  61.5088959
  56.3317986  38.9033203  41.6377792  56.0547600  39.1808662  40.7645950
  56.5694466  37.9821281  41.5321350  20.9055176  59.1025696  32.4387550
  21.5033321  59.6762886  32.9180183  21.4573994  58.6748924  31.7839622
  44.5590858  18.7942257  78.1773682  44.9689560  19.5671940  78.5656433
  43.8108406  19.1391373  77.6901321  68.8645020  50.4273720  10.5293531
  67.9462128  50.1865959  10.6518650  68.8565140  51.0327568   9.7879515
  68.1622086   1.0573409  17.1407623  68.0479126   1.3008610  18.0593834
  68.6598129   1.7815592  16.7611198  11.1350403  37.3888359  14.9359789
  10.8187523  36.5135231  15.1596212  10.4287786  37.7732887  14.4167252
   4.8926592  68.0122452   9.2206678   5.3499565  68.1358185  10.0524378
   3.9815633  67.8560638   9.4691515  57.4313431   4.0252862  18.4616356
  58.3200302   4.3524184  18.6010990  57.3289032   4.0084128  17.5100822
  12.2607546  42.7452011  51.0217133  12.3741121  42.5786819  51.9574738
  12.9421577  42.2209663  50.6008797  33.2252693  51.2472839  29.8617001
  33.2748299  51.8713646  29.1376171  32.2911758  51.1859932  30.0615616
  18.8304005  62.8118515  36.1366158  19.6243725  63.1540108  36.5474281
  19.1349583  62.4147987  35.3206329  70.2924194  33.6004105   3.6234567
  69.7799988  33.8918114   2.8693075  70.7705917  34.3806992   3.9040489
   1.3368969  62.5902290   9.8883190   0.6739316  63.1154594   9.4401655
   2.0706346  62.5561905   9.2745581  44.8454361  56.5499878  61.4335976
  45.0261230  55.7560081  61.9367638  44.8224716  56.2563400  60.5228424
  63.3521385  17.1293736  63.1305199  62.5354271  16.8367043  62.7261009
  64.0058365  17.0482063  62.4360237  58.2441902  10.5195560   2.7583230
  59.0691605  10.1142082   3.0254266  58.1259842  11.2470331   3.3690898
  35.5510941  70.4332657  77.4995956  35.4742355  69.5707703  77.9075470
  36.2635651  70.8604889  77.9750900  16.9250584  59.9329414  43.9980202
  17.5027180  59.1712151  43.9499130  17.2024517  60.4902039  43.2708702
  66.1961823  11.4860744  21.5067978  66.3216324  10.5395927  21.5751057
  66.9448318  11.7905083  20.9938812  72.0536270  62.9202118   4.1978493
  72.2849884  62.2907410   4.8808370  71.1505661  62.7022400   3.9672019
  16.2638760  59.5939026  40.6984291  15.8821650  60.0230370  39.9326782
  16.7967091  60.2727013  41.1126175  40.3839111  63.6086082  17.6057110
  40.0436363  64.4916077  17.4616184  40.0452690  63.0984154  16.8700104
  20.3701382  67.5954514  31.0431252  19.8775501  67.4495316  31.8507748
  20.9905434  68.2903519  31.2631989  82.0597076  29.2381001  46.0197258
  82.2965622  28.6014481  45.3453293  82.7515411  29.8983765  45.9793243
  35.1594315  13.8817616  83.2316589  36.0148773  13.4546251  83.1869965
  34.5305824  13.1735830  83.0928650  16.2874451  26.7796288  70.8226395
  15.6088486  26.9321346  70.1650085  16.8305492  27.5672951  70.7935028
  78.2906876  11.2989445   8.9377251  77.4055099  11.5104847   8.6411791
  78.8215027  12.0449562   8.6585455  69.0512009  52.0047493  75.8500214
  69.0980988  51.5937347  74.9868317  69.6207199  52.7710419  75.7816849
   0.5396258  57.6086044  40.9041176   1.0054883  57.5532227  40.0697670
  -0.2950627  57.1690025  40.7420235  13.9388924   0.3208549  55.8732185
  14.7099571   0.1229445  55.3416901  14.0048933   1.2590927  56.0509415
  83.5056839   8.5016460  28.1298485  82.5907364   8.3247910  28.3485394
  83.7301865   7.8344684  27.4812298  19.3915939  59.3191528   5.9497690
  20.2097359  59.3145828   6.4466138  19.6224709  58.9336166   5.1046124
  61.1326141  22.9392014  88.9034119  61.1314087  22.9576359  89.8604355
  61.3213844  22.0273762  88.6816559  22.0080853  25.6067715  13.8277493
  21.9460144  24.8877201  13.1989851  21.3732090  25.3848305  14.5088558
  78.7781982  26.2337818   3.9075525  79.1469269  26.5680332   4.7251992
  77.9588089  26.7165947   3.7993052  75.3525162  20.5277252  26.2698460
  74.4663544  20.8890285  26.2901058  75.4312363  20.1350231  25.4004688
  12.2867794  49.9366684  85.4011612  11.4740257  50.4413300  85.3698273
  12.6374016  49.9918671  84.5121994  66.5749969   8.6008635  12.0998278
  65.8969040   8.7232161  12.7642479  66.1632080   8.0471163  11.4364834
  22.8141327  26.1824360  64.8017120  22.8685970  26.6781693  63.9846954
  22.1394653  26.6323090  65.3103104  28.7854900  10.5139999  49.7219009
  28.6074600  11.3586435  50.1355591  29.2240963  10.7371092  48.9008789
  17.2115364  12.0652142  59.0393562  17.4359818  11.2964134  59.5635719
  16.2924671  12.2356596  59.2454948  67.4059525  20.0855656  77.0816116
  67.7966766  20.6669102  77.7339935  66.4766083  20.3148060  77.0825119
  70.5841293  49.0519409  50.3702888  70.4325104  48.2825356  50.9191589
  70.6175232  48.7068558  49.4780807  79.7438812  48.5396957  62.3876419
  79.4784164  49.4067307  62.6942558  79.5466080  48.5461044  61.4510117
  79.5461731   0.4902342  74.8841782  79.5222397  -0.4666419  74.8910522
  80.3251190   0.7140056  75.3934937  10.3639450  36.7465324  80.0994339
  10.9304018  36.6018143  80.8573380  10.8284302  37.3981628  79.5742111
  12.2928066   8.2119541  22.0077419  12.4483910   8.5486717  21.1253338
  12.3449335   8.9839020  22.5713120  80.2083359  61.4325409  43.0287361
  81.1022034  61.1685677  43.2468109  80.3103180  62.2645264  42.5665359
  13.0803576  18.4275551  23.6817112  13.3336325  19.0685616  24.3459358
  13.8364811  18.3770943  23.0969353  63.3168869  20.7193050  86.1139069
  63.5950432  20.0739975  85.4639587  64.1305542  21.1280689  86.4090195
  11.6217365  13.8764114  12.0301008  11.6962118  14.7190971  11.5822544
  12.3016195  13.3327417  11.6320877  67.6818085  48.0637894  61.8824463
  68.4163437  48.6771431  61.9046440  66.9979706  48.5264778  61.3981781
  66.7682571  32.9083023  71.2338562  65.8819809  32.5672150  71.3538971
  67.1964493  32.7648621  72.0778427  32.0023346   4.9696565   4.2838759
  31.4351597   4.2412786   4.0308743  32.1650200   5.4414482   3.4670670
  78.0892792  16.7648220  83.3632126  77.4279709  16.4924698  82.7270355
  78.2182312  15.9960136  83.9186783  44.6658134  34.8287811   5.7002354
  44.0656738  35.5591087   5.5496130  44.4449272  34.1929893   5.0196390
  79.8091583  28.6213799  25.9200954  80.6176910  28.6084118  25.4079018
  79.4396591  27.7456989  25.8065929  86.3401413  17.0050182  24.8822136
  85.5062714  16.6110706  24.6258850  86.0951920  17.8184834  25.3232460
  54.6063957  36.6547661  79.8099365  54.2331352  36.9061432  80.6547546
  53.8473167  36.5298233  79.2403641  52.4333916  58.1219292   0.8164664
  52.6336861  58.3407631  -0.0936033  52.1551895  57.2065239   0.7870377
   3.3605630  44.8515701  70.3415070   3.1503201  45.3511734  69.5525665
   2.5179017  44.7280045  70.7784119  49.8660049  33.0811157  79.3112869
  49.6154556  32.2724953  79.7580414  49.2443657  33.7344856  79.6320801
  86.6329117  26.7841015  31.6336021  86.8496094  26.0067253  31.1188602
  85.6885300  26.7211723  31.7764606  44.3774109  42.7072716  82.9475327
  44.5887604  43.2825317  82.2122498  43.7248421  42.1008606  82.5973129
   8.0253210  71.2990494  67.5574265   8.3849745  71.7550049  68.3183365
   8.2480698  71.8601608  66.8146133  84.4581833   5.3509569  54.4754181
  84.9364548   5.8973532  53.8517647  83.9336624   4.7662001  53.9284592
   1.9578168  42.1660538  36.9851532   2.4132819  41.3523521  36.7691231
   1.0369619  41.9814453  36.8002853  30.9427319   6.0149846   0.8991356
  31.4308376   6.7478228   1.2745452  31.6105309   5.3579121   0.7028431
   8.1759443   5.6196380  27.0013599   7.7582035   6.1865125  26.3529949
   7.7518444   5.8485837  27.8283749  19.0382557  22.2295303  24.0660744
  19.4674530  21.5361004  24.5672474  19.6443253  22.9689503  24.1126709
  68.3599167   2.4525402  44.0189362  69.0839996   3.0471416  43.8230019
  68.0116959   2.2084310  43.1613884  73.2536011  44.8190727  68.5986710
  73.6219788  45.5871468  68.1621017  72.4307404  44.6536713  68.1384735
  17.7313690  50.0192642  56.3194618  17.3363342  49.3174744  55.8020935
  17.2948246  49.9649506  57.1695862  24.1583691  21.9963856  74.8752747
  23.5669708  21.9748459  75.6276093  24.8064194  21.3167133  75.0605011
  82.2793274  38.5939674   2.5027475  82.4262695  39.4454346   2.0908659
  82.6289368  38.6927643   3.3883240  63.5193253  50.8943062  54.7599564
  63.7505913  50.4861107  55.5942955  64.2419739  51.4953384  54.5789185
  78.0944443  59.7110443  56.5912895  77.6286240  59.7597694  57.4260788
  77.8403931  60.5093727  56.1282959  46.8261261  32.1999969  73.2793427
  46.3215981  32.2873344  72.4706116  46.3014412  32.6534691  73.9391174
  23.1855259  53.5408783  26.4210625  22.9822311  52.8514252  25.7889576
  22.7463207  54.3185654  26.0767708  28.8198128  21.9144573  86.8165817
  29.0625458  21.8430462  85.8934250  29.1992321  21.1362782  87.2248840
  46.2384644  56.5084190  18.1167622  45.5048637  55.9538956  18.3824024
  46.1882095  56.5305557  17.1611385  84.0757675  44.3831024  81.3902435
  83.5008545  45.0455246  81.7735291  84.7750549  44.2712975  82.0342331
  32.8313560  24.3457413  75.1366272  32.0880470  23.8369560  75.4604492
  33.4940796  23.6900368  74.9196396  41.3976059  36.1582985  85.0459213
  42.2342224  35.6978188  85.1112366  41.3597260  36.4585457  84.1378174
   7.5614662  36.9786072  80.4457932   7.2344666  36.4354973  81.1629562
   8.4920149  36.7622643  80.3865662  47.0438309   2.5637920  44.2820702
  47.1697273   1.8159853  44.8661652  46.1085815   2.5539057  44.0784912
  34.2005196   1.4742259  73.6194153  34.8857918   0.8809608  73.3117371
  33.7559471   0.9872795  74.3133011  29.3928413  35.5383720  86.2939911
  29.7076702  34.9059105  85.6481552  28.5197582  35.2250595  86.5301895
  82.6046982  69.6131058  21.7138348  81.6993408  69.6179428  21.4031181
  82.6146698  70.2453308  22.4324608  17.1097221  68.9902039  63.5140381
  17.0258141  69.6583557  62.8337669  16.3684387  69.1489868  64.0984344
  68.8812180  34.8502731  78.1371231  67.9646225  34.9730797  77.8901291
  69.3699722  35.0059891  77.3289795   6.7986021  27.0836754  58.7949181
   6.2227383  26.4596405  58.3531113   6.2064838  27.6363239  59.3050232
  51.7064209  34.9366226  16.7884178  50.9635277  34.5520325  17.2536411
  51.5160713  34.7813263  15.8632793  36.4328995  11.0045919  26.5446377
  36.6691055  11.8364830  26.1342754  35.6099625  11.1865072  26.9984112
  66.0373840  49.4040947  73.0767517  66.0876389  49.6121902  74.0097046
  66.4489975  50.1510811  72.6422272  68.6373825   1.0442529   4.1125140
  68.5840836   0.6193742   3.2564361  69.2828598   0.5286781   4.5960140
  40.9816628  13.4505825  81.6815414  40.6232109  14.1656923  82.2072449
  41.8639984  13.3175793  82.0279846  79.5342255  26.0754089  79.1962814
  79.7013397  27.0060463  79.0472183  78.7539825  25.8857098  78.6752548
  40.2949333  23.7506351  19.1397705  40.9272423  24.3043060  18.6816597
  40.4352722  22.8760643  18.7769184  65.1646729  32.6988335  60.2873306
  64.3484955  32.3149185  60.6078033  65.8529892  32.1766510  60.6993713
  15.8718710  29.9130707  17.4847145  16.2953415  29.8294544  18.3390636
  15.9030743  30.8502808  17.2926292  40.6848335  15.2761221  13.9668150
  40.3185234  15.2238512  13.0840244  40.6860161  14.3714666  14.2795897
  32.5116501  59.9158974  52.4489517  32.4162788  59.9359856  53.4011765
  33.0909843  60.6516266  52.2506905  65.4025345  43.6449127  72.3887329
  64.5218811  43.8246498  72.0595474  65.5535431  44.3203239  73.0499802
  18.5201302  43.8562546  28.5548573  17.9111061  44.0048752  27.8315086
  18.4602051  44.6506653  29.0854759  54.2931976  63.9656563  13.4386539
  55.1953468  64.0899963  13.7334337  54.0989342  63.0505714  13.6414251
  75.2725372  37.6711731  74.7294388  75.5883789  37.1705856  75.4816971
  76.0290909  38.1867752  74.4501343  82.3466263  68.5404053  73.5879288
  83.2221451  68.4527817  73.2110596  81.9357758  67.6886444  73.4398270
   7.2601876  36.1241989  67.7561722   8.2154446  36.1055603  67.6981277
   6.9709535  36.3521996  66.8726654  58.8722076  69.3804245  61.5474586
  59.1827164  70.2437820  61.2746315  59.3714600  68.7654877  61.0100365
  72.4613113  19.1771717  65.4162979  73.3050461  18.7536354  65.2583160
  71.9453201  18.9823723  64.6339722  85.4992981   3.9982591  45.9845390
  84.8946152   4.2571492  45.2891541  85.2131882   3.1201429  46.2361031
   7.9867535  19.1411610  74.8445129   7.6923985  19.9903355  74.5151367
   8.8436661  19.3186569  75.2323608  51.2337952  52.3298073  49.2636986
  51.0077057  52.8754425  50.0169563  51.3755722  51.4582634  49.6332130
  13.5785809  14.0178556  64.8300476  14.3341637  14.0807552  65.4143219
  13.8040848  13.3139906  64.2218094  48.2785416  57.8888054   5.4125881
  48.8661575  58.1363869   6.1264825  47.4067574  57.8922806   5.8078208
  25.0781097  16.9368114  13.5629215  25.3215847  17.3049240  14.4123001
  25.8403606  16.4222603  13.2975073  63.2709999  44.4704552  70.7974319
  62.9485664  45.2871475  71.1785965  63.5437088  44.7106934  69.9119110
  66.3814087  27.0053692  11.1268015  67.1168976  27.1151390  11.7294960
  65.8861694  26.2686806  11.4849377  59.4754372  49.7504768  34.8209000
  58.8254547  49.0908623  34.5787086  59.6720886  49.5669708  35.7395325
  84.7061462  68.9627228  84.6738434  84.5749969  69.9051971  84.7776718
  85.6162720  68.8176346  84.9324036  68.4302521  65.2843857  58.1312485
  68.4919586  66.1206589  57.6696434  69.1232681  65.3229446  58.7903976
   2.7902920  64.7530365  84.5382080   1.8612843  64.8179092  84.7594986
   3.0447106  65.6467056  84.3082886  59.5898094  43.1634827  38.0486374
  58.9263344  43.7858238  38.3465157  59.5437813  42.4444199  38.6787643
  39.7793159  10.8525076  16.0355148  38.9283257  10.8800058  16.4728832
  39.9590683   9.9194927  15.9197416  13.2925501  19.2571678  52.5107269
  12.6802082  19.5900574  53.1668167  14.1528263  19.3399868  52.9221878
  19.6536312  10.7709675   2.9897659  20.2562447  10.4727774   3.6710668
  19.9783974  10.3626022   2.1872721  61.5438385  34.7515259  11.4948301
  60.9746590  34.9252167  10.7450972  60.9416695  34.5500755  12.2111006
  13.7157173   9.7002411  87.1292572  13.7046204  10.6062870  86.8207321
  13.9685640   9.1886234  86.3607864  25.1698475  27.2387257  76.5599442
  24.9834671  28.1539726  76.3506165  24.3186493  26.8036633  76.5108185
  38.0751915  56.2471008  47.6657677  38.0623627  56.8663254  46.9359550
  37.5454750  56.6656494  48.3443375  17.0627365  28.4099407  13.8532705
  17.9112396  28.3181496  13.4198542  17.2524910  28.9082966  14.6481714
  17.3870392  37.9379272  88.8816681  17.4319668  37.7725868  89.8234100
  17.8856831  38.7452927  88.7561874   2.5427887  59.0774040  17.8418713
   2.4893360  59.9973106  17.5827427   2.4869726  58.5929260  17.0182209
  40.0088615  33.2897377  22.6691055  40.6774712  33.9731140  22.6223145
  39.2435379  33.6737480  22.2412605  13.2804260  61.4156723  75.4943924
  13.7979832  62.0675278  75.9670944  12.9595690  61.8795433  74.7210159
  49.8947144  21.6355858  68.2498550  49.8819656  22.5653095  68.0225143
  49.4649124  21.2027283  67.5121994  66.6773529  51.8126602  71.8869858
  66.5967255  52.5511398  72.4906311  66.6590118  52.2113686  71.0169754
  72.2624969   7.6794477  26.8744736  72.9210052   7.4977798  26.2039490
  72.0324020   6.8184395  27.2236881  78.8600845  46.8573494  52.0372276
  79.0988998  46.3875961  51.2381439  79.5965652  47.4474297  52.1973495
  44.7880287  49.3091125  80.1632767  45.6540604  49.5340309  79.8232269
  44.7406731  48.3561668  80.0865631  19.8209000  71.2096786  34.2138290
  19.2361984  71.1870728  34.9713554  20.6164780  71.6319275  34.5378532
  37.5858879  45.2021942  83.8298492  37.7973289  44.3866615  83.3755035
  37.1736565  44.9212990  84.6467972  65.8908157  53.5097275   5.4154706
  65.3231964  54.1941299   5.7699137  66.6481934  53.9819870   5.0696521
  30.8899975  58.5270004  58.3344345  30.6692276  58.5625000  57.4037209
  30.6156464  59.3771439  58.6782684  23.4162025  69.4033890  82.2610550
  24.0898075  69.5525360  81.5975494  23.8823738  69.4686432  83.0945129
  40.3228340  42.3878822  24.4413185  40.3490105  43.3065948  24.7087364
  39.5999756  42.0125656  24.9441605  52.1158409  11.8613844  59.4855270
  52.2250481  12.8084745  59.3999367  51.6903076  11.5947399  58.6706314
  10.7185411  27.2865143  72.0397034  10.3019896  28.1157589  71.8050308
  10.0210514  26.7760849  72.4510422  69.5296021  56.2210960  76.6666260
  69.7538071  56.9392433  77.2584305  68.6261063  56.3991699  76.4054260
  29.2852783  44.8357391  83.8782959  28.6415710  44.6634026  83.1911469
  28.7885761  45.2790146  84.5660629  20.2913589   6.5174360   4.1074319
  20.2257366   5.7933822   4.7300644  20.8172417   6.1678281   3.3880889
  71.8599396  48.4936752  25.6059494  72.3690872  48.5622940  24.7983036
  71.0200806  48.9015541  25.3950081  28.6089897  56.9381218  86.2966614
  29.2745552  57.2056427  86.9304504  29.0841484  56.8585243  85.4695435
   0.4418935  66.5904312  16.0409946   0.3271054  67.5382614  15.9726753
  -0.4484121  66.2456970  16.1098881  75.6227570  51.3536301  53.7452164
  74.7368927  51.4048615  53.3862610  76.1820450  51.2060051  52.9825630
  15.6361713  33.7948608  26.7647552  16.5739517  33.6034012  26.7767067
  15.5676403  34.6791077  27.1248112  81.8153076  36.2196503  57.7502785
  81.3843842  36.4580231  58.5710831  81.9736633  37.0554276  57.3113861
  10.8787107  43.0494461  23.6278019  11.5668030  42.3857994  23.5794716
  10.5048609  43.0714340  22.7469025  66.5642700  14.3875799  45.1341286
  67.4122162  14.8301067  45.1714134  65.9383698  15.0428419  45.4425354
  41.3813667  68.5077896  40.1299019  41.6373711  68.2214737  41.0066681
  42.1881523  68.4594727  39.6170692  73.0916824   6.4580278  61.7682381
  73.5739365   5.9374142  61.1258812  73.3974380   6.1355662  62.6160393
  50.4282036  42.8070831  28.7380867  50.0609131  42.0698967  29.2258186
  50.3029633  42.5721703  27.8186512  16.3351765  59.8624344  46.6495628
  16.6146774  60.2950020  45.8427200  16.2938480  60.5664139  47.2968140
  58.2696533  23.8563747  70.9089966  57.5634155  23.2738190  70.6295471
  58.6987648  23.3866520  71.6241531  55.3808365  14.0976973  74.6641235
  54.4993362  14.4665823  74.7198868  55.3317680  13.4676208  73.9452133
  28.6494408  24.6468391  20.2376652  29.4264393  24.6582928  20.7965698
  28.9566212  24.2816391  19.4079056  67.4990005  40.7981224  82.9809723
  67.8696136  40.0250053  83.4066086  67.2420883  40.4925461  82.1110001
  13.8756895  68.2490845  56.0962906  13.8015823  68.5043716  57.0158424
  13.5278854  67.3578110  56.0663757  56.0996361  17.0128288  34.5113602
  56.9957809  16.6801567  34.4615059  55.7956886  17.0192318  33.6037216
  55.4218407  54.4499359  57.5258980  54.7284775  54.0036278  57.0398026
  56.2209358  53.9784164  57.2906380  16.8671970  60.6246071  85.8596649
  16.3269501  60.7136765  86.6447906  16.2396240  60.6145248  85.1369705
  23.5627995  37.3569717  16.9417763  23.7607994  38.2339211  17.2703896
  24.2289276  37.1955185  16.2736168  82.2329941   7.9175186  14.2899399
  82.4689941   7.2370729  14.9204378  82.2512894   8.7297611  14.7960615
  85.9870224  21.0431423  78.1794357  86.2351837  21.3005314  77.2915192
  86.1117096  21.8352890  78.7021103  61.8873634  42.8912239  87.2122421
  62.3946686  42.0815964  87.1540833  61.2269745  42.7125130  87.8816986
  77.9636612  19.5411072  82.7184143  77.8843918  18.6173687  82.9564438
  78.8708878  19.7649212  82.9259720  31.7360439  22.2846718   1.8422496
  32.0357895  21.9771824   0.9867756  32.4861755  22.1501675   2.4214227
  84.6591873  49.6634636  83.5911636  85.2837296  49.7975540  84.3040466
  83.9774246  50.3177948  83.7437744  75.7973557  37.9225883  37.9322739
  75.4197388  38.6861992  38.3687782  76.1047363  38.2561836  37.0893822
   7.6658645  14.9143209  50.6099396   7.5610428  14.3546448  51.3793564
   8.2977715  15.5797853  50.8821220   7.6487918  64.2777023  67.6577225
   8.0196085  64.0856781  68.5190277   7.2941952  65.1628418  67.7415466
  53.9205933  19.5375519  73.3271408  53.9951172  19.8629360  74.2242508
  53.0051041  19.2705841  73.2444687  12.9121466  63.4013710  67.4085999
  12.0044727  63.7044373  67.4311905  13.3523569  64.0077133  66.8129578
  41.9663811  40.1111679  73.5655823  42.6182556  39.5670547  73.1237259
  41.2103577  40.1034622  72.9785538  76.7736511  64.5649414  24.2703743
  77.3689270  64.5600510  23.5208015  75.8996429  64.5221634  23.8824177
  33.4237442  56.1419754  77.2451706  34.1429443  56.7720985  77.2013626
  33.1601906  56.1429253  78.1653748  78.7225418  68.5887680   4.0023279
  78.8955994  68.8870621   3.1094093  77.7678299  68.5778351   4.0704021
  28.6495495  17.8180904  10.2971992  28.8171501  17.3431263   9.4832258
  27.8116226  18.2568684  10.1502914  85.5483932  53.8644753  17.5843887
  84.8435364  54.1178169  16.9883823  86.3371506  54.2449951  17.1979904
  13.1694965  57.6630020  64.4662170  13.9425621  58.1885147  64.2602158
  12.5641956  58.2789955  64.8790054  43.7712669  17.0785923  88.0003281
  44.1443672  17.9552250  88.0927505  44.4234238  16.5927334  87.4954834
  70.9113846  33.1274567  38.5823708  70.6092377  33.9836807  38.2793503
  70.6701126  33.1022568  39.5083237  87.0603409  22.8662853  68.8619690
  87.1904297  23.7506161  69.2044144  86.1704636  22.8744488  68.5094452
  60.3615456  23.1504498  59.1834602  60.8364868  22.9593086  58.3746796
  60.1434517  22.2902145  59.5421524  47.4538574   8.4772491  22.8509235
  47.1589928   9.3568373  22.6151104  46.9510193   7.8952708  22.2811127
  46.1875153  47.4908218  73.4007111  46.9363670  48.0328445  73.6490479
  45.9161530  47.8330078  72.5489502  66.8458099  49.0970993  21.2757568
  67.1303177  49.4263268  22.1283379  66.0374298  49.5755653  21.0918503
  53.4961319  46.5403252  25.7962780  53.9941673  46.8859673  25.0555210
  54.0828094  45.9023628  26.2025375  78.9234161  59.3460312  31.2042885
  78.7893677  58.4125061  31.3679829  78.4563293  59.7835045  31.9161015
  39.0650864  62.8018303  25.0670738  38.4166527  62.8553314  24.3650036
  39.1086121  61.8701859  25.2824249  71.7947388  19.1750851  56.4184914
  70.9257050  19.3506889  56.0576820  72.0736008  18.3665314  55.9887161
  71.3953857  17.1043110  26.7878704  71.7127380  17.9353104  27.1413593
  71.8783798  16.4367504  27.2750130  29.7331409  28.6871109  85.0997238
  29.8530960  28.4068413  84.1923676  29.2824554  27.9542007  85.5191956
   5.8774805  65.7610092  17.3323193   6.3211551  66.6091232  17.3413773
   5.1337843  65.8860321  16.7428150  10.1912556  43.7257881  81.2669830
  10.3451576  43.7891006  80.3243637  11.0604362  43.5858383  81.6427078
   9.3240547  14.9519968  78.0368576   9.9939556  14.6384573  78.6444473
   9.0529718  14.1705275  77.5551453  63.8472404  58.1642647   7.2755847
  63.1752129  58.0866890   7.9527798  63.4238167  58.6581497   6.5734272
  53.9550285  37.1886635  25.0411530  54.5462303  36.6848183  24.4818192
  54.2499123  37.0005608  25.9321594  41.0518341  25.5903187  14.2977819
  41.6006050  25.2416306  15.0002775  41.3099174  26.5092678  14.2259483
   3.6474721  42.8320580  66.5218735   3.4046395  42.5687103  65.6342316
   4.5822849  42.6354599  66.5827408  35.9988556  40.3605194  34.1821060
  36.1928787  41.0866051  33.5893250  35.2099037  39.9586563  33.8183899
  14.6258240  32.3280602  31.4154167  13.7187452  32.0565796  31.2749271
  14.6581497  33.2298203  31.0960102  37.2267494   8.5379333  26.3120174
  37.0043221   9.4517021  26.4903011  37.5772285   8.2107134  27.1404629
  77.7831039  63.9473534  42.4524460  77.9686279  64.8110123  42.0837860
  78.3386688  63.3492126  41.9526367  46.2428169   4.8281817  63.2044830
  46.1059837   4.3762708  64.0371170  46.4565926   4.1301303  62.5854034
  77.3453751  50.0102348  57.8938751  77.4904938  49.5005264  57.0967712
  76.5468979  49.6416779  58.2718010  68.7622910   2.4480138  29.0592651
  67.8140030   2.5453856  28.9726372  68.8861923   2.0777454  29.9332104
  32.7382545  13.1165037  21.6856670  33.5690765  12.6426077  21.7229309
  32.0775375  12.4590588  21.9034977  83.6886673  42.3751831  36.7318840
  83.4731979  42.4440842  37.6619682  84.6447220  42.3338127  36.7099457
  80.8753891  41.2992554  78.7999039  81.1116486  40.6899033  78.1005478
  81.7047195  41.7023888  79.0566483  70.0632935  27.0192108  56.3961411
  70.1451263  26.0967026  56.1542397  70.9120331  27.4014931  56.1731567
  65.6482391   8.8311291  34.2583961  65.0627213   8.5180006  33.5689392
  65.2959747   9.6873980  34.5011864  11.8862743   3.1090169  63.9597588
  12.5137615   3.4992146  64.5682297  11.0405779   3.4728413  64.2217941
  55.7634163  54.9873123  34.0952415  55.5281448  54.3167572  33.4539680
  55.2075920  54.8006630  34.8518448  64.1767273  16.0029411  71.0547028
  65.1165085  15.8250389  71.0172424  64.1048813  16.8022633  71.5763855
  76.4235916  64.8024139  49.4949913  76.0699310  63.9168053  49.4122238
  76.5965805  65.0763855  48.5942993   1.9340094  43.9799004  84.4529037
   2.0500464  44.6866417  85.0879517   2.3888719  43.2323074  84.8407745
  84.4835205  49.0907593   2.1635995  85.1597137  48.4204483   2.2620046
  84.2730789  49.0834122   1.2298481  14.8147640  56.0510254  46.2657623
  14.0214052  56.2572975  46.7599945  15.4342022  56.7390022  46.5091019
  24.2745781  38.9045029  18.8707256  24.8941879  39.6315231  18.9320107
  23.8024330  38.9213753  19.7032089  78.7585068  70.3091125  29.0202160
  78.5813446  70.0680847  29.9294758  78.4517746  71.2129517  28.9479008
  69.5133209  13.1326189   6.0726471  69.6485519  12.2063303   6.2724819
  69.5580292  13.5700741   6.9228621  22.2100124  67.3638535  40.1750565
  22.4844971  67.1093063  41.0560188  22.9335957  67.0915604  39.6106873
  15.5090599   9.9651613  61.0422401  14.6683435  10.4082985  60.9279747
  15.4918957   9.6480846  61.9452362  60.7802162  68.9481049  15.5303144
  60.0395088  68.8151779  14.9387789  60.4127769  69.4336472  16.2688732
  23.3980370   4.7564869   5.9714470  22.4525013   4.6521378   5.8651114
  23.5683270   5.6647673   5.7219272  16.5169315   2.5842760  33.8841629
  16.8609772   2.9257920  34.7095299  15.6637850   3.0072789  33.7869911
  15.1469622  68.2771606   7.7309866  14.8727102  67.8621750   8.5487909
  16.0306377  68.5985336   7.9100685  81.9393845  23.8675900   9.9447012
  82.8360062  23.6912174  10.2296352  81.7557068  24.7507915  10.2647800
  75.5668335  57.0796089  77.3060226  75.0741577  57.8692551  77.0824966
  76.0314331  57.3071289  78.1113892  83.5486984  56.1616402  86.4109726
  84.4459229  56.4741783  86.2946167  83.1121674  56.3741341  85.5860367
  55.4906158  62.5413666  66.0327988  55.0139465  63.0731697  66.6701431
  55.3841095  61.6423187  66.3436050  58.4487686  32.4564476   3.8139799
  57.7865181  32.9594421   4.2879624  58.4703255  32.8507156   2.9420154
  16.3556480  43.5254135  31.0216637  17.2959461  43.4448013  31.1815834
  16.0140610  42.6405678  31.1505203  62.8621979  63.6197624   5.3656487
  63.5155296  62.9548683   5.5831490  63.2736435  64.1441193   4.6786318
  11.2764587  12.9018974  65.0687027  12.1973848  13.0929470  64.8908615
  11.0954447  13.3457069  65.8972549  12.4473276  13.3097582  19.6099854
  12.6330643  13.9947863  18.9677467  13.1297436  13.4120064  20.2733727
  39.6006012   6.0803432  69.3925095  39.5794487   5.5881476  68.5718231
  39.9591026   6.9342427  69.1505127  63.8373184   5.1884174  12.4400558
  63.4372292   4.4011111  12.0708561  64.6171265   5.3344693  11.9045181
   7.7181926  12.9228754  17.2293568   8.3193655  13.3240862  17.8569336
   7.9915891  12.0064831  17.1880035   4.9743900  44.9028397  27.7202225
   5.7733746  44.9689102  28.2431850   5.2234836  44.3639755  26.9693470
  62.3132858  42.0706367  37.9277611  62.2804642  41.1643333  37.6215515
  61.4063187  42.3727951  37.8793640  19.7794495  57.0473251  83.7343521
  19.3821888  57.8089027  84.1567383  20.4832439  57.4112816  83.1972809
  67.9886475   3.2701063  35.3862534  68.3711624   2.4236865  35.6175232
  67.7189255   3.6478083  36.2234077  81.1371918  50.9644623  79.9305344
  80.9886932  50.9966736  80.8755951  80.3152618  50.6316185  79.5701370
  17.7890968  48.2629547  75.1304169  18.4049892  48.0327301  74.4347839
  18.3049259  48.7869415  75.7432709  11.7187519  62.9333305  52.3794022
  10.9993725  63.2262077  52.9388199  12.5100746  63.1735764  52.8614006
  41.5528831  46.7069206  22.1096783  42.4706001  46.5295715  22.3160210
  41.3787537  47.5603676  22.5065918  75.1060410  44.5345192  33.4086838
  75.9909744  44.8918991  33.3351746  75.1230316  44.0164604  34.2133942
   9.9487495  60.5063210  85.4579010  10.7742453  60.8552246  85.1216660
   9.7288532  59.7925568  84.8592224  64.5904999  70.1514893  75.3524933
  63.9968910  69.6950226  75.9487305  65.2753906  69.5112000  75.1596527
  85.6019135  18.7997894  17.5014763  85.3855286  19.0577221  18.3975105
  84.8428650  18.2963047  17.2072411  68.2606506  53.5352936  59.8692322
  68.6525574  54.2801743  60.3250809  67.3801422  53.8317375  59.6389008
  49.6432915  14.4980679  21.3807926  48.9114151  14.6208038  21.9853821
  49.4706001  13.6538982  20.9639149  72.0315933  35.7160301   8.5306358
  72.7637939  36.0485382   8.0114527  72.1650162  36.0915909   9.4009132
  77.3635483   7.7157931  10.6194572  77.5538406   8.1313467   9.7784243
  76.6521988   7.1042967  10.4289637   3.2040257  39.5990257  72.3243484
   3.0798225  40.5177574  72.5625381   3.6046796  39.6288910  71.4555511
  56.5851173  51.9051170  50.2667809  57.0663071  51.7549019  51.0804901
  56.4989586  52.8568382  50.2116776  22.6567650  55.3147011  16.2470322
  22.1648006  55.3455391  15.4265127  21.9945145  55.4329948  16.9279594
  41.2875214  31.9147263  72.1953812  41.7800064  31.2631626  72.6945419
  40.7535667  32.3646126  72.8501511  62.9993286  29.4753304  48.0196457
  62.4634666  28.8476505  47.5347748  62.5186729  29.6215515  48.8343964
  76.1404800   0.1468119  17.6510239  75.6698074   0.7157614  18.2601147
  75.6104736   0.1586110  16.8540401  50.8497658  40.6059761   2.6024981
  49.9263878  40.3584671   2.6509295  50.9767761  41.2027283   3.3400533
  16.8092880  55.0484848  26.3204155  16.8925877  55.6176987  25.5553761
  15.8862381  55.1108856  26.5660114  12.9581766  42.4581871  30.3494720
  12.9984779  43.0925560  29.6338024  12.3309517  42.8337212  30.9673672
  47.6545181  49.6539803  17.2982941  47.5057716  50.5949135  17.2047787
  48.0295410  49.5566025  18.1735706  13.3900423  24.8399639  55.7185478
  13.4787855  25.0964355  54.8006287  12.5552502  24.3732071  55.7571907
  16.3255863  53.1425591  10.2941017  16.8867283  52.3819084  10.4449711
  15.6300478  52.8174706   9.7224588  51.1690178  17.8545246  67.3795547
  51.9366684  18.3019505  67.7355804  50.4761963  18.0225430  68.0183029
  67.6748505  10.6344156  75.1666489  68.1573715  10.7528019  74.3484802
  68.1852798  11.1160583  75.8175812  17.9329643  35.8456383  87.3162842
  17.4857159  36.5028877  87.8494110  17.7722855  36.1198540  86.4133911
  75.7258072  54.6183548  68.5712509  75.5589752  53.6939545  68.7553329
  76.6675415  54.6634865  68.4059372  33.1968727  10.5167198  45.1034966
  33.3601570  11.0315552  44.3132362  32.2777710  10.6835756  45.3124046
  81.0200958  11.1512623  18.0020332  81.3142090  11.9987488  17.6681290
  80.4066772  10.8327332  17.3398476  51.7358246   9.2918463  57.8845673
  52.4863777   9.2838459  57.2905693  52.0987701   9.0361557  58.7325821
  50.9052963  22.1520271  20.0136871  51.1451073  21.6343384  19.2451019
  50.7681160  23.0362053  19.6736240  50.6322250  12.4094858   1.5446589
  51.1930389  13.1565514   1.3358271  50.6778908  12.3347721   2.4978452
  76.0856628   3.4507217  64.5624008  75.4464874   2.9226978  65.0408096
  76.7227249   2.8162398  64.2340469  31.1264420   2.4544652   3.0943325
  31.9920959   2.5119596   2.6898937  30.5268288   2.3254445   2.3594518
   7.2325821  33.8093147  32.1818733   7.3334684  32.9292030  32.5444450
   7.8965535  34.3314247  32.6321831  32.7003517   7.2817059  31.6428814
  33.4491920   7.1840434  31.0547218  32.1898041   6.4821253  31.5154190
  78.9201508  39.3777771  14.0175619  78.1179733  38.8626366  14.1034365
  79.1775131  39.2694321  13.1019993  11.0365524  57.7377548  46.3115921
  11.0186405  57.0844078  45.6122742  11.7599707  58.3192635  46.0776176
  72.9825974  57.4417114  14.8596134  72.6110535  57.8371811  15.6481495
  72.4466171  56.6635437  14.7065973  50.2696800  15.7084084  81.0484085
  50.3632927  15.9156284  81.9782104  50.7382240  14.8809156  80.9390869
  54.6059647  67.8631134  45.7358856  55.5206146  67.7524414  45.9955101
  54.1255341  67.2382812  46.2790260  74.4484329  68.1973419  64.2069244
  75.3897171  68.0517807  64.1119690  74.2002182  67.6713409  64.9671555
  30.5501709  60.6154442   1.9660678  30.7154827  60.0820923   2.7435248
  29.7689323  60.2279243   1.5714495  62.5245590  60.6943398  85.1125488
  62.9243546  60.0184212  85.6598358  62.2789116  60.2370529  84.3083191
  75.4845276  51.1116638  35.2689247  76.3819275  50.8924904  35.0181999
  75.4969025  51.1134872  36.2260437  35.0790482  64.6152191  30.2153473
  35.6192360  64.2943497  29.4932175  35.4274483  64.1734543  30.9897423
  66.2809982  23.0998363  23.7412968  65.3631287  22.9174862  23.9425488
  66.7396088  22.2881756  23.9583454   2.0681245  24.4896946  77.7183151
   1.3581728  24.1237812  78.2458649   2.3853168  23.7512417  77.1984100
   4.1547318  10.4152422  47.3893776   4.3206558  11.3553658  47.3196068
   4.4226336  10.1902199  48.2803497  56.8083458  58.1454735  28.6849613
  57.1081314  57.2397232  28.7622871  56.7128220  58.4441795  29.5893288
  47.6047554   5.7625952  41.4439201  47.9874725   5.9475369  42.3015633
  47.7007675   4.8161473  41.3378525  54.1706543  18.5849476  69.1267242
  54.4671478  19.0463123  68.3422089  54.4793816  17.6867867  69.0074387
  41.8862495  34.6998177  74.8365173  42.1921501  35.2000847  74.0799484
  41.9876328  35.2985420  75.5764389  39.2179604  39.9190102  86.8045807
  38.6591072  39.2467384  87.1944122  40.1069641  39.5781288  86.9030762
   8.1203928  32.8317757  13.0804539   7.2906590  33.2161636  13.3633318
   7.9500694  31.8903561  13.0496521  14.2743330   7.7572865  24.5422478
  14.7590876   7.9869685  23.7494736  13.3552465   7.7789001  24.2757072
  74.6337585  52.4699783  37.5645981  73.7984695  52.0103493  37.6498222
  74.4645462  53.3422852  37.9205208  73.1278610  60.5986099  52.2637100
  73.1801300  60.5602493  51.3087120  73.4572296  59.7486992  52.5559425
   1.6623291   7.5935717  33.9600716   2.1435771   8.1470232  33.3449898
   0.8752838   7.3323755  33.4819832  40.6151695   5.9490471  74.3976364
  40.2782707   6.5758219  73.7574081  39.9636917   5.2479062  74.4121399
  52.7342644  47.0021629   0.2834038  53.4474869  47.6231461   0.1353212
  51.9492912  47.5473061   0.3369214  17.6678410  15.5596952  75.8220062
  17.0855770  15.1458941  75.1848450  18.0883846  14.8275795  76.2729797
  61.8829041  56.2761307  43.4685822  61.6838913  55.7047920  42.7268295
  62.2195435  55.6854095  44.1423454  84.3227768   1.4904667  76.2820587
  84.4825287   0.6166509  75.9254684  83.4233017   1.4555550  76.6075668
  85.7661743  24.1086617  51.1686935  85.8629990  24.8127460  50.5275078
  84.9851456  23.6329670  50.8859482   7.6646667  55.6125259  79.6321564
   7.2489877  56.3552818  79.1942520   6.9344029  55.0634804  79.9176331
  36.5546379   3.9374111  11.2608252  36.2874146   4.8526263  11.3457041
  36.8612366   3.8602221  10.3573475  85.8581924  30.2891750  83.0619278
  86.3261948  31.1177731  83.1650391  86.4970016  29.6208286  83.3098526
  44.2777824   0.0205171  20.3254509  45.0097847   0.3810617  20.8258629
  44.6531105  -0.1910195  19.4706917  28.7783012  54.2544212  67.0957642
  27.9220371  54.5545845  66.7909012  28.5877895  53.4706306  67.6111450
  72.8877792  32.1132050  86.9345703  72.6480026  33.0079727  87.1756744
  73.7214584  32.2047081  86.4732208  86.0228958  42.9375191  86.3049393
  85.2052307  43.0729408  85.8260727  86.4874878  43.7706833  86.2260132
  16.3621120  31.0895748  29.7429676  17.1296902  31.6535149  29.6479511
  15.6967592  31.6547871  30.1354847  59.5064278  14.2715549  22.5851727
  59.4002724  14.6352882  21.7061615  60.4046898  13.9412251  22.6008186
  55.0544701  33.7423172  25.9143410  55.5751534  33.7916946  25.1126652
  55.1599503  32.8391037  26.2131939  66.8269196   5.0949006  18.0483627
  66.7997665   5.8433256  18.6444778  66.0619888   4.5710974  18.2865639
  71.8158340  64.9951630  69.9748611  71.5664597  65.7164001  70.5526581
  71.0320358  64.8247528  69.4525070  36.1168938  10.5136719  14.6252146
  35.4661140  11.1981287  14.7809029  36.4870872  10.3341122  15.4894733
  44.7792854  52.0149231  14.8027840  45.2473145  52.1286774  13.9755936
  44.0491333  51.4347839  14.5870361   6.8492031  59.2691231   9.2659903
   7.1439743  58.6363068   9.9208832   6.5115724  58.7322159   8.5490761
   1.3273240  64.0295639  79.6555176   0.6760390  63.5116653  80.1286316
   2.1485257  63.8618813  80.1178360  53.9959106  69.9821243  35.1036110
  54.8101196  70.2202911  35.5469742  53.3105774  70.1670074  35.7457695
  37.7479820  68.1154633  42.0436745  38.0725403  67.3871078  42.5731926
  36.7951164  68.0320511  42.0800171  24.1984196  69.4841537   5.8707943
  25.0584660  69.1917419   6.1725368  24.3072472  70.4212723   5.7089572
  29.4527626  64.1471558  37.3227043  28.5669289  63.7875443  37.3697357
  29.3451595  64.9927979  36.8873444   3.0228891  60.5929985  62.9130249
   3.9183066  60.6253357  62.5762558   2.8430045  59.6596527  63.0258865
  65.8274231  13.2398176  73.3777542  66.7056961  13.0838175  73.7249298
  65.9363937  13.2077579  72.4273148   6.0212002  18.2263641  88.6436005
   5.2214303  17.7005978  88.6566238   6.6746621  17.6582966  88.2355347
  36.6366348  56.5795441  50.4963455  36.7990913  57.5186996  50.5848160
  35.6939316  56.5128174  50.3443985  47.9434776  61.9146538  54.3331642
  48.2289505  62.8280754  54.3530273  47.0316925  61.9423141  54.6231918
  72.7899704  58.9316368  70.7132950  72.0143661  58.3897781  70.5682144
  72.4541321  59.7224998  71.1351700  57.8814278  29.0839844  88.2550812
  58.1273003  28.1693230  88.3935471  57.5037346  29.0999832  87.3756943
  73.5326843  35.8225136  69.6759186  72.8325348  36.4017754  69.9767151
  73.1138229  34.9663811  69.5874786  86.1510620  59.5202789   0.8852995
  85.2928848  59.0965385   0.8995746  86.7100067  58.9469795   1.4098363
  58.7026978  50.9025345  55.3716545  58.3608551  50.5292435  54.5592346
  58.1348648  50.5478401  56.0557518  55.9897423  13.9475155  22.6684208
  56.2404366  14.6763334  22.1007881  55.3958359  13.4207239  22.1336308
   1.4665043   5.4897609   1.9651450   0.6521733   5.0605373   1.7027254
   1.9616693   4.8073740   2.4183464  69.5654144  61.7272148  74.3203201
  70.0170135  60.9074974  74.5212097  69.6601715  61.8269501  73.3730621
  71.8877029  30.7814255  51.0938950  71.6515198  29.8667965  50.9392891
  72.8263931  30.7582684  51.2797737  49.8230286  70.1700745  59.9497795
  50.3411713  70.2521286  59.1491394  50.1044960  69.3393936  60.3331490
  80.6527176   0.3211238  40.6545563  81.2438278  -0.4317439  40.6513138
  81.2324295   1.0810235  40.6024246  13.8221292  13.7691364  41.7008018
  13.1402607  13.5840988  42.3465958  13.4097328  14.3733606  41.0834885
  36.8560486  31.4071636  75.0581818  36.1670265  31.3935204  74.3938828
  37.3177681  30.5768490  74.9414520  49.4205360  66.2129898  32.1831551
  49.3473549  65.2725449  32.0205574  48.9947205  66.3434143  33.0304489
  14.6978102  60.8841515  20.2393017  14.7322989  61.8389435  20.1808262
  14.9528084  60.5814476  19.3677635  49.9072227  57.0819016  30.1023312
  49.1878815  56.4610481  30.2177277  50.2414017  56.9006996  29.2238541
  35.4127960  67.7971878  16.2866650  36.0454674  68.4613342  16.0130405
  35.3654442  67.8891525  17.2382603  77.7365112  22.3886185   1.1956481
  78.3707352  22.4994659   1.9039576  77.2956238  21.5629501   1.3959608
  33.5498161  34.9498711  51.1745491  33.6748886  34.5384140  52.0297012
  33.8441277  35.8523483  51.2976379   7.7527609  61.9934769  62.3367920
   8.4652510  61.7606964  61.7414742   6.9564204  61.7565460  61.8614616
  28.3134193  10.9528847   1.9466807  27.7358665  11.2235155   1.2329426
  27.7497025  10.9427643   2.7202125  64.3903351  31.2620831   7.4695573
  64.1036606  31.0008869   6.5944405  64.6846237  30.4480114   7.8781066
  79.9150543  13.3654728  23.9377003  79.1086884  13.6069784  24.3934193
  80.5873260  13.3751955  24.6190128  47.8097572  55.2299995  51.5617905
  48.4677734  55.8820152  51.3207054  46.9824905  55.5987816  51.2521782
   8.0023909   7.7684836  62.1796379   8.2539253   8.6300297  61.8469200
   7.0482631   7.7520399  62.1047935  43.3395081  45.8542862   6.4844661
  43.5884933  45.5729103   7.3648443  42.3882866  45.7503319   6.4598513
  86.6369400  50.1616440  25.4874954  85.9794006  50.7578735  25.8457985
  86.2434845  49.2930489  25.5709686  78.5692673  56.6478081   1.2765034
  77.8477554  56.5009918   0.6648655  79.2984467  56.1465149   0.9114977
   9.0014133  34.7137985   7.2005143   9.6855555  34.0859375   6.9681954
   9.4299068  35.3236008   7.8011503   5.6056576  45.1373711  65.7313156
   5.7512898  45.6373901  66.5344315   6.4165416  44.6445122  65.6056595
  27.8387527   6.3535728  38.7864342  28.1351662   6.8945704  39.5183411
  27.7104244   5.4848366  39.1673012  33.1554451  20.0932045  28.7801132
  32.8128891  19.2011261  28.7245960  33.0395546  20.4495182  27.8992939
  30.8439617  60.7147636  36.8576050  31.5019302  60.2869949  36.3095856
  31.1372166  61.6239052  36.9183884  80.5056839  22.2006073  37.4754868
  80.4230347  21.4837990  38.1044426  81.4496460  22.3218555  37.3732033
  30.0174103   4.1376791  31.8878574  30.7744083   3.8927021  32.4199982
  30.3854523   4.3449812  31.0289021  26.8589573  71.0616913   1.7510110
  26.4552040  71.9155807   1.9062269  26.5450020  70.5139694   2.4704969
  29.5228920  54.5199699  25.6054058  28.9129791  54.2983398  24.9017620
  29.3249187  55.4326363  25.8153591  68.8703461  65.5804214  44.4195633
  69.2007980  66.4784546  44.3957825  69.0873184  65.2685547  45.2981377
  25.6785088   7.6968827  37.6147766  26.5841331   7.8845267  37.8614883
  25.7092743   6.8153419  37.2430649  86.1413574  22.8647842  88.3575974
  86.9921341  22.4275284  88.3226929  85.9032593  22.8518372  89.2846222
  62.7487450  29.5321121  27.7368469  62.7924423  29.8591919  28.6353683
  63.6624832  29.4785042  27.4567699  78.5272675  23.0554790  45.8625870
  79.1807938  22.3635883  45.7605057  78.8731766  23.6104298  46.5615921
  73.0755234  66.3410721  12.2846508  72.9948883  67.2188339  11.9114723
  74.0190277  66.1873474  12.3335342  15.1378651  28.9627609  12.0369806
  15.7228928  29.3385696  11.3791485  15.6817789  28.8764248  12.8198833
   4.7171745   5.2445421  52.7185287   5.5145392   4.8492694  52.3661079
   4.5268383   5.9704099  52.1242867  28.8236198   5.2902193  17.5652313
  27.9826756   5.7425280  17.4984379  29.4401169   5.9698148  17.8378391
  25.6318607   8.5873585  28.3607597  24.7844105   8.9393950  28.6330242
  25.4207687   7.7549357  27.9379768  17.8376541  53.5037613  67.7944794
  17.0686836  54.0529480  67.9471436  17.5425091  52.6163406  67.9984589
   9.2707310  14.4873638  44.6132317   9.9336100  14.5863333  45.2966270
   9.7729549  14.3363943  43.8124771  16.2866573  49.4808731  37.1839867
  16.4439678  50.4215660  37.1028175  17.0930462  49.1353455  37.5668411
  75.5406113  48.0573807  86.8390350  75.0114441  47.2603073  86.8092041
  76.4028244  47.7616615  87.1312103  42.1596870  67.9827728  47.1062775
  41.3625908  68.2316818  47.5741615  42.3674355  68.7444229  46.5650177
  66.0342026  36.3137474  68.7234573  66.1373672  37.2008095  69.0679932
  65.3728638  35.9130745  69.2876511   9.8658199  39.4523125  27.1806335
  10.1401339  40.3476372  27.3790760   9.5837898  39.0959396  28.0230637
  62.4444199  57.8197289  53.2997131  61.6909904  57.4497986  53.7598495
  62.9974937  58.1771355  53.9944077  17.2280197  55.8618584  30.5665340
  18.1109753  55.5245590  30.7177048  16.6702442  55.0839844  30.5721893
  82.3077240  15.9581757  51.4982605  82.1451950  15.0949049  51.8784981
  82.6103592  16.4907455  52.2337990  36.7962189  61.1954918   8.5515394
  37.7414131  61.2210770   8.7004671  36.6910553  61.4522743   7.6354413
  35.6064186  66.7844696  82.2268372  36.4808922  66.4651871  82.0041504
  35.4590836  66.4755249  83.1207428  37.0423927  69.5051346  35.8589668
  36.9232826  70.3969193  36.1857224  37.6415138  69.0986557  36.4851112
  61.2360382  63.4487648  80.1648254  62.0162354  63.9395981  80.4229050
  61.0148163  63.7891159  79.2979584  51.8628349  52.3095207   4.4575839
  51.4980698  52.2999878   3.5726616  51.8540764  51.3919907   4.7301531
  54.9439278  43.1695061  56.4555206  54.4335327  43.3619957  57.2420769
  54.5375290  43.7002983  55.7704391  24.0878696   2.8200788  61.6117287
  23.8688507   3.1634669  60.7455025  25.0352745   2.9365716  61.6830292
  16.6031590  23.5219727   0.7967767  16.8939457  24.3857040   0.5041276
  17.3973846  23.1003227   1.1248760   6.4103475  14.6754847  79.9197083
   5.7913675  14.2878160  79.3009949   7.0947809  14.0138855  80.0200653
   6.2407036  42.3162994  46.3518829   5.7464509  43.1249046  46.2173424
   5.5815830  41.6734505  46.6136818  83.3660965  54.8717003  15.9343252
  82.8618469  54.9859543  16.7398758  83.6715393  55.7522049  15.7160368
  81.4216385  56.0402260  13.2187519  80.6517105  56.5493546  13.4721813
  81.4537582  55.3232422  13.8521051  62.2631035  21.2796421  76.7089844
  61.5740318  21.1798058  77.3658295  62.3205605  20.4210625  76.2897339
  60.4513016  55.8706169  21.7924442  60.7787247  55.9811745  22.6850834
  59.5064850  55.7575111  21.8961811  44.6390419  22.7480564  15.2807322
  44.8959846  22.0142155  15.8390236  45.3218765  23.4045124  15.4186974
   5.5341687  56.9752350  78.1993408   4.8134441  57.5621872  78.4279861
   5.1051240  56.1652412  77.9235535  61.1637497  20.8004513  19.9810486
  61.2916603  20.3976898  19.1221790  61.5541725  20.1803589  20.5969124
   0.2852739  65.7129288  67.8676682   1.1942828  65.9558640  67.6918335
   0.1717449  64.8725967  67.4236298  72.3749008  67.3526840  29.1952381
  71.5237961  67.1786194  28.7932873  72.7347183  66.4850235  29.3794460
  68.0813828   5.0423422  27.2068920  68.2809219   4.3410344  27.8270397
  67.1374130   5.1760583  27.2921524  76.5727997  36.7283325  76.9838333
  77.2623291  36.9809875  77.5977936  75.9025879  36.3194122  77.5314026
  82.2367096  26.9254532  68.1016998  82.6692429  26.5778160  68.8816299
  82.7282028  26.5534744  67.3693771  53.5791855  19.0515766   3.8903565
  53.8351898  19.6206131   4.6162291  53.8406487  18.1742821   4.1700397
  73.8746262  22.4589081  14.9807997  74.8072433  22.4649506  15.1962481
  73.5787582  23.3488312  15.1724615  80.6903839  58.7881775  56.6569519
  80.7341309  57.8782158  56.9506950  79.7588196  58.9457626  56.5033760
  65.1280670  28.7198009  17.0585175  64.5198135  27.9811268  17.0834560
  65.0957642  29.0261688  16.1522465   1.4417303  16.9164886  80.9540863
   1.6827837  16.7192478  81.8591919   0.6234081  17.4078522  81.0258102
  58.2415466  16.9685822  25.8508434  57.7238770  16.1733856  25.7246971
  58.9223671  16.9201393  25.1797466  61.2412033  44.7525063  80.1143417
  60.9105377  44.5936394  79.2302322  61.6864510  43.9395294  80.3532104
   5.3791418  71.1021423  17.3645058   4.8761878  71.9140015  17.4289627
   6.1002564  71.3135605  16.7716103  84.4080887  66.0598373  85.3665085
  84.1315689  66.9497910  85.1479797  83.6699448  65.6922150  85.8525391
  66.4909744  40.3388596  12.7172308  65.5353088  40.3632660  12.6688871
  66.7778168  41.0552101  12.1508408  80.0785370  46.3556252  80.7212448
  79.7866898  45.7757378  80.0178375  79.5616531  47.1527634  80.6044769
  51.5183411  44.2323380  84.3006210  52.4250870  43.9309425  84.3572159
  51.3488693  44.6424065  85.1487732  26.3052254  40.4047356  73.5875473
  25.3700466  40.3392220  73.7808914  26.3471527  40.4965363  72.6356812
  28.7399101  61.8917809  41.4941444  29.1488552  62.6449318  41.0678101
  28.1917057  61.5001450  40.8141975  52.9450035  68.3492355  39.9234314
  53.5702209  69.0207062  39.6505394  52.8555412  67.7803650  39.1588287
  83.8903580  46.2196350  51.7299576  83.0140152  46.4562302  51.4261780
  84.1030121  45.4201279  51.2485046  70.1533279  42.0738449  88.0034485
  69.6982803  41.9803543  87.1665344  70.0106735  42.9868774  88.2529526
  63.7787285  19.9174805  47.8880157  63.3274117  20.7287693  47.6548805
  64.6725311  20.1912766  48.0939140  71.8685303  61.5617599  60.6662064
  72.2111588  61.2715378  61.5115509  71.4776001  62.4165993  60.8469353
   3.7548432  65.6206207  76.1660309   4.5626650  65.4986191  75.6672592
   3.5070500  66.5304871  76.0018005  27.1605358  20.1677322  79.0430984
  27.4588909  20.9760704  78.6261978  26.2504921  20.3433609  79.2822723
  48.8182297  11.2201471  13.3451977  49.6080818  10.7018204  13.1912394
  48.1079712  10.5784807  13.3507509  28.0748863  69.0098724  29.2291279
  28.5769730  69.4331436  29.9255371  28.7369843  68.6065750  28.6676922
  51.3351059  67.7999954  34.2257805  50.5129738  67.4495621  34.5686073
  51.0783539  68.5879135  33.7467270  63.0873642  27.2057228  63.6800804
  62.1737366  26.9213638  63.6544609  63.5809326  26.4561424  63.3472862
  72.6538620  60.9117966  73.5732956  72.9878311  60.0240707  73.7022858
  72.4603882  61.2256203  74.4566498  80.5350418  30.5281639  50.8969154
  81.2765579  31.1159630  51.0414124  80.8939285  29.8153057  50.3684578
  53.2376060  57.7800751  62.6003494  54.0730934  57.3351936  62.7427216
  52.6658401  57.4422302  63.2896805  12.8612890  65.3368607  44.1129684
  13.0928097  65.9922180  44.7711067  12.0796986  65.6899872  43.6879387
  76.0641708  55.3668289  11.9055777  75.2437668  55.6966591  12.2721558
  76.4591827  56.1276207  11.4796762  27.6813087  67.6202774  59.5405388
  27.2871895  67.6436462  60.4125214  28.6228275  67.5668182  59.7045975
   2.6310489  47.6610489  75.5868378   2.4030411  47.6880913  74.6575851
   1.9572345  48.1897354  76.0142670  60.4984818  65.9841385  74.8139801
  61.1634560  66.2747269  75.4381561  59.9149971  66.7368240  74.7178802
   9.2619286   7.8568630  20.2923317   9.0504618   8.0970888  21.1944427
   9.4265718   6.9145927  20.3277073   6.8718181  68.4427948  17.2329807
   7.7557244  68.8086319  17.2662201   6.3071933  69.1525040  17.5391560
  11.6932831  15.7385101  55.4293594  12.2434111  15.1757469  54.8844833
  12.1503954  16.5793972  55.4431458  78.7310028  45.8828201  83.4525909
  77.9575043  46.4168396  83.2716141  78.9784012  45.5231514  82.6007309
  56.7482071   6.7535205  18.4349537  56.9385414   5.8283815  18.2796402
  56.6909332   7.1365070  17.5595837  44.8081703  28.2466145  86.5721359
  44.2260857  28.9715099  86.3442383  44.3624687  27.7984505  87.2909775
  25.1256866  21.7364063   8.3345823  24.4503994  21.3623257   7.7686472
  24.9010601  21.4271240   9.2121468  73.7417450  24.9889774  17.0579548
  74.1727448  25.8411617  17.1231842  73.4408951  24.8040085  17.9476223
  11.7563782   4.7457542  24.2951012  11.7018509   4.6532435  25.2462578
  11.3401260   5.5880651  24.1121292   4.7387438  27.9284534   2.1766536
   4.5219440  28.4813385   1.4259543   5.6536803  28.1337109   2.3689888
  50.3230820  55.3726921  32.4899979  50.0536880  54.5769539  32.0312424
  49.5544052  55.9419441  32.4537315  73.1645203   1.3088552  71.8710938
  72.8531036   0.9039507  72.6806030  72.3682251   1.4871610  71.3707428
  33.0142174  38.2677193  76.1202850  33.6135979  37.6554794  75.6935120
  33.5284767  39.0671501  76.2328873  83.2220993  25.7214565  65.9149323
  83.8755264  25.0235138  65.9611130  83.1832352  25.9521446  64.9867554
  76.6719437  49.8501282  61.8661842  76.1082840  50.6122780  61.7333183
  77.5178909  50.2191925  62.1199532  63.8540344   6.1519327  19.3657246
  62.9273949   6.0660701  19.5897636  64.2760849   6.4074397  20.1859818
  68.6343765  23.7195091  11.9789600  69.4978867  23.3620892  12.1859121
  68.7999496  24.6380787  11.7667236  80.3826523  34.9876862  55.6847610
  80.8549652  35.2633896  54.8991737  80.9069061  35.3261795  56.4105797
  53.3571091   1.9784340  24.7424412  53.9868889   2.4575021  24.2038269
  53.3371429   2.4575312  25.5708733  59.7302399  50.3984947  10.8407307
  59.3948021  49.7381783  11.4471092  59.8577309  49.9256630  10.0182886
  69.4519958   4.7452612  49.7130127  68.6492996   4.6891284  50.2314301
  69.2607651   5.4047275  49.0461006  84.1908722   9.8019066  44.0839081
  83.3459091   9.8233805  44.5331383  84.4663391   8.8866529  44.1354599
  61.8172951  34.8770523  33.6844368  61.0184326  35.3555984  33.9058914
  61.6952019  34.0125656  34.0768509   3.3238890  57.8880081  66.5355911
   3.5638726  56.9625626  66.5823975   3.1593432  58.0460548  65.6059799
  62.0112114  70.1365051  76.7464828  61.0682716  70.2386246  76.8755722
  62.2228966  70.7430954  76.0369263  12.0642366  60.6396980  59.6757545
  11.4264755  59.9676361  59.4352798  12.4380035  60.9245224  58.8418465
  76.3277817  48.4705353   2.1225615  76.6239548  48.8369102   1.2893273
  75.5513992  48.9833565   2.3472250  67.9357300  19.9890785  50.6936340
  68.1972733  19.5784645  51.5177841  68.6538239  20.5867271  50.4853325
  37.2167015  46.5551796   9.6693306  36.8155212  46.0445595  10.3725758
  36.5365677  46.6145210   8.9984159   4.3542452   7.9069824   9.0110950
   4.2002325   6.9960957   8.7605019   4.6597686   7.8578205   9.9168940
  29.9098091  55.6041565  73.1525421  28.9908848  55.4034882  73.3301392
  30.3300781  55.5829926  74.0122910  20.6611481  30.8721352   7.1709723
  21.1446552  30.0733223   6.9603720  20.4349060  31.2466469   6.3196278
  50.7899208   8.2759752  62.7900581  50.3375587   8.9933968  63.2337952
  50.1375084   7.9170699  62.1885757  68.3974762  12.7100096  62.7162666
  68.0674057  13.4195051  63.2675362  68.5387039  13.1168060  61.8613968
  29.1722145  38.5682373  69.9684296  28.9582310  37.7860146  70.4769287
  30.0022545  38.3565788  69.5412674  43.5945091  71.0924072  56.6893539
  42.8998032  70.7959290  56.1013756  43.1748848  71.7508774  57.2430344
   5.1804729  34.1599846  85.7164536   4.5320992  34.6877594  85.2503052
   4.9386353  33.2549248  85.5199432  34.0195694  37.0523300   4.9754343
  34.0748787  36.7362251   4.0736294  34.9309120  37.1439323   5.2534451
  84.4136429  45.5361366  56.0246582  83.7896271  45.8169937  56.6939507
  84.1369019  44.6486740  55.7965012  77.1123810  31.7069454  38.3714066
  76.7168427  31.3318195  39.1582146  78.0369263  31.8131065  38.5954170
  30.3021641  56.0086899  59.3138428  30.7507534  56.8508186  59.2375450
  29.4188786  56.1772423  58.9857750  34.9553375  21.1412544  11.0144110
  34.9257507  20.8930206  10.0904322  35.0866966  22.0893364  11.0036173
  37.7733345  69.5807037  52.7827682  36.9064293  69.4382477  53.1627884
  37.6254921  69.5671768  51.8371506   5.5455270  21.9629726  54.0059891
   4.9778461  21.2260075  53.7804832   5.9345808  21.7175179  54.8454056
  38.9471741  71.4415131  67.8081894  38.1762924  71.4912186  68.3734436
  39.4749908  70.7371445  68.1843719   7.3246427  30.8056049  47.5187492
   7.4678721  29.8602791  47.4731789   6.4630609  30.8979816  47.9254112
  11.9492598  56.7693558  29.6467743  11.9729595  57.6433830  30.0363274
  11.1059971  56.4081345  29.9200134  80.3594513   6.2302246  30.6387539
  80.9080887   6.6034427  29.9488716  79.6647873   5.7687306  30.1689720
  69.9847183  42.2313423  25.2923717  70.0378647  41.2847710  25.4243279
  70.3676224  42.6056480  26.0857925  33.8887367  43.1114349  70.1105576
  33.2711029  43.3231049  70.8105240  33.5787163  42.2754860  69.7622604
  58.0313797  26.3888817  85.0867844  57.4150314  26.2244549  85.8004456
  58.8882484  26.1760578  85.4565353  52.8978157  56.2998543   6.4337959
  52.8457565  55.3451080   6.3893385  53.2171402  56.5627670   5.5705800
  13.3640633  53.9727020  42.0104866  13.0468998  54.5473480  41.3137627
  14.3141489  54.0889397  42.0029106   9.1427383  49.6672096  24.2842731
   8.5931320  49.0403824  23.8139000   8.9154959  49.5409203  25.2054920
  32.2942505  51.9858170  42.7037964  31.6172619  52.5823517  43.0232735
  31.9768677  51.1144066  42.9407425  19.5268631  68.7906189  69.0023575
  19.7402573  68.1906128  68.2877350  20.3764477  69.0512085  69.3580780
  72.0236053  58.1015434   1.3323725  71.8936234  57.2626305   1.7745972
  72.8272705  58.4525337   1.7159919  13.3967991  62.7608986  55.1783295
  14.1749935  62.7109070  54.6232224  12.8308516  62.0570183  54.8613319
  37.7932930   1.2181033   4.0837216  37.2657051   1.2605677   3.2861743
  37.6218338   0.3456256   4.4381461   0.1050461  30.1681767  61.2555008
  -0.5828240  30.3917103  61.8824768   0.4961838  31.0092258  61.0191116
  41.6905403  17.7281113   1.0471268  41.7490768  17.9007225   0.1074403
  40.7544746  17.6148357   1.2119845  65.4357452  63.9631424  82.6675262
  65.4882889  64.4146194  83.5099258  66.2897644  64.1127243  82.2619324
  41.2344475  36.3369560  78.7540283  40.5034332  35.8520737  78.3709641
  40.9622154  37.2536507  78.7116776   3.3148706  13.5970078  47.9873009
   3.2471497  14.0545549  47.1492691   3.9720902  14.0909996  48.4774704
   1.9079250  53.9225349  65.5847244   1.0183671  54.2758102  65.5953827
   1.9110671  53.3035164  64.8546295  14.7406511  71.1112900  36.8436432
  14.3261356  71.7589798  36.2736359  14.4022045  71.3092117  37.7168617
  49.2887573  63.6867561  36.0436172  50.0711174  63.1965828  35.7908745
  49.3431473  63.7495956  36.9972000  24.0491676  43.8623161  76.2794418
  23.6375465  43.1944275  76.8278198  24.8700790  43.4631310  75.9913712
  45.1521721  61.1258736  48.0429459  44.9626503  60.5259476  48.7643318
  46.0440140  60.9042397  47.7751274  81.0677338  26.4409351  84.8681641
  81.3339386  25.5230103  84.8154297  80.6269226  26.6106834  84.0356369
  48.4450264  32.2007942  19.6639328  48.1228790  33.0961075  19.5596924
  49.1024818  32.2619743  20.3569279   9.4129992  34.6139336  69.4099503
   9.7168579  35.4990654  69.2088394  10.2152758  34.0987625  69.4947052
  36.4493294  59.1062393  82.9736481  36.1261330  59.6760216  83.6715927
  35.6810799  58.6065483  82.6973495  76.3595352  18.0339947  10.6011629
  77.3079529  18.1110229  10.7050610  76.2079544  18.1828747   9.6678400
  46.8255005  39.7520752  59.8917999  46.0500412  39.5877190  60.4283409
  47.3480949  40.3659363  60.4078445  24.7423878  34.6578941   6.8806777
  25.6551933  34.5069237   6.6352687  24.7600174  35.4761124   7.3771014
  19.3593674  34.3712654   6.1383791  19.3107224  35.1046600   6.7515674
  19.4482479  34.7831535   5.2789145  84.9968491  50.3291397  52.7040138
  85.2053146  50.4217834  51.7743950  85.7321320  49.8348007  53.0662575
  61.7952080  38.1780281  74.8831177  61.7270203  38.7821350  75.6224594
  62.7361755  38.0919991  74.7301102  21.5544491  48.1304321  31.7506466
  21.6965065  47.1917725  31.8730030  20.8608608  48.3507576  32.3724365
   8.0686102  16.5155239  84.0861359   8.4663239  17.3855114  84.1204605
   8.6523256  16.0073853  83.5228348   9.8852491   8.1951313  75.6185837
  10.6830873   7.6698337  75.6798019   9.2186747   7.6708984  76.0625305
   6.1491475  60.8788528  36.6359177   5.7332048  61.2154922  35.8422585
   5.9805140  59.9368896  36.6136169  62.7355347  31.9282284  69.2965393
  63.3693199  32.4756432  68.8329849  63.0106506  31.9665756  70.2125473
  84.0146866  71.2058029  54.7437897  83.8058395  71.5762634  55.6013298
  84.9594193  71.3300705  54.6528358  71.3809357  45.2747536  50.0293274
  70.6035233  44.8970642  49.6179733  71.5110397  46.1076965  49.5759926
   1.8707366  16.5408936  15.5297642   2.0486922  17.3412476  16.0237236
   1.5851644  16.8488083  14.6696081  78.1306763  43.3731155  55.8197212
  77.3132553  43.0994110  56.2358170  77.8683395  44.0563698  55.2028160
  84.8932190  48.2898712  67.1351166  85.3983765  47.6780319  66.5996704
  84.5090637  48.8991356  66.5046768  76.5889664  19.1288242  72.1934662
  76.4242859  19.3439522  73.1115265  75.7676239  18.7450294  71.8863373
  45.4045219  27.7751656  12.7538538  45.5579147  27.3290844  11.9209576
  44.8849792  28.5447178  12.5212717  49.6154785   9.7875986   4.4872761
  50.2489471  10.3182011   4.0041518  49.0448914   9.4214630   3.8115482
  28.7796707   6.6629510  88.6428375  29.5499725   6.3348413  89.1067429
  28.0596848   6.1162996  88.9575195  73.9241791  26.0881824  24.0054855
  73.3744202  26.8511963  24.1838131  73.3117447  25.4166183  23.7052269
  55.7081909  24.9903049  25.0856495  55.8990822  24.6534004  25.9610291
  55.8841248  24.2527027  24.5015068  10.2878065  16.7405472  81.6482162
  10.5349064  17.3847446  82.3116837  10.9852657  16.0856819  81.6787567
  30.6763802  66.8690262  84.9853287  30.9503212  66.6660004  84.0909195
  29.7534180  67.1094894  84.9043884  26.1303120  58.7848320  23.5175056
  26.3519325  58.0714722  22.9189777  26.2831287  59.5808640  23.0083752
   8.6010485  44.0994263  58.9411850   8.6536207  45.0186195  58.6793633
   9.4918680  43.8758583  59.2108002  68.1873474  60.0966415  82.5622025
  68.4668655  60.1300583  83.4770660  67.4092407  60.6531219  82.5290146
  20.7454567   5.2851176  12.8137455  19.9114475   5.3990340  13.2694683
  21.1985741   4.6036568  13.3102608   1.8693272  66.5166092  51.6190720
   2.4560769  65.8102798  51.8893433   2.4523129  67.2490540  51.4193687
  29.2053890   6.8770056  84.5121765  29.9914341   6.8132086  85.0546646
  29.0067635   5.9722419  84.2709656  62.0429611  41.4429855  16.6780987
  62.3499565  41.4132385  17.5842438  61.1246529  41.1774673  16.7274933
   5.2252274  34.6768456  42.6849022   4.4229112  34.2112427  42.9209824
   5.5860868  34.9714088  43.5211105  50.2931900  11.3124104  68.7460709
  49.5364838  11.3019457  69.3321762  50.3555641  10.4148369  68.4194183
  20.4324551  63.3419609  65.2000885  19.8857422  62.7870636  65.7563477
  20.2950897  63.0035210  64.3153229   9.5048933   5.7979226  61.3873634
   8.8909397   6.5083184  61.5734558  10.3504477   6.1257272  61.6936531
  45.1712341  19.3547497  88.8093033  45.8412361  18.9332771  89.3475342
  45.6605339  19.7683678  88.0981522  18.8302784  31.7737751   2.4234896
  17.9655495  31.3662815   2.3742650  18.6816730  32.6830788   2.1640410
   0.7180812  17.1381435  27.9610519  -0.1193636  17.3465481  28.3751602
   0.4902221  16.5450878  27.2450924  85.2808075  28.4354973  60.0536766
  85.3791428  28.5550823  59.1090775  86.0402222  28.8790131  60.4315872
  44.7042084  47.9745712   5.2101274  44.0273438  47.3582458   5.4898181
  45.4855270  47.7084503   5.6948514  22.5116692  57.4720726  82.4336853
  23.0756950  57.8802528  83.0905685  22.2142620  58.1999130  81.8877716
  34.6738091  39.2099991  79.3693771  35.4098740  38.5986519  79.3957214
  34.7763901  39.7425079  80.1581421   1.5642109  66.0274811   2.7612665
   1.7874056  65.3777771   3.4278243   2.3923991  66.4669342   2.5683429
  60.5607529  64.8198013  86.1220016  60.5932655  63.8733101  85.9829712
  59.6545029  65.0593567  85.9282150  28.2675705  50.7734070  18.5915585
  27.4860210  50.4169655  18.1692257  28.6947594  51.2897453  17.9080868
  81.7830811  62.6637421  45.9919662  81.1120834  63.3392029  45.8932266
  81.2969055  61.8393211  45.9779510  48.2581024  42.9802399  75.3254547
  48.6477242  42.7002678  74.4971771  47.5839920  42.3252487  75.5065460
   7.5142355  62.8868866  72.7569427   8.3520603  62.5274544  73.0486450
   6.8848553  62.5916672  73.4149399  83.5603409  58.7915688  49.7375107
  84.0306549  59.0583878  50.5273514  84.0259094  59.2264404  49.0231171
   9.6117620  64.3373032  11.5889072   8.9083071  63.9137115  12.0807924
  10.3472099  64.3677368  12.2008085  38.4569283  14.6992273  22.9758434
  38.6691589  15.6300526  22.9068947  38.2176247  14.4415455  22.0855827
  39.0804787  43.0429955  75.5658798  39.2318420  42.1000099  75.6298904
  39.1817474  43.3632202  76.4622192  61.0677147  32.6131897  86.0889206
  60.9971199  32.0994759  85.2843399  61.9915619  32.5520782  86.3318253
  71.8716812  15.9895706  79.7834396  72.5047989  16.4558201  80.3293381
  71.7852783  15.1307478  80.1971893  44.1825562  67.0314102  38.3582115
  44.0995979  67.9823303  38.2867546  43.3877335  66.6901703  37.9482765
  17.6431179  27.8314133  80.7275925  17.7306290  27.6936836  79.7844009
  17.7098808  26.9542675  81.1049423  36.4427147  16.2751732  10.2000961
  36.8412361  15.5198727   9.7677393  36.5666885  16.9969463   9.5837317
  59.6267319  42.5013428  46.8722496  59.4210701  41.5794373  46.7172394
  58.8388290  42.8566284  47.2835999  14.4839649  12.4444933  21.1291599
  15.2084322  13.0052729  21.4064770  14.3394938  11.8559170  21.8700638
  22.4940701  10.8048487  37.3543167  22.2241459  10.1776104  38.0250969
  23.4255428  10.9483995  37.5215950  84.3596039  26.3441086  69.6548080
  84.8338699  25.8959827  70.3551559  84.9311905  27.0701160  69.4049377
  14.1516504  58.6452370  75.2562943  13.9293079  59.5634460  75.1023788
  13.3122454  58.2228432  75.4385452   5.9853640  48.0905495  50.9328156
   6.8032207  48.3352089  51.3658104   5.3303590  48.6791763  51.3079376
   2.4279978  27.1860428   3.0105910   3.2970765  27.4469128   2.7058280
   2.4423900  27.3589859   3.9519279  75.3018875  41.4773178  70.3809204
  75.3282547  41.9967690  69.5773621  74.6083679  41.8798218  70.9036636
  11.3829021  39.1303024  78.9618301  12.3348255  39.0857391  79.0517578
  11.0795279  39.4827881  79.7984619  79.1596680  40.7405510  46.0319901
  79.9925995  41.0560455  46.3825836  78.5472946  40.8175392  46.7636375
  54.9173431  28.1201859  10.6272068  53.9867249  27.8995228  10.5885897
  55.0681686  28.6589718   9.8505507  71.0914688  40.0630646  83.1034698
  71.2768021  40.7170753  82.4295578  71.8956070  40.0176163  83.6207047
  14.0171719  46.4132462  26.5203381  13.7334766  46.3007545  25.6130924
  13.5483322  45.7331581  27.0039692  58.4450302  43.8692589  61.8540382
  59.3180962  43.5024033  61.9933357  57.8771744  43.3635406  62.4354324
   5.1156316  31.2471886  20.2825356   5.1821499  31.6862926  21.1304722
   4.8840375  30.3438034  20.4981461  44.5012665  18.4977322   3.7368765
  45.1423111  18.5681934   4.4442163  45.0180626  18.2551422   2.9685647
  69.3480911   8.1066141  69.1359787  68.8105698   8.1315451  68.3443451
  70.0473099   7.4857960  68.9312668  10.8443375  53.2324066  63.0700531
  10.1617126  53.0095787  63.7029839  11.3109426  52.4099388  62.9215202
  12.8406820  15.3889532  58.1192436  12.5760088  15.3917017  57.1993675
  13.0017576  14.4668713  58.3193703   6.6100588  52.0977402  89.0216370
   5.6890516  52.3574104  88.9982300   6.9526620  52.3527985  88.1650162
  30.0081482  35.8168945  19.0786476  29.4050312  35.6233177  18.3610058
  30.4127560  34.9743919  19.2853298  16.5413704  49.5587311  82.4998627
  16.9467831  48.8508530  81.9990768  17.1487656  50.2931938  82.4111938
  14.4930592  26.9898357  81.4694519  13.7720823  27.5330982  81.7877121
  14.9402380  27.5386925  80.8252335  73.1697540  12.0974655  67.2265320
  73.4227829  11.7101612  66.3885574  73.8882599  12.6919622  67.4422989
  59.3126945  45.7565079  87.5123367  58.5699501  45.6050148  86.9278564
  59.1047630  45.2529182  88.2993546  -0.0735057   7.0172501  78.0228500
  -0.4825096   6.4143348  78.6436844   0.5779544   7.4894748  78.5413361
  85.6415024  67.8718719  60.2652435  85.7558746  68.3088150  61.1091805
  86.0088196  68.4835281  59.6271286  74.5722656  17.7154312  80.4337692
  75.1950378  18.3190441  80.8387909  74.9294968  17.5528450  79.5607376
  24.2828636  32.8445930  75.6148911  23.6609783  33.1215706  76.2877731
  23.8355236  32.1358719  75.1524734  67.0460892   6.4460001  64.4928665
  67.5425262   5.6435585  64.6537170  66.1409988   6.2132659  64.6999054
  11.8318777  57.1589890   8.7677860  11.4697857  58.0405312   8.8572359
  12.3122473  57.0135269   9.5828438  46.3598022  30.2441826   5.7124791
  46.0255432  30.8681126   6.3568516  45.7336502  30.2876568   4.9897909
  36.2715302  69.2271576  67.2374268  37.1587219  68.9166641  67.4183044
  36.2321091  70.0914383  67.6469269  78.7956009  22.1157455  21.6234303
  78.0207901  21.9753704  21.0791969  78.6145096  21.6296520  22.4278870
  59.3332443  25.2322903  62.5242691  59.6016502  24.5310802  63.1179810
  60.0399628  25.2849636  61.8808365  53.8504028  45.7300148  40.5193710
  54.4110069  44.9639473  40.3965263  54.4101334  46.3678894  40.9621429
   4.6899114  18.9739952  64.8717957   3.8760769  18.8106880  65.3484879
   5.2814026  19.3436642  65.5273209  67.0426178  16.3174896  74.5425339
  66.0936279  16.2533932  74.4351044  67.1782379  16.2985344  75.4898911
  63.0511475   6.5785761  14.7083044  63.0290718   6.2251186  13.8190279
  63.5702667   5.9458575  15.2047081  33.1368408  58.6328506  20.4802208
  33.4807816  59.2670593  19.8511620  33.6331100  58.7974854  21.2819939
  36.2470627  42.6302109  74.9600983  36.3863411  42.7790108  74.0248489
  37.0506248  42.9440765  75.3748398   6.6175203  14.2525320  62.6904602
   6.7384796  14.8342762  63.4409103   6.9779277  13.4134550  62.9773216
  75.8579712  15.5456896  81.8688126  76.3092346  15.7550135  81.0510254
  75.0749207  16.0960903  81.8579483  29.5607910  59.9452095  60.6640930
  28.7617455  60.4353104  60.8579025  30.1656513  60.1860962  61.3657684
  24.4048557   9.1605844  44.6592598  24.2776012  10.0789251  44.8973503
  24.4707184   9.1676359  43.7043533  73.8592911  64.3628464  31.6546097
  73.7570496  65.1840515  32.1356544  74.0509872  64.6335068  30.7567081
  57.8453178   6.1608839  23.3542366  58.3013802   5.4943538  23.8680210
  58.1781731   6.9925671  23.6914921  18.3694115   9.8516245  56.6414375
  18.5323772   8.9155464  56.7573318  18.5582848  10.0150146  55.7173882
  44.2695923  54.9550591  19.6020260  45.1227074  54.9688034  20.0358868
  43.8749809  54.1270599  19.8757668  59.3404617  20.9619884  56.0711708
  59.1934853  21.6691704  55.4430580  60.0204849  21.2978077  56.6551437
  78.5827713  43.1922531  33.1777573  78.5604172  43.4068222  32.2451820
  79.1075974  42.3932877  33.2271843  19.3337727  62.5441246  39.7179298
  18.9139843  63.3768044  39.5019417  18.8851032  61.9003983  39.1697121
  57.3980293  58.0073395  79.1295166  56.6156731  58.2082939  78.6159286
  57.2504921  57.1185837  79.4528961  18.0933552  44.5018883  75.2689743
  18.0063629  43.6044350  75.5902863  17.1923790  44.8117714  75.1770706
  46.1377525  22.2192917  83.0792923  46.3148651  22.8890152  83.7398453
  46.6926041  21.4812794  83.3317032  18.4255772  44.5790558  88.8835678
  17.8118248  43.8454742  88.8461609  18.0202579  45.2581825  88.3443756
  78.4101181   4.0047889  53.3040619  79.0325241   4.1948614  54.0059967
  78.3416901   4.8253250  52.8159332  46.7002068  69.9209824  10.8177881
  46.7269096  69.8986816  11.7743559  46.4789505  69.0251160  10.5634108
  50.5126457  38.5622025  59.9191856  51.2431717  39.0910378  60.2399635
  50.9249878  37.8823166  59.3863029  73.4142075  11.7566147  35.5611420
  73.6850891  12.3889828  36.2266960  72.7060165  12.1944485  35.0889130
   3.6764419   8.2968454  69.4642487   4.2821765   7.7028747  69.0209427
   3.8084624   8.1220274  70.3960419  58.9772949  56.8236732  13.9018307
  59.1286926  57.1083870  14.8030787  58.4306488  56.0424500  13.9860744
  77.8995743   6.1736579  37.4188232  77.3294067   5.5116072  37.8097534
  77.8808823   5.9823446  36.4811211  75.6564255  13.3705788  79.4279938
  76.4842224  13.7940979  79.2007980  75.8867340  12.7500277  80.1194458
  84.8429947  49.3484764  78.0957947  85.5365906  48.7212067  77.8916321
  84.7441330  49.2952499  79.0463867  21.1066494  41.9208603  73.2786407
  21.8670368  41.3417282  73.2271271  20.3714504  41.3353043  73.4598618
  67.4912567  60.5107841  46.2325783  68.3982620  60.3607788  46.4991531
  67.5273514  61.3018608  45.6948738  21.1290073  71.8341293  27.7859612
  21.8046589  71.1561127  27.7816830  20.6914062  71.7308578  28.6309891
  85.1999893  42.3848381  47.4894142  85.2561264  41.5545921  47.9624596
  85.5871201  42.1996536  46.6338043  60.4654961  33.1677818  59.7941093
  59.8823547  33.8335228  60.1587486  61.2555199  33.6495628  59.5491943
  51.4106941  30.3149834  21.5664845  51.6573029  30.1645718  22.4790592
  51.9429245  29.6940441  21.0690918  60.8160934  63.3103104  75.0542526
  60.4714890  63.0156860  74.2112350  60.7039337  64.2608032  75.0398636
  18.1443062  52.0408363  79.5905914  18.2459164  51.7019501  78.7011719
  17.3541641  52.5797958  79.5527344  20.5111027  34.4689293  51.6837006
  20.5085545  35.4169159  51.8161850  19.7586498  34.3044968  51.1153603
   4.8675280  33.4462852  68.0363998   5.2510247  33.6907578  67.1941452
   5.6177473  33.3559914  68.6239777   3.9642036  23.9106750  21.8469143
   4.6063099  23.3618546  21.3966618   3.5357735  24.4021168  21.1460819
   6.3004375  45.4651985   7.8748302   6.3875642  46.3788490   8.1466370
   7.2015042  45.1534081   7.7905736  59.0325699  68.6442261  34.4627380
  58.6801224  69.4712982  34.7913055  59.3641777  68.8550797  33.5899239
  15.9213800  67.1685104  82.2538376  16.8202553  66.9453812  82.4956436
  15.6549530  66.4721527  81.6535568  13.2934999  13.2693911  69.0294189
  12.3998766  13.5013189  68.7766800  13.8439007  13.6652374  68.3536987
  49.4580002  62.5511818  83.3027039  48.9070702  62.1380157  82.6378708
  49.8014450  63.3358002  82.8753281  83.4121094  17.0479240  17.0444164
  82.7003326  17.0851650  17.6833363  83.8039017  16.1840096  17.1724148
  37.9063492  13.0010786  82.9807663  38.5018616  13.5328932  83.5087509
  38.3647842  12.1683722  82.8682251  78.2332840   0.3135611  79.5208969
  77.3737106   0.2311761  79.1078796  78.8016891  -0.2605576  79.0075378
  25.8162880  34.2951355  18.9330902  24.8945808  34.0626755  19.0455647
  25.8449650  35.2401161  19.0828152  65.5594635  11.5011101  15.9902744
  65.3630066  11.1067581  15.1404972  66.2685089  10.9647903  16.3450260
   5.6763000  29.8271866  66.2531662   5.4750032  30.6723785  65.8514709
   4.9723649  29.2487774  65.9596558  73.6719284  44.8518028  39.0946922
  74.1579285  45.2952881  39.7899284  73.8631287  45.3605461  38.3067474
   9.6276302  63.4485703  36.8027954  10.2274113  64.1193085  36.4762955
  10.1331043  62.9770813  37.4649353  37.4634399  46.0449333  72.8549042
  38.1717072  45.6528015  73.3656158  36.8468552  45.3272514  72.7100449
  55.9649124   4.1065269  74.7132721  56.7146034   3.6005213  74.3999786
  56.3341827   4.7042079  75.3633804  25.7399616   8.6265879  23.1848660
  25.7179203   7.7262297  22.8606720  25.3676910   9.1467409  22.4727669
  50.6462288   9.5120430  36.8727951  50.5763855  10.3427305  36.4023590
  49.7398911   9.2598782  37.0494194  34.3156738  63.1853714  44.8514862
  33.6343269  63.0842705  44.1868210  34.7326965  62.3251457  44.8997726
  10.7721977   3.0099065  86.9621506   9.8418274   3.0938721  87.1709442
  10.8090506   2.3106346  86.3095474  41.1095467   8.2387161  88.3246841
  41.0566750   7.6088867  89.0435410  41.0731544   9.0941696  88.7525940
  72.0110092   0.8075183  64.1203690  72.3611298  -0.0683788  64.2830200
  72.4629822   1.3671807  64.7518234  14.1356659   8.2598553  84.5343933
  13.6119843   7.5041561  84.8006744  13.5688295   8.7446384  83.9344635
  12.1271753  65.5800552  38.7058525  12.2062235  65.2357941  39.5954933
  13.0021524  65.9072113  38.4970055  38.8897171  71.2763824  72.8420715
  39.5116806  71.8104248  72.3479233  38.2864265  70.9376450  72.1806107
  73.9156723  41.1313782  36.4905739  74.1101913  41.9820137  36.0971146
  74.0328598  40.5047760  35.7765236  58.8146210  69.2232208  38.2940865
  58.1308937  68.9461060  37.6842041  58.6062546  68.7684937  39.1102028
  23.0875931  61.9055672   4.3952212  22.3676815  62.3339157   4.8583388
  23.6969337  61.6469231   5.0866241  32.9542389  68.9286728  84.6610184
  32.2323418  68.4564514  85.0758743  33.6833801  68.8385468  85.2745819
   9.0631580  30.4484901   5.5799108   8.9550991  31.2028751   5.0007234
   8.1746597  30.2376194   5.8668532   6.4852200  57.1865387  62.6122398
   5.7214804  56.6149864  62.6913795   6.7745609  57.0756302  61.7065849
  24.9493027  68.8456345  48.0676727  25.0966949  68.7873230  49.0116577
  25.7917233  69.1268692  47.7106476  48.4533920  63.4235954  13.7114677
  48.1248398  64.3223801  13.6898775  47.9813042  63.0133514  14.4360809
   8.8685455  70.7904663   9.0788059   9.5954323  70.2411041   9.3721886
   8.6574907  70.4618301   8.2049131  47.4061966  47.6562614  21.8895893
  47.4585915  47.5468750  22.8390732  47.5420113  46.7759094  21.5392132
   2.0258963  31.8001423  57.5825653   2.1706011  32.2081795  58.4362602
   1.8096883  30.8900623  57.7856483   3.8236315  43.4874420  82.2137909
   3.6266186  43.5476456  83.1485596   4.0872002  42.5766258  82.0827408
  21.0163784  10.4367247  24.4923801  21.7413006  10.0547171  24.9871426
  21.3749733  11.2462454  24.1286259  70.0941467  27.1336823   2.9059806
  70.2622375  26.2607555   3.2609141  70.9345474  27.5865459   2.9758360
  72.5276794  57.7133865  24.7268238  71.7944260  58.3000717  24.5414104
  72.1435776  57.0064545  25.2454224  76.4870605   0.7393942  50.0823746
  76.0004883   0.3773816  50.8229332  77.3021851   1.0624995  50.4663086
  81.5578156  11.3590117   2.9975166  82.1092072  10.6256180   3.2701590
  80.7255402  11.2130642   3.4472342  26.9219246   4.6175375  89.2515106
  26.0591316   4.6550899  88.8387070  27.3800449   3.9179549  88.7857361
  51.2354774  13.7133179  13.3312988  50.8341751  14.5412579  13.5953121
  50.6423836  13.3604479  12.6680107  80.2598038  68.8921585  18.0316429
  80.1248550  67.9903793  18.3228722  79.9127350  68.9102936  17.1397648
   5.4672079  27.4304485  25.1565189   5.4084015  28.0679131  25.8681450
   4.8139420  26.7660007  25.3755741   8.5594215  30.0995560  12.8313904
   8.3505487  29.1977539  12.5877533   9.3256407  30.3194695  12.3015041
  60.2944374  57.9285049  86.9830246  61.1607780  57.9687042  86.5779724
  59.6918068  58.1871223  86.2857513  41.4710617  19.3047123  10.4658623
  41.9503441  19.3866520  11.2903662  41.7540321  20.0586224   9.9483891
  51.7381210  10.0751524  41.0724678  51.4137115  10.2727966  41.9510612
  52.6886368  10.0251541  41.1737442   9.3631830   8.9728546  55.4735336
   9.8293819   8.1709375  55.2372742   8.4534893   8.8016911  55.2298317
  68.5050354  20.6907310  62.9286308  68.2112198  19.7828960  62.8528938
  68.5515823  20.8495483  63.8714180  18.8073940   0.7282582  17.9853001
  18.0368824   0.8150329  18.5465603  19.2792397   1.5535578  18.0969887
  51.1816559  56.3429146  11.1440964  50.9739952  56.5721207  10.2382412
  50.4850845  56.7493286  11.6597013  31.8684483  69.1128616   5.7746506
  31.6188469  69.9992905   6.0357642  32.3116035  69.2266769   4.9338818
  63.3521004  44.2203140  36.2430229  62.7950401  43.9920006  36.9871941
  63.7557335  43.3922348  35.9830360  75.6193619  38.0712395  62.5150604
  75.6051788  38.7826271  63.1553383  74.7131805  37.7652855  62.4768524
   3.6324050   7.8159232  56.6694565   3.0162599   7.4883304  57.3246536
   4.1917005   7.0651345  56.4701195   9.3212929  66.5689087  38.9384613
  10.2003851  66.9017334  39.1191711   9.3424911  66.3267746  38.0126381
  54.1299858  29.5600262  78.9014053  53.7180061  30.4112949  78.7536011
  53.5884895  29.1452484  79.5729523   7.6175985   1.7444606  51.2132645
   7.3780580   2.6582503  51.3676682   7.1761699   1.5160822  50.3952065
  72.5046844  31.9460678  77.3078766  71.7173538  31.5502186  77.6815720
  72.1752167  32.6289368  76.7236023  84.6645966  51.3212433  62.3392372
  84.5275040  50.5444031  61.7970619  83.8008652  51.7300415  62.3947563
  54.8742142  39.0200539   6.8868971  54.4103394  39.7330894   6.4479961
  55.2341080  38.4933701   6.1732349  35.5105095  64.8444366  17.6170120
  34.6017952  64.9830170  17.8839664  35.7819138  65.6841125  17.2461910
  22.4222622  58.3011169  35.2779160  22.9357433  58.4136848  36.0778503
  22.3164463  59.1882629  34.9343987  43.8731079  52.0898094  10.0122347
  43.4543037  52.7784500   9.4958973  43.1579628  51.4989967  10.2483358
  49.7353897  60.4580154  68.2304306  49.0749474  60.9698219  67.7634125
  50.3974876  60.2600899  67.5680923  10.6528988  53.6774178  80.9734726
  10.4420137  53.5603142  80.0471649   9.8993883  53.3138046  81.4384842
  81.0235367  51.6584816   8.7364540  80.8148727  52.5614471   8.4969873
  80.9276047  51.1662025   7.9211679  10.5704718  35.7836342   9.4846306
  11.3367958  35.3404770   9.1205015  10.1768894  35.1380615  10.0716219
  57.3270531  26.9804420  58.4233093  58.0874252  27.2919254  57.9323502
  57.6412277  26.2017269  58.8828011  66.6430588  22.6692028  81.3686981
  67.4768219  22.9839191  81.0193863  66.6619873  21.7240276  81.2186356
  23.6158581  54.6381912  19.4981709  22.7480183  54.9398460  19.7666664
  23.6353607  53.7138062  19.7458782  11.5364389  12.6575518  22.1034393
  11.8749361  12.8367701  21.2262096  10.5866270  12.6204319  21.9906960
  13.4528790  24.8646679  78.6027222  13.5804939  25.7726326  78.3278656
  14.0665627  24.7453346  79.3275604  64.6426315  34.0570412   5.7687573
  64.8209991  33.3068581   5.2016215  65.4772491  34.5229759   5.8191752
  75.3180389  22.9153442  86.7575607  75.0893784  23.7969437  86.4630661
  75.9660034  22.6110821  86.1221161  71.1415863  70.7892609  29.4035683
  70.2751770  70.5081635  29.1093788  71.6427078  70.9051437  28.5963001
  80.6293564  52.8029976  63.5592079  80.6067581  53.6702576  63.9636574
  81.1974792  52.9092789  62.7962074  20.5973492  18.2252502  87.5174332
  20.3606720  18.7491837  88.2827454  21.2780819  17.6317883  87.8346710
   4.6304736  52.1045761  26.7818012   4.7523317  52.6860046  27.5323524
   4.2657499  51.3028755  27.1566105  79.6176071  29.9871731   5.2150192
  79.0665817  29.4754181   5.8072252  79.1385498  30.8063927   5.0900702
   6.0516386  44.9949226  84.6733398   6.2233229  44.0656853  84.8258972
   5.9905624  45.3742867  85.5500259  27.3637791  65.4332275   4.6956062
  27.3102589  64.7796173   5.3928533  28.2762051  65.4023972   4.4079299
  69.4289246  54.8999825  83.5105438  70.0273743  54.8574867  82.7646942
  69.0423889  55.7740898  83.4579773  56.2779617   9.7995796  21.2377529
  57.2055969   9.7673101  21.0039024  55.9283562   8.9570827  20.9475689
  59.8959465  64.0640564   1.5011401  60.2632980  64.2248459   0.6319842
  59.6616211  63.1360092   1.4941924  85.5223160  59.1985703  32.6435051
  85.4727783  59.8973045  33.2958450  86.2287598  59.4684105  32.0566826
   2.4424398  36.6657257  35.9471893   3.3033497  36.4920921  36.3278694
   2.2606251  35.8975868  35.4057655  71.0438461  34.2114372  56.0368958
  71.1230927  34.2394180  55.0833893  70.9342804  33.2826881  56.2409744
  32.4719658  40.9289398  73.9434662  31.9233875  41.3655052  74.5951614
  32.6663666  40.0741692  74.3279190  68.7818604  71.3551865  55.5861778
  68.8032990  72.3018951  55.4464951  69.5369339  71.1787262  56.1473885
  76.8892517  63.5475197  70.0474625  77.8124466  63.8003807  70.0483475
  76.7680130  63.0864105  69.2174530  64.4768753  42.1801567  66.6646347
  63.8056450  42.7361298  66.2689362  65.1014709  42.7953529  67.0488892
  18.5504360  69.0457306  20.1949558  18.8474274  68.9842148  21.1028347
  17.9846306  68.2828979  20.0758381  52.9709435  40.7514191  20.5015182
  53.8314514  40.8894196  20.1056404  52.9793777  39.8355751  20.7797089
  47.6632462  46.9104233  24.8185768  48.5209961  47.1577492  24.4731369
  47.6287308  45.9594002  24.7156334  81.5533142  59.2236061  64.1987305
  81.1108322  58.6144524  64.7898026  80.8754578  59.4894829  63.5774078
  21.3034382  34.6059990  74.8064423  21.9986591  34.6003532  74.1485138
  21.6293221  35.1864471  75.4942703   2.9483709  26.9534092  54.1313629
   3.2016776  26.0303841  54.1218796   3.2289474  27.2699680  54.9900246
  63.5860786  65.5831680  84.9074860  63.5232010  64.6324463  84.9991684
  62.7481613  65.8427887  84.5244370  10.0166311  67.8377533  65.0184021
  10.3191605  68.6608810  65.4020157  10.5512466  67.7293015  64.2318497
  58.3376389  21.6303749  19.9520512  57.6310654  20.9926872  19.8503551
  59.1150894  21.1814041  19.6200504  81.3673172  42.9418983  25.2939053
  81.1697159  43.6310654  25.9281254  81.9807892  42.3656311  25.7497501
   3.8850594  53.1834145  48.4347572   3.5212333  52.9539452  47.5796509
   3.1934752  52.9590340  49.0573273  80.5334778   6.8755102  39.1012001
  80.3509827   6.1621523  39.7127953  79.7051086   7.0155110  38.6424599
  33.3914604  45.3930359  75.9344864  33.1142235  45.9652519  75.2189865
  33.7145882  44.6043015  75.4989243  43.3623314  61.0611115   3.8810394
  43.1594048  60.4463234   3.1759925  44.0975647  60.6599274   4.3444157
  55.8234558  70.6780701  26.2893238  56.3400497  70.8099289  25.4943562
  56.4627380  70.4070663  26.9481907  61.5070381  11.7514963  69.3233871
  61.5820084  11.3315468  70.1802750  60.9065704  11.1899376  68.8331604
  34.4343185  46.7967682  86.7160416  33.8108025  46.1289787  87.0015488
  34.6034737  47.3177567  87.5010223  61.1929817   9.6069326  42.6561966
  61.8371887  10.2514400  42.3632126  60.6798782   9.4080486  41.8729973
  66.7561569  59.6901855  68.4703827  65.9632111  60.1873970  68.6710129
  67.3207779  59.8222427  69.2319565  37.7797661   4.2451868   8.2784271
  38.1074524   3.5805838   7.6724920  37.6066399   5.0079041   7.7265935
  82.0904770  55.6277313  32.9003906  81.3635025  55.0690041  33.1752815
  82.8330307  55.0298004  32.8148117   1.6988459  62.3777657  55.7340279
   2.0675287  62.5631104  56.5977135   1.5398066  63.2405930  55.3513145
  38.4851303  16.0413666   7.4657488  38.1724167  15.9306021   6.5678768
  38.2402763  16.9376678   7.6957936  22.6329308  11.8168564  73.6287689
  22.7327347  12.6490774  73.1665192  23.4541759  11.7094135  74.1086044
  24.0205364   5.0181413  63.6379280  23.9605598   4.9607997  62.6843300
  23.6112709   4.2120752  63.9525566  30.8547821  13.1736870  16.6041145
  30.5225277  14.0025806  16.2594814  30.7940159  13.2679787  17.5547180
  66.7419052  41.9842606  46.0812645  67.0186157  41.2534370  45.5284882
  66.7079926  42.7342529  45.4874649   3.9515116  16.1585426   5.4798026
   3.0644641  15.8543758   5.6717968   4.4791789  15.8340378   6.2095261
  75.1315002  10.4490585  65.8414459  74.6214218   9.7444563  65.4419632
  75.8291550   9.9991856  66.3180237   0.5139195  34.2107544  72.1734695
   0.0556730  34.9525185  71.7784653  -0.1642528  33.5456696  72.2916794
  42.3858986  40.9810677  81.6875763  42.6594620  40.0643921  81.7207489
  42.1055069  41.1147270  80.7821732  67.9540329  38.2598038  77.4973602
  68.7833252  38.5507545  77.8766403  68.2091064  37.7216492  76.7479935
  43.5277939   9.1113253  77.3669281  44.1392059   9.6861210  76.9064713
  43.3504295   8.4042206  76.7466278  75.6664886  31.2833138  63.3165817
  75.2520523  32.1449203  63.2705765  75.2683334  30.7875175  62.6011124
  43.9007492  34.9874611  55.6367378  43.9136162  35.5693588  56.3966484
  44.8069649  34.9756622  55.3287354   6.4468169  64.2551956  23.8983021
   7.2100935  63.8933144  24.3485031   6.3161025  65.1137619  24.3008118
  61.5489731  59.0475960  89.4296875  62.3764915  58.5756874  89.5232086
  61.2344894  58.8091125  88.5576401  23.2482681  31.0754032  73.7213745
  22.9069729  30.4916821  73.0438614  23.1010971  31.9556980  73.3754654
  53.9645424  28.1348324  87.3275757  53.5463943  28.9906216  87.2326584
  53.4154282  27.6685467  87.9578857  58.2613754   5.5195780  40.4045181
  59.0990753   5.1348701  40.6623764  58.4814415   6.1138940  39.6871681
  34.5218353  45.6818924  72.1629028  34.0962524  44.8599815  72.4069748
  34.4072647  46.2470322  72.9269180  53.8924217  47.8599968  58.7668114
  54.1393929  47.5452766  59.6364021  54.1715279  48.7755280  58.7552490
  52.8601303  16.4296131  74.3118057  53.0677719  16.1707726  73.4139633
  53.6777458  16.7935905  74.6513062  82.9711151  35.9873734   4.2022986
  83.8268814  36.3525429   3.9774709  82.7699814  35.3882751   3.4833720
  63.2490425   1.7311696  81.1387100  63.2262383   1.1617801  80.3696136
  63.8759155   2.4174697  80.9101257  63.2231140  44.6237564  49.5426979
  62.7852974  44.7310944  50.3871040  62.5390739  44.2975082  48.9579926
  70.4570084  50.9131050  23.8942623  70.3008041  51.8250160  24.1397228
  69.5832825  50.5530052  23.7420597  36.8731041  10.4952135  49.1765900
  36.2161064  10.3507318  48.4956245  36.4493980  10.2037344  49.9838943
  13.0350409   1.7726270  15.3711805  13.7763338   1.1730068  15.4558716
  13.4347515   2.6399493  15.3062525  83.8060150  46.7801514  29.6215286
  83.2515411  46.9602356  28.8623447  84.0083084  47.6440468  29.9806881
  71.0737457  10.0491419   4.8436828  72.0155945   9.9923401   5.0046930
  70.7000275  10.2907925   5.6911345  29.4572220  23.9424171   9.3141336
  28.5266724  23.8965511   9.5336885  29.6529579  23.0915546   8.9217701
  16.5401535  47.0139275  27.0011349  15.6090040  47.0237885  26.7795601
  16.9398346  46.4589043  26.3314819  48.8719788  49.7119179  87.0638580
  48.9745064  49.6791306  86.1127243  48.0608864  49.2329369  87.2339706
  76.0061569  23.4587345  67.5272446  75.3505402  23.1843624  66.8860626
  76.3944702  22.6407928  67.8377609   1.1547900  12.6340761  72.1516113
   1.9416045  12.8770657  72.6395798   1.0894001  11.6852493  72.2597046
  52.9620247  14.5272093  59.9754944  52.4030342  14.9404621  59.3174782
  53.7777824  15.0270386  59.9448204  56.0063019  54.6373901  50.6508560
  56.3776016  55.1421928  51.3744164  55.5434189  55.2852287  50.1195602
   2.1557243  46.4434776   3.8800142   2.8984764  46.7464409   4.4022827
   2.4786489  45.6588478   3.4369478  60.6123772  30.5838985  70.8632126
  60.2901878  30.7489567  71.7493134  61.4163628  30.0803089  70.9906158
  27.2504063  37.8097115  73.5518646  27.0965824  38.6881447  73.8996048
  27.6551533  37.3327827  74.2763977  59.3051605  60.7802467  78.5979080
  60.0236893  60.8160439  77.9665070  58.5469437  61.1119690  78.1169739
  63.3970718  40.4429665  58.7364655  63.3779182  40.8219414  57.8576927
  62.5366592  40.0367546  58.8409271  23.7662945  54.4799995  28.8628712
  23.1750584  55.2037659  29.0698452  23.5204334  54.2159348  27.9762745
   6.7269602  65.3126297  11.0121870   7.2539434  64.9037781  11.6987438
   6.6881495  66.2368088  11.2584057  59.8873634  40.6989555  10.7728205
  60.2571259  40.7867241   9.8942966  59.3852882  39.8846169  10.7411089
   6.5659952  20.5660782  79.3081894   5.7634811  20.2272129  78.9114914
   6.2720938  21.0026760  80.1077118  36.6547050  48.9432869  23.9948177
  37.1041222  49.4252815  24.6890335  37.1423836  48.1232033  23.9182453
  44.7316132  47.0865440  41.8100739  45.1265221  47.5111580  42.5716400
  43.9039536  46.7326088  42.1355553  14.7423849   8.1020603  10.7416248
  15.3274345   8.6852112  11.2252407  14.1331377   7.7723408  11.4021816
  -0.0320865  43.3837318  42.2918968  -0.2726214  44.1482239  42.8152809
   0.7239187  43.6719017  41.7803841  22.9087830  31.5468712  18.4708881
  22.5244408  31.9764709  19.2350597  22.5193367  30.6724873  18.4665623
  83.0715103   5.7030826  34.1955414  83.0872726   6.5238256  33.7032394
  82.6432419   5.9275012  35.0216522  61.1857491  31.0149097   6.5068049
  61.5831490  31.0964565   5.6398253  60.7587547  30.1583061   6.4949479
   9.6824207  27.7916088  87.9176254   9.6267252  26.8456554  88.0529022
   8.8583469  28.1322536  88.2656097   0.2353661   0.3352899  37.5208511
   0.8423642   1.0753809  37.5137444   0.8000444  -0.4376070  37.5215912
  76.9049149  39.2206917  26.7734051  76.7664642  38.8545723  27.6469135
  76.0715256  39.0857544  26.3223000  65.8197861  15.3844595   2.3882253
  65.3506775  16.2182140   2.3563125  65.5735855  14.9399109   1.5770587
  52.0718117   7.6264257  52.0085449  52.9499664   7.5227351  51.6420326
  52.1212997   8.4307804  52.5250664  47.7156448  52.6370621  50.0763359
  48.3309669  53.2919235  50.4061317  46.9520035  53.1437073  49.7999268
  69.7663727  62.0083694  71.4551697  69.2177887  62.7538719  71.2112122
  70.5931549  62.1593208  70.9970474  83.4859390  38.1734047  78.5739594
  83.3265762  38.2567596  77.6338120  84.3233719  37.7138367  78.6351166
  46.0672340  28.1763992  84.1785660  45.5010223  28.0148029  84.9332352
  45.8636208  29.0735226  83.9141083  81.3325577  43.9340248  41.6062355
  81.8868790  43.1936607  41.8528633  81.8380966  44.7064629  41.8592186
   7.4947200  36.1901436  88.9819031   7.0975823  36.8764420  89.5180969
   6.7700891  35.6012077  88.7714310  85.6154556  51.1209030  32.7192345
  85.7465973  51.1176872  31.7710686  85.9937592  50.2932892  33.0161667
  81.8441010   1.4662489   5.5570312  81.4976120   0.5982738   5.3501573
  81.1054230   2.0586591   5.4168739  12.2652607  64.2962646  76.8267212
  13.1642914  64.0826721  76.5770111  11.7466326  64.0983200  76.0469284
  11.3591757  46.0966682  58.3179169  12.0383158  46.6417046  57.9205055
  10.7163544  46.7215843  58.6533203  23.8483238   3.4294896  69.2796173
  23.7987423   3.5782070  68.3353424  23.4667778   4.2174883  69.6665421
  60.8502922  18.7575092  11.9977636  60.8042107  18.0210667  11.3880405
  61.7860947  18.8749485  12.1611977  32.7363396  66.8908844  44.7906075
  32.1631927  66.2004929  44.4572945  33.6219444  66.5691376  44.6220207
  35.0500832  62.8872108  57.9814415  34.4612961  63.2416725  57.3151665
  35.9016457  63.2747002  57.7791557  11.3739586  53.4924812  56.5293350
  10.7006340  54.1352463  56.7523193  10.9033823  52.8077431  56.0540276
  81.6501465   1.8611243  76.9577789  81.8599701   2.4467466  76.2302856
  80.8201675   2.1927032  77.3004456  86.2473068  63.1050301  81.2849426
  85.8506012  63.5520287  82.0326309  85.7429886  62.2965546  81.1940689
   9.2367125  17.6338425  62.9724579   9.6749077  18.4421043  63.2387810
   8.6877012  17.4011173  63.7212296  36.6118011  20.2359600  27.6196117
  36.6019936  20.2770271  28.5758801  35.9841423  19.5464878  27.4030399
  80.2508392  19.6435623  19.4458752  80.1921234  19.6526051  18.4905205
  79.3926392  19.3341312  19.7356625  76.8192368  25.2922955  44.7858810
  77.1038818  24.4839764  45.2122955  77.6280441  25.7819633  44.6365662
  86.5654221  69.7179184  88.7758484  86.2426682  68.9760742  89.2874527
  87.1923904  69.3322144  88.1639786   0.9192268  33.4197502  17.0209198
   1.4836845  32.9026833  17.5956059   0.6690723  32.8143349  16.3229752
  57.1027107  50.7303543  80.4660416  57.3321609  49.9613838  80.9878311
  56.5770226  50.3827629  79.7455750  62.1739922   8.8275595  84.1457672
  62.8281975   8.8704739  84.8432007  61.9162598   7.9062076  84.1155014
  65.6730804  44.1045914  68.3554306  66.5818100  44.0290756  68.6465302
  65.5879135  45.0141640  68.0696793  31.4755459  13.9823914   2.9804263
  30.5438900  13.9446526   3.1968153  31.6450863  13.1669512   2.5086801
  43.2542648  58.3871574  44.2838745  43.2773781  58.9454079  45.0610847
  42.4108925  57.9375534  44.3369179  81.4805374  56.1941719  78.7035599
  80.7933197  55.5420494  78.5668335  81.0410843  56.9138680  79.1565018
  73.3816147  17.7424603  10.7681007  74.3262329  17.8260593  10.6379089
  73.0073013  18.4805279  10.2870874  63.7641220  52.6542854  87.7176208
  64.4609146  52.9708900  87.1427612  62.9545975  52.9224930  87.2829132
  65.4614182  58.4589615  44.2532234  65.6872101  59.3864136  44.1818924
  64.7427979  58.3389664  43.6324043  57.5909348   5.6366801  89.0372238
  58.2948074   6.2829938  89.0926819  57.4645157   5.5002084  88.0982742
  66.0169067  53.8747177  15.4562025  66.0588913  54.6873817  14.9521713
  66.9056244  53.5214920  15.4155607  78.5293579  42.5794449  19.7327232
  79.3902664  42.8428726  19.4076424  78.3134766  43.2341537  20.3967896
  39.8391380  60.8065643  83.9960785  39.4290199  60.4050636  84.7621231
  39.1107864  61.1912613  83.5084915  37.2397766  71.6267090  33.8176765
  37.5417404  70.8416214  33.3608513  36.3802528  71.8090820  33.4379539
  84.6963654   8.1175289   2.2541499  84.6390457   8.5626478   1.4086822
  85.6345062   7.9886575   2.3938651  46.1072235  57.6410408  11.8148689
  45.8977280  56.7075272  11.7849131  45.3948097  58.0302353  12.3220406
  75.8556519  44.4713669  12.3111248  75.8843689  45.3456268  12.6998072
  75.1052475  44.0482712  12.7283897  63.1939316  67.5566406  50.7086525
  63.5264206  67.6613998  49.8171921  63.6589775  66.7925720  51.0494919
  14.3601742  64.3067780  87.0814743  13.5338707  64.2394562  86.6030121
  15.0160103  63.9595757  86.4768600  72.0809937  58.7903252  38.9957771
  71.2018127  58.5772095  38.6829605  72.0327759  58.6724854  39.9444695
  29.7366390  22.6137581  24.3525410  29.1534290  21.9529667  24.7259750
  30.4774628  22.1134624  24.0103207  27.3481808  55.2703590  35.5691452
  27.4847546  56.0255852  36.1411705  27.7158432  54.5322075  36.0551376
  77.1778641  11.2648153  69.1287308  77.4597778  10.4653940  68.6841125
  77.9610062  11.5748415  69.5834961   5.2388511   3.4253409  86.2578583
   4.5702162   2.8387146  85.9042664   4.9657445   3.5826521  87.1616821
  22.4669857  12.9596844   1.6212499  22.1919098  12.0700607   1.8429127
  21.6936359  13.3566742   1.2205503  65.0855484  29.0233269   8.8856506
  66.0217743  29.2214127   8.9074821  65.0431290  28.0670834   8.8798981
  59.2532997  32.0634308  52.0488777  58.4905891  31.6150818  51.6835098
  59.2389793  32.9300880  51.6427612  46.3921547   7.8229547  62.0084534
  45.5558777   7.4208832  61.7734756  46.3219452   7.9898844  62.9483643
  73.9036026   7.1652627  67.5984421  73.5011826   7.3371210  68.4497681
  73.8643036   6.2136774  67.5026703  21.9802284  71.2336655  78.5193253
  22.8990631  71.0700912  78.7319717  21.8795719  70.9073563  77.6251068
  61.8056068  16.3113766  26.7965221  62.3511925  17.0731888  26.9920025
  62.0016212  16.1045380  25.8827229  39.1764297  27.2460403   4.3307190
  38.5418663  26.9914818   5.0006132  39.1664505  26.5225258   3.7040956
  27.0008583  10.4038296  25.3170376  26.8827801   9.5139780  24.9846916
  26.6696796  10.9667625  24.6172810   9.9240065  16.3111668   9.2532024
   9.7111187  15.3815689   9.1709900   9.2727385  16.6527519   9.8659029
  49.7148705   4.2445354  77.0314865  50.4090080   4.1248083  77.6796112
  49.4813309   5.1703577  77.0988998   9.3104725  54.2732811   4.8638539
   8.6723318  54.3137131   4.1515527   9.4735584  55.1885872   5.0915608
   1.7281104   6.0895052  36.4559326   1.7392710   6.7194300  35.7353058
   2.2731242   6.4904618  37.1330032  59.9630394  44.0395546  44.0851212
  59.4869194  44.3573494  44.8522873  60.8624458  43.9248924  44.3919678
   3.3896618  63.9192619  81.7074738   3.4705737  63.8301468  82.6570740
   3.7909873  64.7658310  81.5112915  61.7486382  52.2008858  37.3882828
  62.6090508  52.2010117  37.8077164  61.7741852  51.4545288  36.7895088
  31.9681625  49.6028481  58.1762962  31.5257263  49.4466324  57.3419800
  31.3996353  49.1943130  58.8290672   9.1944571  34.5414772  78.6642456
   8.4177275  34.3625374  79.1942520   9.7954121  34.9856949  79.2623749
  57.7391701  12.1429482   9.2278109  58.5563927  11.6451349   9.2042017
  57.9136925  12.8611383   9.8360682  57.5437088  48.4419098  14.8680706
  56.7282867  48.8117485  15.2065039  57.9289703  49.1472244  14.3481350
   3.3142779  15.1030550  72.2721329   4.0072851  15.4675026  72.8227234
   3.1973369  14.2093811  72.5944748  78.1971130  47.2863617  35.4276123
  77.6811523  46.8862991  36.1275864  79.1065903  47.1197777  35.6752663
  42.2508812  30.3181534   3.9070075  42.6514130  31.1686325   3.7267563
  42.2074699  30.2714500   4.8620815  77.8808441  57.7949066  85.0555496
  77.1428833  57.2220726  84.8469849  78.2827072  57.3963661  85.8274994
  22.6418533  29.5432739  86.9805527  23.4934711  29.9298115  86.7766724
  22.0529213  30.2929592  87.0663681  18.1466293  57.2575111  43.7393799
  18.7394905  56.7948914  44.3316040  18.6908607  57.4857826  42.9857635
  31.5795879  65.6974182  23.6683273  31.5245838  66.0216446  24.5672626
  31.7067928  64.7533035  23.7615986  22.0644417  56.7782516   0.1288439
  22.0252457  57.7274361   0.2460921  21.9024391  56.4221191   1.0024310
  50.0124664  59.3939018   7.2846913  50.1261406  59.8569908   8.1146669
  50.6809349  59.7658882   6.7093596  66.1347580  43.1471901  57.7513390
  65.2637939  43.4711418  57.5217590  66.7306061  43.6443481  57.1909599
  16.2668343  38.5567245  32.0042000  17.0362682  39.1161003  31.8978958
  16.3038254  37.9547386  31.2609100  49.8166084   7.0622253  12.8165646
  49.8613586   6.3699622  13.4761105  49.7422523   6.5955300  11.9841595
   3.6285231   0.6924967  80.3371582   3.6268969  -0.0168671  80.9798355
   3.9274640   0.2805541  79.5265045  16.2807617  52.4950409  46.1373520
  15.8569803  52.8825645  46.9031601  16.1193104  51.5555458  46.2240524
   3.7870312  71.6017609  60.2798424   3.0376983  71.3520508  59.7391243
   4.5373960  71.1845016  59.8566704   4.8666754   6.8137751  80.9264908
   5.8109164   6.9707389  80.9282150   4.4784307   7.6885457  80.9430695
  58.3811378  67.8982315  58.3265610  57.9008446  67.1494751  57.9731216
  58.8578262  68.2528992  57.5760880  22.0675392   3.0512481  21.8393288
  21.3330421   2.9568870  21.2328281  22.7962894   2.6093929  21.4035339
  28.6931190  44.8210030  72.7381210  28.6728134  45.7773399  72.7733078
  29.5605049  44.5875244  73.0688171  78.4855499  43.8578987  69.7994843
  77.8534088  44.4985352  70.1253815  79.0450974  44.3554878  69.2032089
  28.7795944   5.3211994  44.0343056  28.6423244   6.1067085  44.5638008
  29.6749039   5.0495429  44.2364388  16.3123817  45.9683418  43.2726479
  15.5668974  45.7056732  43.8125458  16.6210213  46.7825050  43.6702766
  46.4802437  30.2005672  68.8171234  45.7489815  29.5960464  68.9437790
  46.2895317  30.6364956  67.9865723  17.5612831   7.0891666   3.6992168
  18.5074863   6.9505167   3.7405493  17.1859608   6.2942758   4.0780487
  57.2561226  10.8287983  39.7226181  56.4292984  11.0333681  39.2858734
  57.4591026   9.9355507  39.4448776   3.9147415  23.8322983  83.4944458
   3.1498432  23.5565472  83.9995499   3.7783244  24.7678185  83.3447037
  72.1559143  47.0628586   9.0029221  71.4169312  47.6417923   8.8159056
  71.8189087  46.4468117   9.6534166  83.7311478  19.1789627  78.5373154
  84.4485703  19.7330914  78.2299271  83.7811737  19.2299614  79.4918442
  58.0843163  41.3982239  80.6448135  58.2774734  42.0375671  81.3304977
  57.3580971  40.8827362  80.9956894  65.3117828  11.6357822  84.1099548
  66.2090759  11.3035364  84.0832672  64.8365479  11.0928917  83.4809418
  62.9050980  27.2212696  57.0167465  63.0211029  26.4566479  57.5807762
  62.7675858  27.9482384  57.6240654   9.9142332  63.1700325  21.9528198
   9.1040506  63.5838776  21.6552124  10.5975218  63.5634003  21.4100380
  45.7925758  24.3135185  72.8184814  45.8108673  24.6807613  71.9347153
  46.6475792  23.8958073  72.9220123   8.3934155   2.4636931  54.3309975
   9.0755596   2.1036980  54.8978462   8.2082157   1.7637463  53.7048950
  86.5873032  31.9466381   3.3639240  87.2733459  31.4824677   3.8436401
  86.0252457  32.3145523   4.0458040  36.4234962   8.9176168  37.9024277
  35.7953720   9.2100515  38.5628624  37.2748413   9.1913357  38.2437859
  57.2439384  31.6177692  81.3190384  56.7742958  32.0766525  80.6225510
  56.8229523  30.7594318  81.3665619   9.8434944  61.6779861  24.1603451
   9.8052330  62.1045685  23.3043079   9.4339819  60.8241119  24.0209618
  83.7989120  24.5603447  82.0947723  83.1558228  24.4368763  82.7929306
  84.6443558  24.5511742  82.5435257   3.1107295  51.0197601  84.2023621
   2.5271893  51.4657097  84.8162308   3.3125844  50.1857948  84.6266098
  61.3178673  70.1603317  72.3671417  60.3678169  70.1310654  72.4801865
  61.6149216  70.8103867  73.0038681   4.1262531  22.4166145  63.8201981
   3.2007515  22.5028305  64.0487747   4.3796315  23.2876148  63.5145988
  67.2627640  24.0343075  68.6880875  66.7599564  23.9875431  69.5012436
  66.8302002  24.7191410  68.1780624  79.8769531  23.1648026  72.5677567
  80.1674500  22.6761017  73.3378296  79.5116196  22.4988785  71.9852524
  11.5270748  17.2881413  87.3393173  10.9967918  16.6136513  86.9149475
  10.9096060  17.9948101  87.5279541  60.2939682  13.2372351  41.7374077
  60.4064941  14.1724072  41.5670471  60.2522964  12.8387346  40.8681030
  53.4080200  67.7496033  31.1286907  52.4730873  67.9491806  31.0807438
  53.6034279  67.3166351  30.2976742  66.1640930  37.3353882  41.0450020
  66.4280090  38.2315826  40.8366356  65.3406219  37.4332275  41.5230713
  43.0955582  27.0202255  88.3230896  43.5173874  26.1933174  88.5565720
  42.4931946  27.1944027  89.0463104  15.1037722  58.8834991  69.4653625
  14.4403391  58.1938057  69.4856796  14.6535835  59.6377525  69.0850220
  45.8338509   5.0043249  83.0306396  44.9143333   4.7583017  82.9296875
  45.9795799   5.6681261  82.3565750  55.6043282  71.7194290   6.6137333
  55.3014069  70.8115540   6.6291394  56.0437469  71.8109894   5.7683001
  80.1045074  21.0465755  65.0122147  80.1109467  20.7028446  65.9055481
  80.8898697  20.6777267  64.6080017   2.4844491  42.0966492  73.0194473
   2.0141349  42.8334770  72.6294250   3.1873755  42.5026665  73.5266724
  58.2871513  43.8704491  82.3600922  57.7500648  44.5985832  82.0477066
  58.8015709  44.2423973  83.0765152  35.4966774  25.4959202  81.2786560
  34.8035469  26.0537453  81.6316986  35.1949921  24.6033058  81.4473495
  73.9268951  63.7654800  36.8334236  74.6190796  63.4687691  36.2425995
  74.3899155  64.0474472  37.6223106  74.8651199  49.6271820  78.3925400
  75.0027695  48.9008255  79.0005646  75.1035385  50.4072609  78.8934097
  55.5305939   0.7009306  44.8676834  54.9078140  -0.0184958  44.7637405
  55.7318420   0.7101935  45.8034401  43.9888077  23.7624817  22.9443703
  44.7612762  24.1094742  22.4981365  44.3383827  23.3131313  23.7138596
  77.4842834  43.6183739  17.3060608  76.7638092  43.0025787  17.4399986
  78.1148529  43.4023323  17.9930439  43.8097115  55.3250275  15.9620781
  43.7580414  54.7250214  16.7060909  43.6765480  54.7677689  15.1952906
  65.3408966  17.4848175  86.8102417  64.4169693  17.2817287  86.9563293
  65.5867462  16.9515114  86.0543518  53.7381439  22.8185005  73.5067215
  53.8518486  21.9525795  73.8984909  52.8310890  23.0529480  73.7029800
  76.9136353  36.7109642   2.8794286  76.0704117  36.3632889   2.5890367
  76.8261795  37.6596718   2.7870107  56.2107925  37.7779274  34.9295769
  56.9251442  38.1455536  34.4092140  55.5178375  37.6004982  34.2935219
  69.4823608  66.1512756  51.6867752  68.6077576  66.5381775  51.6466942
  69.7895889  66.1593018  50.7802544  65.7559814   3.0751560  59.7199326
  64.8487015   2.8716519  59.9472084  66.2591705   2.8230603  60.4941978
  43.5774498  50.1700706  77.7537613  44.1201591  49.4668350  77.3971634
  43.7470055  50.1493492  78.6955948  48.8417816  38.3540573  15.1148520
  48.9903374  38.1979828  16.0474854  47.9508095  38.0410385  14.9585705
  59.1606979  24.9065685  74.7400055  59.9074287  24.6117744  75.2612762
  58.9638710  24.1676369  74.1642685  59.7878113  57.9123993  37.9823341
  60.1067772  57.2705956  37.3478432  60.3094978  58.6967697  37.8125191
   8.1003332  28.6222076  64.5875397   7.3200946  28.9748478  65.0154495
   8.5927420  28.2042942  65.2940216  55.1570816  12.1303473  20.7132797
  55.4249725  11.2555714  20.9947605  55.5166168  12.2184925  19.8305588
   6.7254205  42.5362358  72.3832016   6.4055395  41.8934135  71.7502060
   6.0196800  42.6116447  73.0254440  75.7258301  38.3223267  65.6559067
  74.9847717  37.8400459  65.2892075  75.4587250  38.5267296  66.5520706
  15.5676861  60.8471794  25.1664772  15.2398252  60.4711761  25.9833984
  14.8047543  60.8669434  24.5887432  53.8241119  58.2610626   8.2914190
  53.5424538  57.8030434   7.4995103  53.1644821  58.0340309   8.9468412
  15.2430563  19.3481407  22.1490269  15.8576279  19.0101318  21.4976578
  15.2656536  20.2975960  22.0296230   1.8734962  62.3333321  61.1750946
   2.5680714  62.6344566  60.5893288   2.3295841  61.8258095  61.8463860
  36.1037903   7.5346217   9.5215130  35.7708588   8.3978376   9.2760649
  37.0410728   7.5766001   9.3318386  54.0799484   1.9009602  19.3656578
  54.9037132   2.0108962  19.8405838  53.6735535   1.1322098  19.7657776
  41.8411980  15.9138699  20.0812035  42.1987762  15.3922119  19.3627033
  41.9964447  16.8212109  19.8187885  54.3345451  48.8059006  46.4240837
  54.2310829  49.5313454  47.0399246  55.2420502  48.5232773  46.5371933
  41.0291901  38.1383018   2.8701038  41.2448158  39.0709000   2.8705378
  41.4426384  37.7972488   2.0770249  58.8547096  25.5482750  27.4870701
  57.9537621  25.2319469  27.4202843  58.8726387  26.3365479  26.9443550
  75.1481781  19.9757042  47.0052681  75.1933517  20.9233704  46.8782997
  75.9298935  19.6379566  46.5681419  57.8287392   3.5487335  52.7682152
  58.1520119   2.8120658  53.2869110  57.9072075   3.2552471  51.8605042
   3.9633563  23.9698715  15.2098427   3.0329568  23.8539524  15.4025898
   3.9785719  24.4309616  14.3711548   0.7523028   9.5654411  25.9787025
  -0.1869546   9.7181396  25.8752079   0.8780302   8.6553459  25.7100925
  57.8121452  66.4112930  25.8746872  58.0362892  66.0774612  25.0060387
  58.4285355  67.1286469  26.0219784  75.0214996  16.0310745  16.7284431
  74.8829727  16.4882393  17.5579262  74.6880417  16.6340599  16.0640297
  59.7905464  27.3402424  35.2111549  59.5045891  27.2000637  36.1138229
  59.7809792  26.4673004  34.8185806  28.6589813  20.2634621  76.1524582
  28.0857277  21.0287552  76.1084137  28.0743084  19.5386810  76.3739929
  40.2857323  66.3246307  88.7817917  40.6387444  66.3727036  89.6702194
  40.8668022  65.7158051  88.3257980  53.5479202   4.0440493  33.1644096
  53.9654198   3.2293887  33.4441490  53.2682762   4.4618549  33.9789467
   0.2680202  42.7915459  52.0212479   0.5375975  43.4476929  52.6639252
   0.7216079  41.9926109  52.2899323  56.6183128  66.6413956  11.7384081
  55.9098473  67.2247009  12.0105534  56.4956360  65.8527985  12.2668858
  49.5923920  38.7856407  10.1271172  49.9855309  39.1550407  10.9178238
  50.3357277  38.4589386   9.6202135  16.9996414  70.6396179  49.9507294
  16.3246517  71.1765594  49.5356216  16.9340076  69.7912369  49.5123634
  13.1735573  41.6482849  78.8275223  12.3001976  41.7264137  78.4436340
  13.7215900  42.2250443  78.2953186  78.3301849  40.1024017  18.4607334
  78.4086380  40.3260536  17.5333405  78.2770615  40.9474106  18.9072361
  18.6175594  25.7022572  11.3239403  18.1216183  26.0329971  10.5750179
  19.3897533  26.2661953  11.3677578  49.7306519   9.1650944  76.6535873
  49.4847298  10.0854616  76.5604248  49.0070381   8.6822300  76.2542648
  20.1113605  51.3542366  33.4394493  19.6483250  51.3853111  32.6022720
  20.7018929  52.1071587  33.4146271  28.5110188  27.3403816   1.6800609
  27.9117622  28.0750008   1.8121898  28.7678051  27.0787354   2.5642745
  70.2539978   9.4155550  27.7050152  70.1721573   8.9193592  28.5194626
  70.9067917   8.9347439  27.1961823  23.3093586  71.2709122  64.8614349
  22.9524956  70.8545914  64.0768585  22.7285995  70.9881668  65.5678329
  28.3709927  17.4741173  73.0280533  27.5642014  16.9769802  72.8932419
  28.2526207  18.2685661  72.5074081  35.0047073  13.9149055  71.8638687
  35.8800278  13.5608854  72.0210953  35.0427666  14.8082829  72.2054291
  27.7997494  45.5909767  29.3324070  27.8621063  44.9120407  30.0042629
  28.6923828  45.6802483  28.9985390  59.8702736  29.5737782   9.7738981
  59.8780670  28.6442566  10.0022840  60.4271469  29.9871845  10.4336109
  60.6537857  55.7234955  57.7028809  59.7392693  55.8237152  57.4385910
  61.0177422  56.6069717  57.6459618   4.4093194  41.6375542  86.7631226
   3.4536760  41.6916428  86.7703552   4.6109109  40.8861084  87.3207245
  24.4997234  17.7051373   3.0120566  24.0397205  17.0154324   3.4905298
  23.8579369  18.4109249   2.9332690  61.2273102  23.5667343  19.7273407
  61.4258537  24.1538563  20.4567928  61.0505714  22.7218933  20.1411495
  78.6655731  69.0640564  43.4700279  78.4565353  69.6745148  42.7630119
  79.5399780  68.7391968  43.2552681  25.5957050  52.5673676  27.6638451
  24.9440117  52.9158630  27.0555019  25.0815830  52.2224503  28.3938732
  13.1766062  27.7320614   4.9562593  14.0340195  27.6680355   5.3769441
  13.3714228  27.7687740   4.0198140   0.7831684  23.9502926  73.4316635
   0.6444468  23.6295204  72.5405426   1.1125499  24.8416653  73.3167953
  69.1891785  71.3224716  48.7922440  69.4772797  71.1692734  47.8923798
  68.8834076  72.2295151  48.7946968  62.9001503  69.8297882  24.5825634
  63.0733490  69.6679001  23.6551857  63.6425362  70.3578415  24.8762474
  57.5094185  35.5176163  36.0662918  57.0668907  36.3588753  35.9536591
  56.8661385  34.8685646  35.7814140  40.6484680  69.2675552  87.8018951
  40.1323929  69.2283783  88.6071091  40.9840965  68.3782654  87.6890106
  69.3010559  67.3512421  62.0761986  69.6506348  67.0518417  61.2369194
  68.6122818  66.7209702  62.2873192   5.8027468  62.5047073  34.4905167
   5.9147124  61.8713112  33.7816391   6.3936572  63.2232475  34.2652359
  65.8217392   1.7056038  39.8676529  64.9350586   1.9100888  39.5706367
  65.9138641   0.7648569  39.7168541  26.1796036   1.6328242  32.4576187
  26.8341236   1.4611130  31.7806015  25.8645039   2.5164545  32.2675056
  30.7721176  60.9469070  84.5910339  30.9839821  61.6241913  83.9486694
  29.8450890  60.7590904  84.4441605  16.4594803  26.5621319  22.6139812
  15.5385752  26.7508659  22.7943821  16.8956413  27.4115467  22.6809902
  75.9711456  47.4125824  23.8192825  76.6911240  47.7511749  24.3514709
  75.4225082  48.1771736  23.6442738  86.6378555  48.4291077  44.3944359
  87.0724564  49.1146355  44.9017868  85.8171234  48.8284302  44.1060486
  46.0216446  65.7890701  20.1354427  45.5055504  66.1125565  20.8738461
  45.4076805  65.2575989  19.6286736  65.5242538  38.4774361  78.9857864
  66.3855896  38.1548195  78.7207489  65.0030746  37.6859398  79.1204834
  77.6506882  61.9807854  84.1721268  77.2064438  61.1735115  84.4313431
  78.2019882  62.2023773  84.9225845  40.9963951  64.0610352  75.2931366
  41.1778259  63.5858574  74.4822617  41.8600388  64.3044281  75.6264725
  48.2961845   3.5485523  55.4738998  47.8927765   2.6819284  55.4243355
  47.5656700   4.1434660  55.6431770  46.0915451   5.0911083  55.9501305
  46.7411613   5.6616015  55.5393181  45.2808418   5.2690425  55.4733315
  84.5991440  40.9862137   3.2232645  84.7617722  41.8092499   3.6841300
  85.2785187  40.3934441   3.5446794  55.8050461  59.3630104  64.0266418
  55.7474365  59.0143013  63.1370811  56.7394676  59.5201797  64.1622391
  64.7057343  15.1104574  55.4482651  65.2407761  14.7163067  54.7593460
  64.1517868  14.3948793  55.7602310   2.8798759  49.2593956  45.6784897
   2.4018600  48.5761795  46.1485443   2.2524726  49.9776649  45.5967178
  26.4652863   3.8702643  23.9076385  25.6180286   4.2073703  23.6165257
  27.0803242   4.1507063  23.2299137  75.5753708  26.0174656  40.6755447
  76.1009750  26.6748333  41.1314392  75.6641846  25.2277069  41.2090530
  16.6208992  34.0227547  21.4657993  16.2452965  34.0544968  22.3456554
  17.3750820  33.4391060  21.5482464   6.9700742  69.6126328  89.0560303
   6.9452543  69.0588074  88.2757111   7.5091310  69.1249695  89.6787949
   4.8550377  58.2537346  12.7933025   4.1779685  57.8884354  13.3628340
   4.6316061  57.9331284  11.9195051  63.6628685  34.2431831  56.3847923
  64.5502014  34.5107079  56.6241837  63.7278099  33.2989960  56.2415390
   2.1827450  52.8479805  18.7575874   1.7842170  52.0480652  18.4147396
   3.1051755  52.7807312  18.5109463  24.9138508  62.9679871  17.3124619
  25.0099239  62.0378075  17.5168247  24.5753078  63.3566933  18.1190166
   5.0326567  71.6429977  21.7247219   5.5372653  71.1137314  21.1070805
   4.4455628  71.0187454  22.1511822  21.9592113  11.6875982  45.1323357
  22.2002354  12.3951216  44.5343819  22.7205238  11.5871677  45.7037811
   5.3984375   6.7103791  47.6973534   5.9530511   7.4854407  47.7863197
   5.1649861   6.6881576  46.7693253  67.0957336  37.3616104  82.4379272
  67.6650009  37.5731583  83.1778107  67.6864319  37.3182449  81.6859818
  52.8621292  65.6655197  33.3413963  52.9435043  66.1582413  32.5247955
  52.4225807  66.2677231  33.9417076  49.3681641   8.9562178  17.4827633
  49.5274620   8.0526342  17.7555141  48.7847786   8.8792048  16.7278061
  45.0035210   1.5449822  50.1988373  44.1268196   1.3622693  49.8608475
  45.2411537   2.3851578  49.8065796  53.0572510  33.6803131  14.3127708
  52.6248817  33.8245583  13.4710560  53.5760345  32.8864899  14.1826220
   6.8852129   0.2899737  15.2764807   7.3697195   0.9831017  15.7248774
   7.2217917   0.3035562  14.3805113   2.5224149  61.9633904  74.5398331
   1.6994390  61.9593086  74.0510330   3.1767187  61.6615334  73.9097519
  62.1494026   5.3053193  59.7467003  62.7442436   6.0542083  59.7862129
  62.7118073   4.5643730  59.5210266   9.1138754  24.1050930  33.1112480
   9.1926136  23.1569977  33.2168236  10.0128345  24.4070816  32.9812164
   5.9776425   0.3365472   7.8729534   6.6746044   0.7753326   8.3607483
   6.3703394  -0.4865834   7.5823035  46.5306168  23.5721436  77.3513565
  47.1914101  23.7673912  78.0157852  46.5978584  24.2946625  76.7271194
  56.2658081  29.6331768   1.6115819  56.1584015  30.5591583   1.8289648
  56.6446342  29.6358948   0.7325393  83.0602493  57.7657661  76.8957367
  82.3056870  58.1074409  76.4160309  82.7272263  56.9881134  77.3435974
  84.9554520  65.4390106  19.9560108  85.6147537  65.5758591  19.2756977
  85.2954483  65.9094620  20.7171326  32.7649918   4.3781214  49.4022865
  33.5079880   4.7664886  49.8641968  32.2303658   5.1263943  49.1367798
  14.1781397  23.0255680  66.6875000  14.0487499  22.3687725  66.0033112
  15.0711651  22.8755512  66.9977112  47.6427040   6.4997835  36.4328117
  47.8291206   6.6680188  37.3564873  48.4425964   6.0954080  36.0968246
  78.7875443  24.4167423  84.7119598  78.9715424  25.2174473  85.2031326
  77.9437180  24.5822487  84.2914963  27.9719524  38.2179947  11.0566339
  27.8155479  37.2897720  10.8829479  28.8237572  38.2398567  11.4927349
   3.5870483  29.4488525  83.9524384   4.2245202  28.8048916  84.2609482
   3.6815212  29.4420700  82.9999390  45.6268005  71.1237030  38.0366592
  45.4982224  71.0841370  37.0889587  46.5301056  70.8355865  38.1680489
  77.1822128  52.0278969  67.9337921  77.3789902  51.1575851  68.2802963
  76.2261581  52.0747108  67.9326706  45.9812393  37.3913651   3.2490573
  46.4025536  37.1447182   4.0723977  45.1523247  36.9126930   3.2513778
  49.7273140  44.5304184   9.2744322  49.1045952  43.8518333   9.0137053
  49.1793137  45.2647705   9.5513029   6.8908648   2.3744390  45.3647804
   6.1697683   2.2821007  45.9874573   7.6542687   2.5669172  45.9092064
  50.4330177  38.9483719   5.5985503  51.1065941  38.3133621   5.3550606
  50.8409271  39.8007050   5.4456873   2.3501484   2.8498974  72.4115601
   3.0539768   2.8410540  73.0602341   2.7790985   2.6124022  71.5894699
  54.7902870  58.4775925  81.2668152  54.5734367  57.9080772  80.5286713
  54.9998016  59.3208466  80.8652496  55.0001640  28.8453541   7.7467065
  54.6004639  28.2754326   7.0896978  55.4997978  29.4838352   7.2378435
  52.4211502  55.2350578  56.9292526  51.6088829  54.7293663  56.9021988
  52.7763367  55.1653061  56.0431328  39.9960861  17.1015625  26.6011143
  40.2120209  16.6279163  25.7978325  39.6990013  17.9603310  26.3002949
  41.1976509  57.4472351  68.5601120  40.4892464  57.7600174  69.1227570
  41.3636131  56.5530624  68.8586884  47.8059731  18.5963287  79.2862549
  48.2310143  18.7947407  80.1206436  46.9962578  18.1480923  79.5305481
  82.4845276  51.2428970  46.5251923  83.2223969  50.7542915  46.1604347
  81.7456970  50.6367264  46.4711227   3.3181691  33.5558815  55.3872375
   3.4157977  34.0612946  56.1942444   2.3791239  33.3805389  55.3265648
  76.2172394  68.4271622  35.2455025  75.8701019  69.1025314  35.8282547
  76.6273346  67.7919693  35.8325195  53.4733124   3.2116776  53.1168098
  53.0782204   3.8966286  53.6562309  53.7116966   2.5244634  53.7390175
  44.3075981   0.9135584  54.2340698  43.6780396   0.4500975  53.6817169
  43.9816017   0.7888185  55.1253586  30.3894768  51.4810410  61.8244133
  31.1329994  51.6497345  61.2456703  30.2998829  52.2830315  62.3392105
  13.2876081  19.9624252  70.1752625  13.5081034  19.4992847  70.9834213
  12.6383438  20.6133289  70.4417496  84.5647812   9.0722942  70.2551575
  85.4736023   9.3662663  70.1929855  84.4220276   8.5647898  69.4562302
  45.4406319  44.1328354  71.5947800  45.5371170  44.9159431  71.0528717
  46.3260460  43.9475632  71.9077530  79.2969055  69.8149643  31.8636761
  79.7984390  70.4168930  32.4135666  79.9016266  69.0953140  31.6829739
  49.3849258  50.7586823  61.6351089  48.7043762  50.8297577  60.9657593
  49.4726944  49.8179359  61.7884865  30.9886818  40.7918549  10.0906382
  31.8145370  40.5007591   9.7040415  31.0444870  40.5208092  11.0069637
  66.9391708   5.6350870  31.6531982  66.2662125   5.7845411  30.9891052
  66.5366821   5.0220051  32.2683105  59.4364548  49.0832825  37.4503021
  58.6861076  48.5926552  37.7856979  59.3263016  49.9640045  37.8086700
  19.0900040   8.0561056  40.1957321  19.1711979   7.2661219  40.7301140
  19.0830765   7.7355204  39.2938385  75.6873703  58.0481224  87.7742386
  76.1254120  57.2011147  87.8575058  74.8011627  57.8319664  87.4841690
  69.8949509  10.5500154  70.1448822  69.4094086  10.4880772  70.9674683
  69.8533859   9.6680498  69.7752380  16.3177700  41.3029366  71.7273254
  15.6599379  40.6275864  71.5618210  15.8134289  42.1114006  71.8181839
  50.9328651  52.4169617  85.2493668  50.5828247  51.5382385  85.3961716
  50.4756508  52.7295685  84.4686813  17.5729332  68.4208603  30.2159138
  16.7912712  68.7720032  30.6424541  18.2313538  68.3904877  30.9100246
  66.3880386  13.6713467  31.3302193  65.6784286  13.8323765  30.7083263
  66.0719299  14.0400791  32.1550484  62.8426094  10.3648376  66.2396393
  62.3910637  10.1539307  65.4224167  62.7871361   9.5620594  66.7580032
  71.9677124  62.5800819  31.2837124  71.2031784  63.1222458  31.0893478
  72.6707687  63.2081070  31.4496155   1.2798038  14.3783436  79.9531174
   1.4268268  15.3238983  79.9298248   0.4355066  14.2564659  79.5189056
  73.1258469  43.5614204  77.8624573  72.4065399  43.0209618  77.5357666
  73.7894974  42.9319077  78.1444397   7.9728642  23.9043789  56.8588600
   8.5225248  24.6402016  57.1284370   7.0918350  24.2734776  56.7973404
  65.8644333  30.8632507  36.8738289  65.9534302  31.7226734  37.2857819
  66.6207428  30.7976418  36.2907982  76.9317856  49.4441261  73.7446747
  77.5551224  49.0624352  74.3627396  77.0710373  48.9570580  72.9325180
  56.7665291   6.7902975  84.1265945  56.1203384   6.1044354  84.2947235
  56.3927689   7.5749950  84.5275803  25.4749603  21.5442104   3.8553858
  25.2876949  21.4089069   2.9264855  24.6685371  21.9183350   4.2102742
   7.4259710   7.1725783  69.9507751   8.0642920   7.1261468  69.2389984
   7.5368805   8.0507784  70.3150482  58.7500763  50.3614426  13.3061876
  59.5611191  50.4773483  13.8011732  58.6028366  51.2087288  12.8858767
  27.9759140  64.8528595  84.6827087  27.1368637  64.3922348  84.6898422
  27.8099804  65.6449051  84.1714783  61.7227364   7.0821438   2.8349662
  61.4574394   6.1719933   2.9671657  62.4971504   7.1885500   3.3874097
  34.4264107   2.1021979  51.9889870  33.7553329   2.4278698  51.3891335
  33.9603539   1.4934114  52.5620537  20.8414421  42.8449097  70.7008896
  21.7336597  42.8293839  70.3545685  20.9047623  42.3998566  71.5459595
  62.8358688  59.0549202  35.5969887  63.4734688  58.5360985  35.1065598
  62.0140190  58.9370842  35.1206436  85.7652740   5.3640127  26.3571148
  86.2378311   5.9585047  25.7744503  86.1463547   4.5036225  26.1818027
  81.5207214  23.7157879   4.9972277  82.1261063  23.5450592   5.7187471
  81.7059631  24.6182899   4.7376037  73.7578812  29.2179928  46.5543022
  73.3917542  29.2900162  45.6728249  74.6416397  29.5773926  46.4766808
   4.7742357  65.0997391  61.4182777   4.8031859  65.1515427  62.3736343
   3.9374614  65.4999847  61.1819572  40.3546715  60.3725662  72.2636032
  40.3676186  60.4972267  71.3146439  39.5628967  59.8601265  72.4270782
  42.3659973  57.5523262  63.0963097  42.1678848  57.9585953  62.2525482
  41.5531998  57.1136703  63.3476486  45.4058685  51.8687286  83.7974014
  44.7062531  51.8755302  84.4506378  44.9817696  51.5634613  82.9954147
   9.6614523  67.0164948  46.1722298   9.7550230  66.2350922  46.7171021
   9.3378429  66.6866150  45.3339653   4.9261069  15.9389668  36.5922089
   4.9543509  15.5524006  35.7169952   4.0054121  16.1647949  36.7247009
  73.4145203  63.3503838  24.5795631  73.7414856  63.4608345  25.4723816
  73.5911865  62.4329071  24.3715820  10.7351360  13.4439716  67.7400208
  10.0376701  12.7905426  67.6870651  10.2914972  14.2799740  67.5967789
  82.6660080  61.7992477  20.4223595  83.1326828  61.4025154  19.6867924
  82.0493240  61.1246300  20.7066441  69.9364853   5.0140696  87.3844376
  69.1842880   5.2186594  87.9399338  70.6628418   4.8999453  87.9973145
  19.5219021  65.6455841   0.4379489  20.2727566  65.5925293   1.0292474
  18.7867870  65.8793564   1.0046803  86.6171265  14.2947941  43.5908051
  87.3097382  14.8888588  43.3016434  85.9299622  14.3889303  42.9311295
  15.3210630  59.4012184  64.0255661  15.1535034  59.8051834  63.1741180
  16.2197933  59.0775299  63.9643936  53.8826103  27.1405334  13.8588810
  54.0081825  26.5111656  14.5690632  54.0075684  26.6282749  13.0600014
  26.5051136  54.4062729  31.4047623  27.1446152  54.0384216  30.7948799
  26.3461018  53.7052078  32.0367851  54.2735291  11.0304708  27.2551613
  54.6012573  10.7857237  28.1205654  53.5337296  10.4421806  27.1040306
  10.5425320  19.4801559   8.2882395   9.6440706  19.1606007   8.3712072
  11.0137281  18.7627602   7.8645048  60.8123436  52.4101143  56.1601448
  60.8760834  52.0612755  57.0492325  60.1959915  51.8266411  55.7175407
   0.3903057  64.7553253  43.0182762  -0.5534776  64.7752228  43.1767349
   0.5168353  64.0211792  42.4172363  10.8439617  55.8080292  44.4533501
  10.1625156  55.6946373  43.7907753  11.4199800  55.0525703  44.3362274
  13.4921761  13.6828413  47.8595619  14.2548761  13.1071377  47.9151192
  13.8553047  14.5410299  47.6407433   4.6771355   6.8767047  35.6950150
   5.2650037   7.4393849  36.1990356   3.7994373   7.1309085  35.9800758
  37.7057991  66.6517715  32.4388390  38.4712219  66.3687286  31.9385948
  37.1927414  65.8534088  32.5638313  83.7418518  65.1252365  41.3460159
  84.0164490  65.6941681  42.0651398  83.7768631  65.6854248  40.5706482
  14.9142313  39.9815979  55.9191399  14.9516687  40.9153137  55.7117653
  14.2149086  39.9083481  56.5686111  36.2461014  63.8708382  71.2794571
  37.0379486  63.7608681  71.8058777  35.8454056  63.0016594  71.2650986
  26.3776779  63.5838356  37.1306343  25.9179878  62.8393555  37.5187912
  26.3207302  63.4348564  36.1868134  71.4927139  62.7411003  52.1771622
  72.0834579  62.0414200  52.4559212  70.6846161  62.2895050  51.9337273
  83.3350220  60.0326729  84.3553848  83.0059433  59.7862701  83.4909592
  82.7147446  59.6389542  84.9689636  25.7651253  55.2624092  84.7361755
  25.2867413  54.5243034  85.1137695  25.5156460  55.2619553  83.8120575
  19.7783508  51.0126762   0.8839000  19.1279278  50.4750175   1.3356791
  19.3471909  51.2780876   0.0715636  34.0306549   7.5466294  75.5231400
  34.3204308   7.0762291  74.7414856  33.4976158   8.2664804  75.1856308
  76.1984634  67.0781555  46.6364479  76.4512558  67.2642136  45.7321777
  76.6322250  67.7586288  47.1512566  83.5024261  34.3397980  28.2467060
  83.1423416  33.4544830  28.2994995  82.9134293  34.8027878  27.6509209
  46.3266792  22.7357674  69.7892075  46.9459457  22.4709721  70.4693756
  46.2737465  23.6879921  69.8710403  54.6689034  41.1172295  74.6421661
  55.3704567  41.7542267  74.5069275  54.2276878  41.4123611  75.4386978
  14.9876108  36.6407814  80.6168365  14.4308233  37.3818321  80.8557205
  14.9076061  36.0340424  81.3528442  71.8608475   1.4362832  11.3386517
  71.2139511   2.0894141  11.6054392  71.3398361   0.6847909  11.0557384
  78.3839264  54.5619278  24.5576935  78.7593918  53.8228416  24.0791454
  79.1158066  55.1674118  24.6758785  34.0900345  69.3740768  60.3921967
  33.2248230  69.7822571  60.3600540  34.2165527  69.0115433  59.5153923
  49.3351898  40.7500763  17.1786385  50.1289749  41.2839470  17.2120857
  49.3701210  40.2188721  17.9741497   7.9035082  38.5345802  35.2961311
   7.8848424  39.0732841  34.5051308   7.0071607  38.5685501  35.6302567
  75.7669144  57.2314110  70.1987915  76.6260605  57.4596748  69.8438263
  75.2233200  57.9993744  70.0228119  70.4964828  57.4195518  70.1108475
  70.7857819  57.0667114  69.2694016  69.7405090  57.9653854  69.8945160
  21.7682438   4.0899258  29.8714142  21.9500847   4.6960196  30.5896168
  21.5945587   4.6554551  29.1189232  74.8357849  40.7735786   9.8418741
  75.7268372  41.0586929   9.6394825  74.8217926  40.6900101  10.7953167
   7.0364056  53.5591507  31.4270344   6.1604462  53.6021957  31.8105354
   7.4970012  54.3124161  31.7967300   4.9011140  45.5937538  53.8825378
   5.2899799  45.2790527  54.6986122   4.8689899  46.5450439  53.9837570
  18.4092064  14.8800840  62.1812401  17.6145706  14.6021929  61.7256508
  18.2398605  15.7901812  62.4247093  49.8676300   6.1686497  53.0724373
  49.7798233   5.5668163  52.3333015  50.4150848   6.8794417  52.7388191
  27.5953941  56.7915039  37.7092323  27.2584782  56.0077667  38.1433716
  28.1182957  57.2307701  38.3799400  50.5436401   1.0967079  38.7740440
  50.5297241   0.1534756  38.9363708  51.3699875   1.2486517  38.3154640
   7.3410878   0.7194384  26.3068752   7.0764866   0.8791678  25.4009476
   6.8306136   1.3461885  26.8195477  81.0541992  27.5671864  47.9182549
  81.2196121  28.2076931  47.2264328  81.6775970  27.7936878  48.6083984
  73.4962311  32.4900398  38.9071999  73.7968826  32.2505608  38.0305634
  72.5436935  32.5412979  38.8280373  41.2518692  64.5430908  56.8798790
  41.1972046  64.5041885  57.8347282  40.6399307  65.2364960  56.6329956
   9.7115526  14.7615185  33.7480164   9.4912052  14.6511736  34.6729507
  10.5980482  15.1225119  33.7544060  85.2518692  56.9117889  38.2177773
  86.1066055  56.5003014  38.0899773  85.0109711  56.6892471  39.1170387
  80.5216675  70.7061768   4.7364330  80.7917862  70.2096329   3.9639597
  81.0917282  70.3885651   5.4367137  22.1349640   7.4914427  57.0433731
  22.8488083   7.6904163  57.6492348  22.5635014   7.0697708  56.2985382
  75.2687531  19.6750317  17.7268219  75.1146088  19.0771275  16.9953976
  74.3926697  19.9189682  18.0254917  46.6358719  62.1976471   6.5265880
  46.0908089  62.7754936   7.0606627  46.8538857  62.7199936   5.7546687
   7.3111839  16.7212963  57.8704643   7.0860810  16.5170460  58.7781219
   7.8295140  15.9717083  57.5777473  66.4173050   2.9128375  77.3108292
  65.9327316   3.3363144  76.6022491  66.4055862   1.9824101  77.0863342
  77.6674805   3.8585029  22.0248356  76.8470001   4.3154602  22.2098675
  78.2030563   4.5047607  21.5646839  23.9275799  68.3216934  30.1620731
  23.3488464  67.6763077  29.7561474  24.7369518  67.8413849  30.3365746
  20.1356659  46.9567261  66.0194702  20.3849678  46.9599686  65.0953064
  20.1244144  47.8810959  66.2677536  86.2229691  17.7003098  36.3204231
  86.7905960  16.9960213  36.0073586  86.5401764  18.4823055  35.8686600
   1.9449669  67.3411713  85.4160080   1.3690194  67.4095535  84.6545334
   1.3501914  67.3294907  86.1659012  40.3916512  12.1645260  75.7039490
  41.2692604  12.3267832  75.3579636  40.5416908  11.7271709  76.5420609
   0.5087681  61.4572449  14.2061005   1.4052333  61.1227188  14.2320309
   0.6008242  62.3674278  13.9244547  54.9066772  20.6512375  28.8546238
  55.7018967  20.8463745  28.3588676  54.1924324  20.9246006  28.2789822
   2.9476454  45.4995956  86.8686676   3.5050852  46.1583633  87.2828140
   3.5226314  44.7449722  86.7415161  66.5122681  35.3405952  65.8275452
  66.4436264  36.2154808  65.4453201  66.5319290  35.4928703  66.7723541
  86.9281158  29.4888268   8.7302933  86.6155014  30.2472095   9.2236052
  86.7174988  29.6924610   7.8190284  19.8530998  69.4211655   8.8024864
  19.6400566  69.1154251   7.9208002  20.3172913  68.6871109   9.2048893
   3.3070805   0.6468962   7.0104728   4.2010770   0.4291427   7.2742634
   2.9905164  -0.1391590   6.5653477  36.1585388  46.5947227  81.9837265
  36.6899986  46.3465424  82.7401581  35.4362068  47.1016884  82.3544769
  53.7818413  62.3532448  48.2312889  54.1418800  62.9451256  48.8918037
  54.2552223  62.5733032  47.4289703  24.8694859   7.1919742  48.2757645
  25.0024872   7.4277363  49.1938934  25.7322731   7.2957244  47.8744354
  46.5201912  69.0131531  47.7981567  47.4477234  68.8684464  47.9851723
  46.0594635  68.4629364  48.4315758   9.4721956  47.7266960   0.6375505
   9.2692280  47.2622375   1.4495324  10.2125378  48.2901611   0.8625684
   2.5020082   3.3054056  19.7482376   2.3990746   3.0695047  20.6701851
   1.6592249   3.0880537  19.3498592  11.6795321  68.0187836  84.3582993
  12.3251925  67.7326508  83.7121658  11.4825640  67.2310333  84.8651352
  37.3950119  33.3275757  82.7978592  37.9389038  32.9002609  82.1361847
  36.8660126  33.9545479  82.3046112  10.2221031  19.7316341  87.0819092
   9.2926245  19.9601803  87.0736618  10.5579462  20.0643234  86.2495880
  82.7472916  45.5196533  20.1588554  81.8779449  45.4851913  20.5579662
  82.9836655  44.6025314  20.0201206  80.3208847  56.8498421  62.5964775
  80.2536392  57.8038788  62.6354599  79.7966919  56.6037292  61.8343201
  80.3198929  47.4598694  17.9898853  81.1334915  47.4853172  18.4935207
  80.3332443  48.2650375  17.4724293   5.0465212  23.6367989  71.0565109
   5.4338355  22.8332348  70.7093735   4.1055851  23.4617977  71.0721970
  55.4349670  33.0180817  52.8912201  54.9002724  32.4849701  53.4795418
  55.3654747  32.5811195  52.0424156   5.5009923  49.6972809  62.5899506
   5.9511518  50.5292015  62.4433212   4.7449613  49.9260902  63.1305923
  34.0678101  61.7795944   9.0015879  33.9116859  61.8329620   9.9444599
  35.0139389  61.6581879   8.9219732  75.1262207  27.4276943  16.8960552
  75.3291779  27.6841602  15.9964628  74.7573471  28.2169056  17.2926788
  84.5462265   0.4267513  88.4864731  84.1151581   0.4315102  89.3410950
  85.3233795  -0.1174884  88.6132355  62.2596016  27.8428421  77.8884964
  61.7627716  28.3300934  77.2312469  62.4122124  28.4751587  78.5907211
  58.1007423  55.3736572   1.7508262  58.3233414  54.7399673   1.0688282
  58.5351601  55.0422173   2.5367393  25.8424397  31.5613232  21.9449635
  26.3535500  31.7068386  21.1488342  26.4950256  31.5172729  22.6438370
  71.0333176  55.9288864  85.6401443  71.1092682  55.3713951  86.4145279
  70.5867157  55.3817902  84.9940262  82.9329071  52.7493553  23.6453133
  83.5446777  53.4731369  23.5107212  83.3214569  52.0156136  23.1689873
  48.7675896  42.7121658  62.6966095  47.9416733  42.2757759  62.9055634
  48.8846931  42.5663910  61.7578506  53.1682205  29.1884995   4.9288840
  53.8349571  28.5361366   4.7141294  52.5306206  29.1222935   4.2180290
  16.3425293  67.1151733  25.1776009  16.5449829  66.3036575  24.7121048
  17.1819801  67.3998947  25.5388279  22.7552853  70.1354828  53.2851715
  21.8634491  70.1514969  53.6324539  22.6423492  70.0414200  52.3393250
  74.2244186   8.2473783  10.9354591  74.2515640   7.9941263  11.8581505
  74.6912231   7.5462222  10.4808102  35.6585999   9.9102840  82.6121216
  36.3821945   9.9233522  83.2385941  35.9970360  10.3730421  81.8456039
  63.7275352  22.0676804  14.6571922  63.4873238  22.9811707  14.5020590
  63.1040840  21.5639114  14.1339731  81.2824249  17.6621780  49.2904396
  80.4891739  17.9677048  49.7304916  81.6704712  17.0372086  49.9028664
  86.6962662   3.2744956  19.0305710  86.5266418   2.4203644  19.4279633
  86.2512207   3.2373891  18.1839390  13.5414486   3.5093126  70.7784424
  13.0866308   3.7788589  71.5763931  13.6863928   2.5698795  70.8910904
  36.4948235  52.3070793  29.1052876  36.3409424  52.5191612  28.1846504
  36.3352127  51.3651085  29.1639957  35.4036903   6.7752509  82.3084869
  35.7326698   7.0862799  81.4651260  36.0911331   7.0056353  82.9334488
  15.1734619  24.6483097  25.4168758  15.6742840  25.2132244  24.8284206
  15.1468334  23.8016872  24.9710579  26.6672554  68.6371918  70.6411514
  26.7203693  69.5111847  71.0278549  25.8950214  68.6715851  70.0766144
  42.0258980   6.5213904  12.4190950  42.2976112   7.3594074  12.0447559
  42.6897964   5.8995013  12.1212330  19.7618332  31.0946693  79.3840637
  20.4058781  31.2235661  78.6877747  20.2861652  30.9324760  80.1682816
  41.2553902   5.9611721   0.9094943  41.5907288   5.5409789   1.7014656
  40.3791885   5.5930057   0.7956797  75.4537659   4.6056480  28.7957935
  74.6972198   4.1100960  29.1093178  75.5865402   4.2982497  27.8990726
  56.8816528  53.3135986  81.2816696  56.8700294  52.4069405  80.9749680
  57.0161362  53.2449989  82.2268829  18.5299244  65.8404083   9.4234610
  18.2349682  65.7908325   8.5141897  18.2584629  66.7103653   9.7162294
  72.7651443  40.0277786  25.2950115  73.0311050  40.8860321  24.9650154
  72.0531540  39.7582054  24.7148113  54.4776955  21.1725559  87.6669388
  54.7228470  21.3519115  86.7592163  53.6444321  21.6286926  87.7845917
  28.7893639  70.3707962  50.8565178  29.6156483  70.7511368  51.1545563
  28.9797916  70.0430756  49.9775581  84.5106888  46.3118896  10.1008120
  84.8509674  45.6725044   9.4750099  83.6263351  46.5046425   9.7893572
  79.0151672   8.7764683  69.5220566  78.3275986   8.1920567  69.8413467
  79.5985260   8.8922062  70.2720795  35.4882965  22.4300461  88.9268188
  35.0806084  23.2574272  89.1826782  36.3108139  22.6870995  88.5101395
  78.0388336  42.0218697  35.5805817  78.4399338  42.2226944  34.7349930
  78.6471939  42.3821182  36.2258377  39.7839584  51.0806999  68.8871689
  40.2824974  50.5604019  69.5172272  40.2149353  50.9181786  68.0480728
  38.2525787  18.0760670  15.0714273  37.9696312  18.9778214  14.9197302
  38.9340286  17.9254475  14.4163160   0.2604135  41.8763390  23.1187344
   0.4085396  41.7065125  24.0490284  -0.0001729  41.0284500  22.7590027
  70.1251068  48.9937897   8.6554327  70.7365570  49.5864792   8.2183084
  69.7661667  49.5097275   9.3773718   6.2708964   6.4486723  43.0505524
   6.6342745   7.2444577  43.4390297   5.7726579   6.0420032  43.7595024
  49.1442451  51.9003868  68.7081299  48.2714195  51.6675377  68.3916016
  49.5859680  51.0603371  68.8323364  15.0683422  16.2026596   9.8289824
  15.6241436  16.9000759   9.4812365  14.2190571  16.6210690   9.9699821
  64.8781738   5.4890709  29.6989365  65.5400238   5.7336397  29.0521183
  64.4849701   6.3201451  29.9652729  55.1783295  30.1808548  31.6119404
  54.3713570  29.7821808  31.9376507  55.5966721  29.4897156  31.0985737
  54.3222847  45.5575027  46.0403175  54.2738686  46.5055580  45.9175224
  54.1966095  45.4310722  46.9807701  80.6005859  25.0464172  81.3980484
  80.5380554  25.8270969  81.9483795  80.5315704  25.3782673  80.5028687
  62.3284836  34.7152328  58.9558868  62.6506805  34.3896561  58.1153984
  62.7197990  35.5845451  59.0419235  26.1740818  69.1064606   3.4707172
  27.0280685  68.7628937   3.2082303  26.2932911  69.3737946   4.3820639
   8.1633301  42.4020996  34.3445244   8.8701935  41.9879570  34.8395615
   7.8017793  43.0550041  34.9438820   6.7609572  35.4499474  18.6436863
   7.5337892  35.9047394  18.3088341   6.7466521  35.6579933  19.5778942
  74.9012070  26.0252914  87.6172180  74.8832092  25.7065086  86.7148438
  75.8102112  26.2890434  87.7599716  77.5664825  43.5908546  73.7369843
  76.8079605  43.7508125  73.1754837  77.5379791  42.6509819  73.9160385
  11.7464237  60.2839127  56.1881104  12.6144981  60.2003021  56.5826836
  11.4073315  59.3891296  56.1634827  25.4351311  65.6166916  87.4966202
  24.7836151  65.8052826  88.1720428  26.2602596  65.5373459  87.9752655
  19.7549210  58.2892570  52.6363449  20.4049740  58.9469795  52.3892365
  20.1567364  57.4538994  52.3977013  82.5019226  52.6092796  28.4918633
  82.8287735  53.1881905  29.1805286  82.0109940  51.9337997  28.9597855
  76.3189468  49.9524345  12.9898443  76.8326416  50.7358551  13.1863070
  75.6787262  50.2425346  12.3400812  53.2951431  63.6773071  63.7785149
  54.2335167  63.7788849  63.9378014  53.2282524  63.5133324  62.8378410
  71.1126251  32.9064217  53.6267700  70.4942780  33.0609322  52.9126282
  71.1542969  31.9533768  53.7055244  37.6621780  65.2540588  45.8083115
  38.3673172  64.8657990  45.2903671  37.9998817  66.1111755  46.0681915
  59.5948067  70.7674484  26.2056217  59.0747261  71.5236282  25.9337044
  59.7834091  70.3011398  25.3912430   2.8856544   9.7361526  39.2274246
   3.4252093   9.7245111  40.0179787   3.4931138   9.9720745  38.5263062
  75.2661591  59.1354179  40.7012596  76.1904373  59.2931061  40.5087051
  75.2705536  58.3918648  41.3040390  81.1625519  48.2664452  57.6045532
  81.7345734  47.7933235  58.2088547  80.6082230  47.5881004  57.2187996
  10.6527033  48.3904762  56.1284790  11.1038971  49.1999550  56.3680687
   9.7271671  48.6325569  56.0966644  28.0210686  13.6994076  82.5052109
  27.4459438  13.1099854  82.0173187  28.7522583  13.1466455  82.7809830
  24.7857647  50.4518661  75.2664948  23.8560181  50.6706352  75.2036972
  24.9176121  50.2287483  76.1879425  60.9756737  23.2420883   2.3693225
  60.3478203  23.7369137   2.8958018  61.5649452  22.8444557   3.0103221
   2.7282026  60.7050705   1.6927857   2.6584635  61.6079597   1.3826921
   2.4921091  60.7511101   2.6192694   7.3879013   8.5344143  78.6707687
   7.2963524   7.9695387  77.9034576   8.2828836   8.8694553  78.6161270
  39.5132446  66.2009125  60.6488113  39.6998444  65.2625275  60.6197777
  39.4416046  66.4021149  61.5818787  14.4700756  22.7858086  81.3532562
  13.5137234  22.7878761  81.3934784  14.7339716  22.0971107  81.9634094
  24.6872520  53.4521446  11.7871590  24.2204380  53.1144295  12.5515318
  24.0756264  53.3321724  11.0606918  57.6931152  15.8512268  50.9447861
  56.8168602  15.9125881  50.5644684  58.2748375  15.7514524  50.1912117
  25.2769146  56.0773163  45.0289001  24.3468075  55.9922256  44.8194046
  25.7285480  55.7465515  44.2524643  40.2344131  70.8527145  52.4425468
  39.3337479  70.5728455  52.6059799  40.2538223  71.0644150  51.5092545
  71.0203857  16.1724300  61.4018745  71.4808044  15.3437128  61.5340652
  70.0930405  15.9441185  61.4661713  86.9459534  27.0961208  43.1257629
  87.0482712  27.1191578  42.1743240  86.4631271  26.2871723  43.2952156
  14.3014479   3.3724992  55.9936981  14.7690420   3.6316912  55.1997185
  14.7350216   3.8572419  56.6960297  73.7932510  42.8286705  45.3991356
  73.5581970  43.6159172  45.8902779  74.6928482  42.6395798  45.6659813
  76.5031052  56.2693367  38.6186447  77.2352753  56.7706795  38.9775543
  76.7592392  55.3544540  38.7353210  53.8844986  35.2748909   8.4311399
  52.9543800  35.4900055   8.5007181  53.9712563  34.4371452   8.8859863
   3.2442350   4.6962419  67.2146606   2.6306775   4.7410603  67.9479828
   3.9250462   5.3327694  67.4327393  25.0257435  19.7924862  82.9221802
  24.9552650  20.0459824  82.0018539  24.1192303  19.7232342  83.2216339
  15.6417236  58.4193420  29.8410072  15.5232515  57.4700699  29.8081093
  16.5532207  58.5378380  30.1081486  34.6617279  49.3713837  73.6379242
  34.6014900  49.8286972  72.7991943  35.2941017  49.8815117  74.1439896
  72.9419479  15.1960974  35.2705002  72.6844101  16.0869732  35.5076714
  73.1874466  14.7885990  36.1011086  64.5743484  23.9410019  56.6405945
  64.9358139  24.6091671  56.0582466  64.5499802  24.3605995  57.5005798
   1.0095811  14.9234743  62.2617378   1.6692033  15.0495567  61.5796585
   0.8474849  13.9801121  62.2667198  80.3624802  34.2950783  74.3084259
  81.1566696  33.8403549  74.5890198  79.9537048  33.6984215  73.6814270
   7.1130900  45.6335144  74.0169601   6.8506217  46.5116768  74.2929535
   6.2912970  45.1468735  73.9531708  80.1739883  26.2145748  62.7904968
  79.5615311  25.4789619  62.7924347  79.6322861  26.9767017  62.5856705
  43.8338623  55.9862404  46.9705162  43.8010979  55.0310783  47.0236588
  43.5896950  56.1843376  46.0664291  80.0573273  33.7417450   4.9355550
  79.5795593  34.4581566   4.5175543  79.4083862  33.0446014   5.0309172
  15.6826830  43.4543571  62.5574837  15.2621746  44.0822792  63.1449547
  16.1536503  42.8590698  63.1406288  63.7118759   7.4876285  50.0669250
  63.5661049   8.1847467  49.4273872  63.4821129   6.6835146  49.6012611
  54.3911057  64.6782227  56.5903053  55.0895309  65.3046494  56.7801018
  54.6213760  64.3145447  55.7353477  40.8173828   5.0759568  65.2601318
  40.1119499   4.7591090  65.8242264  41.5139809   4.4271679  65.3604202
  59.2220612  33.9331245  26.6806698  58.7506599  33.7011528  25.8805447
  59.4073830  33.0935669  27.1014214  71.5881729  53.7675476  30.0090408
  71.0613556  53.2054710  29.4409142  72.3647461  53.9735031  29.4887066
  54.7795715  57.4684219  51.5365334  55.6400948  57.2820930  51.9120522
  54.6676216  58.4121590  51.6508331  55.5177727  65.0549164  74.3729706
  56.0366936  65.5520477  73.7406693  55.2221756  64.2847672  73.8874512
   2.3782349   2.7936459   8.9672232   3.1028087   3.4139843   8.8871927
   2.6070077   2.0800300   8.3717012   8.2129812  58.2357330  45.5767288
   7.7257128  57.8416901  46.3002815   9.1301098  58.0452538  45.7737694
  64.0009384  63.7897873   9.6166258  63.2006760  63.4792976   9.1930656
  64.7082825  63.4654961   9.0591860   8.8740911  49.3946762  26.9369926
   8.1949568  48.9819641  27.4705448   9.6902304  49.2060051  27.4001884
  42.8674736  22.4977760  20.4669132  42.9879036  22.6412983  21.4055996
  42.9768219  21.5536919  20.3529968  75.7843170  11.0996122  71.6821671
  75.5236893  11.9537239  72.0268402  76.4243088  11.3018799  70.9997177
  56.3891945  39.9707336  59.0402565  56.8232994  40.6477203  58.5211449
  56.8257256  40.0048523  59.8914337  80.9810333  32.7716179  87.0772476
  80.2207642  32.9346657  87.6354980  81.4675293  32.0829124  87.5302811
  66.4871216  40.2791061  30.8646641  65.9011230  41.0296059  30.7667007
  66.0635605  39.7289162  31.5235405  40.2567444  36.9528122   5.9013958
  39.6313629  37.4177780   5.3455725  40.6694908  37.6400833   6.4243946
  80.5924225  41.0997734  67.7480240  80.5740967  40.2099037  67.3958511
  80.5022583  40.9848824  68.6940155  10.5220060  59.7025375  29.1499786
  10.5908337  59.9966049  28.2416725  11.4177437  59.4706841  29.3951950
  58.1000671  43.8226662  32.5534744  57.2995110  43.4897881  32.9591064
  58.5285187  43.0450516  32.1957359  86.7742615   4.9832649  59.3679199
  86.1651611   4.9863529  58.6295357  86.3242722   5.4794493  60.0516891
  47.4323196  64.4733353  72.5725632  48.1228333  64.6260300  73.2176285
  47.6294632  63.6094170  72.2106094   7.5657759  30.9941540  80.0901337
   6.9925451  31.3851700  80.7494812   8.3964205  31.4595203  80.1885986
   0.6660079  25.4851570  69.9698257   0.9797532  25.7189522  70.8434067
   0.4864955  26.3249817  69.5470963  71.9704056  55.4045982  32.7640343
  71.7946014  55.2581139  31.8345909  71.5866470  54.6454391  33.2029343
  34.2891312   0.9848279  63.8088341  34.4974327   0.0749730  64.0209808
  34.7431374   1.4968055  64.4781494  41.2712593  21.7340031  82.9557343
  40.9282722  21.0292301  82.4062958  40.5883217  22.4044952  82.9392700
  22.5935574  23.9424438  73.7578583  23.3129082  23.6769180  74.3308029
  22.6166973  23.3131123  73.0370026  30.1722469  65.3576202  27.5719547
  29.9400597  65.6320190  28.4591007  29.8203239  64.4707336  27.4957428
  58.7926521  66.9575958  84.3246841  58.3595772  66.3469620  84.9211807
  58.2308006  66.9746933  83.5499115  19.8425636  36.9509239  22.3847313
  20.3025494  37.0712280  21.5539646  20.5100746  36.6119804  22.9812050
  36.8584557   8.1568718  66.9342499  36.6060867   9.0522346  67.1597824
  36.8547974   8.1408634  65.9771881   0.0039624  37.5826569   7.9188585
  -0.1637065  38.5192795   7.8146467   0.9519460  37.4963951   7.8182716
   9.1742277  69.6107254  15.7688875   9.5442457  70.3571396  15.2975292
   8.3197260  69.4697418  15.3612318  53.9700775  36.2796516  16.1486855
  53.1231766  35.9289284  15.8730335  54.3900871  36.5586052  15.3350477
  58.0387383  24.4247990   1.2565740  58.4586220  23.9601040   0.5327052
  58.4662285  24.0819187   2.0413761  67.6929626  45.8281288  12.0708570
  67.7508850  46.2939148  11.2366400  66.7630234  45.6223221  12.1661987
  38.1595345   7.0519061  58.2791634  38.9443398   6.7199259  58.7151718
  37.4494934   6.8740139  58.8959503  33.9870377  57.8236046  82.5983047
  33.1959419  57.9411736  82.0724030  34.4939919  57.1644096  82.1242905
  57.2828445  59.5337219  57.4296112  56.3524551  59.4301071  57.6292915
  57.7334480  59.1419678  58.1777534  67.7381287  37.9683952  50.2714272
  66.7835846  38.0361290  50.2493820  67.9140015  37.0320625  50.1787987
  34.7381248  41.7238960  24.1043854  34.9475861  42.3991318  23.4590836
  35.5899925  41.4052238  24.4027214  65.3066101  39.0456123  33.2560501
  64.4651794  38.9176216  32.8180428  65.1552505  38.7545853  34.1552849
  14.4336061  62.4426575  69.8579102  15.2618656  62.6280899  69.4153748
  13.9207067  61.9564972  69.2122955  57.2738991  24.2604275  32.8852615
  57.7896461  23.4748650  32.7032547  57.7757683  24.9733181  32.4901123
  11.4588795  49.2006493   1.5568845  12.2861538  49.6107979   1.3046408
  11.0124407  49.8649979   2.0818281  74.6294632   8.5716410   1.9361298
  74.6674652   8.7293320   0.9927734  75.5431442   8.4547100   2.1964173
  56.0074158  48.3410645  35.8730659  56.5051003  48.0110893  36.6211700
  56.1364212  49.2891769  35.8989868  84.0632248  23.9273567  34.1583900
  84.0604095  23.8734512  33.2027130  84.9886551  24.0017490  34.3913651
  60.2481270  47.1516647  64.9573898  61.1633072  46.9709167  64.7429047
  59.8568115  47.4237671  64.1272964  28.4918919   6.5977545  28.0091572
  28.1171932   6.3376274  27.1676311  27.8254738   6.3570471  28.6527271
  67.7849121  61.1426125  59.6700630  67.3751068  61.5352783  58.8992805
  68.6260452  60.8138542  59.3528137  30.2901497  46.9093208  31.9025269
  29.5443382  46.3690720  31.6415176  30.3756351  46.7607040  32.8442459
  33.8518143  27.3018093  16.7791519  34.5792580  27.5539703  17.3478985
  34.2567902  27.1505623  15.9251328  71.2460022  29.8940086  39.8840256
  71.8840714  30.4399395  40.3434334  71.3988876  30.0756893  38.9567451
   2.2595346  13.2066202  24.2281895   2.5405850  13.4882650  23.3576050
   2.3528976  12.2540970  24.2135181  74.0568161  57.9927673  12.4373484
  73.6284561  57.5835838  13.1892157  73.3354340  58.3112030  11.8947287
  40.3470497  37.4878159  22.1502876  40.4036026  37.8365402  21.2606697
  39.5505638  36.9569283  22.1492538  16.7767010  16.5272179  33.7064590
  17.4177055  16.7272911  34.3885994  16.7609138  15.5710192  33.6656570
  70.8448944  31.6127014  56.7994041  70.0699615  31.1040764  57.0381889
  71.3523865  31.0266552  56.2379532  13.7963963  36.7504692  13.8425188
  14.4479389  37.1971130  14.3831034  12.9545679  37.0541306  14.1821470
   7.1547275   6.2624640   7.1871171   7.0643969   5.3113303   7.1286640
   6.2608390   6.5937095   7.1006780  34.5509720   4.1487908  37.3386574
  35.2095184   4.1929598  38.0319099  34.4168663   5.0598016  37.0773048
   2.6171260   3.9010751  55.7771072   3.4722984   3.4711101  55.7835999
   2.3102093   3.8375041  56.6815376   0.2645706  19.4976082  74.5766983
   0.3945867  18.7459717  73.9984512  -0.6091581  19.3677998  74.9454498
  65.3761826  14.4928532  16.2780457  65.5118484  13.6124325  15.9277802
  64.5454330  14.7769337  15.8967476  44.1128426  32.1965485  24.5338173
  44.0806427  31.5079403  23.8697281  44.7652779  32.8153648  24.2057476
  32.4024734  54.1812630  19.8672981  32.0625992  54.9767380  20.2770996
  32.4982758  54.4102402  18.9428387  63.7513580   5.6118884  84.7961044
  64.3412628   4.8741841  84.6410522  62.8757820   5.2253432  84.7826462
  32.0779343   8.9828939  65.0953140  31.3712807   9.6283865  65.1098175
  32.3665123   8.9231768  66.0060196  70.0214691  10.5641594  32.6662674
  69.1660767  10.1348753  32.6819305  69.9753342  11.1629610  31.9209232
  71.7394485  63.9873009  17.5149250  72.5579758  64.3486252  17.8550568
  71.8540192  63.9878426  16.5646057  83.8527298  22.1222420  64.5434952
  83.5999680  22.6459980  63.7832184  83.6040421  21.2275372  64.3113632
   4.6135097  12.7735052  28.0916348   3.9273400  13.3093710  27.6938286
   4.5376763  12.9453440  29.0302258  53.3642998   5.3519731  17.5793800
  53.4551430   5.4487491  18.5273323  53.1197968   4.4349813  17.4545784
  50.9797668  20.7266941  28.6152000  51.1916084  21.6505642  28.4817142
  51.0709267  20.5939713  29.5587616  42.3402100  59.9946098  16.6994953
  42.6692963  60.7152519  16.1622696  42.6763992  59.2058029  16.2740650
  36.1112785  35.3900414   0.4448243  35.2110939  35.2023468   0.7106611
  36.2276497  34.9002838  -0.3693194  73.5877838  47.5401001  81.6004944
  74.0900116  46.7969208  81.2663116  73.6445770  47.4588585  82.5525513
  29.9693565  27.4896488   5.1150036  29.0718250  27.6432629   5.4100814
  30.4804344  28.1837502   5.5312438   4.3327475  54.9682693  41.1738739
   3.7540264  55.0015106  41.9355888   4.4021649  55.8784828  40.8859138
  53.8597946  51.7922287  67.8964920  54.5038795  51.2782249  68.3835068
  53.2761688  52.1439018  68.5687561  60.0449486  40.0522499  13.3918037
  59.2096634  39.6628113  13.6503916  59.9055252  40.3411522  12.4899559
  29.6516457  54.4188843  80.4612656  30.1877937  54.0984879  81.1866074
  30.0916309  54.0931168  79.6760788   6.7341976  12.9621878  42.5316238
   6.6356521  12.0455027  42.7889328   7.0990286  13.3904428  43.3060417
   9.8023043  64.2630386  87.9332428   9.6568718  63.6001549  88.6082687
   9.3678846  65.0468216  88.2696991  39.8947906  55.7935524  41.0548515
  40.6335487  56.2711525  41.4321671  40.1620865  55.6118774  40.1538620
   2.2582998  67.1219864  33.4544945   1.4563202  67.6411209  33.3948326
   2.9643550  67.7577286  33.3381081  80.7452621  58.4393463  75.8882294
  80.3070221  58.7008781  75.0784302  80.1784515  58.7702980  76.5849609
  80.9388809  25.7989655  75.6623611  81.5642014  26.2868214  76.1982803
  80.7955475  24.9840641  76.1436386   3.7709424  46.7834625  32.5925636
   4.2780828  46.5626183  33.3737602   3.9859169  46.0937996  31.9645634
  65.7027130  60.2860794  75.1813202  65.4620132  60.4978142  74.2793961
  65.1650848  59.5250168  75.4003296  70.3214188  25.8005829   6.3004427
  69.6622238  26.4569378   6.5260410  71.1360092  26.2968540   6.2205839
  59.9376297  62.1732101  14.7432508  60.3943291  61.6314011  15.3867598
  59.0175896  62.1303596  15.0038576   4.1290026   8.2767029  87.1777191
   4.0544367   9.1103382  87.6421814   3.3765283   8.2639303  86.5862350
  80.0819855  28.0442848  31.0251293  80.7496643  27.7956848  31.6643715
  79.3760147  28.4210453  31.5503826  50.4247017  67.9262924  77.2070541
  49.8670197  68.6976242  77.1057205  49.8323593  67.2416229  77.5178452
  21.7299595  56.3809166  10.7192011  21.9097652  57.2940254  10.9431086
  22.4995403  56.0996361  10.2243710   1.6592897  55.5401840  32.2729416
   2.0322940  55.6993217  33.1399918   1.4021497  56.4074516  31.9599667
  29.9233189  11.5350828  82.5797577  29.6816921  11.5716400  81.6542816
  29.2061996  11.0566750  82.9958115  36.7954597  45.8971024   2.3506405
  37.2237663  46.4563980   2.9986951  36.6112213  45.0837936   2.8205552
  14.4947786  66.9123993  63.7928848  14.2200632  66.4676666  64.5947418
  14.0912027  67.7785416  63.8491020   7.4759645   6.0485053  88.0299301
   7.2690535   6.4020886  87.1648331   7.7540784   6.8095798  88.5394897
  79.4319382  50.9652443  66.8719788  78.6748734  51.4655037  67.1766434
  79.0661163  50.1291008  66.5833969   3.7940378  36.5877953  40.5673714
   4.6224742  36.6086655  40.0883217   3.8403106  35.7879333  41.0911217
   1.7513169   2.7121987  63.9636230   1.1650978   2.0063863  64.2363968
   1.9993279   2.4847150  63.0675354  34.4099045  62.4155388  35.5067139
  33.7570724  62.5833397  36.1863365  35.1919212  62.8792877  35.8060684
  83.7961121   5.1782146  28.4382172  84.3923874   5.1945701  27.6896038
  84.1377411   4.4837070  29.0014019  27.2033558  57.7732697   8.6945276
  27.3842106  57.6259537   9.6228714  26.6229420  58.5343056   8.6814127
  73.5875320   0.3608046  48.6287575  74.4531021   0.0180335  48.8513031
  72.9781494  -0.3119859  48.9324646   4.5786295  48.0651665  77.2363358
   3.9267011  47.8642235  76.5648880   4.8169208  48.9777794  77.0732956
  63.4499664  63.2307739  74.4892349  62.5445480  62.9205437  74.5035019
  63.8601685  62.7398300  73.7772369  55.7868919  52.6588402  63.2479591
  55.1192322  52.8160591  62.5803146  55.4634743  53.1182213  64.0229416
  53.7308540  58.9719505  19.5587788  53.6621552  59.9264450  19.5374699
  53.2328568  58.7132301  20.3342094  26.6795425  12.7020416  26.8076591
  26.8520641  12.7751598  27.7463398  26.9983730  11.8306208  26.5727024
  36.2342453  19.2678909  36.8237877  36.6236916  20.1211090  37.0150414
  35.3091087  19.3715363  37.0465279  19.9162903  66.2318573  87.0890350
  19.8863506  65.9155121  87.9919510  20.8115921  66.0523300  86.8019180
  60.7353745  11.0397921  34.7414932  61.5650635  11.3494368  34.3782196
  60.0676422  11.5470610  34.2799263  58.0877457  48.2491226  43.4282722
  59.0274696  48.2382622  43.6100235  57.6819649  48.4314766  44.2758102
  30.9896584   8.7123728  44.0294533  31.6932602   8.2710085  44.5052414
  30.1852665   8.3587265  44.4090843  25.8470573   1.6024135  82.1971588
  26.3901672   2.3855901  82.2860260  25.3834190   1.7251940  81.3687897
  73.6628113  18.5401554  70.0458832  73.1325378  18.6851006  69.2622833
  74.2209549  19.3155956  70.1041870  28.9760742   0.7815718  36.3053246
  28.4076157   0.2344675  35.7633209  29.1868782   0.2330453  37.0609093
  33.9163857  67.0849686  30.0584488  34.3152161  66.3153839  30.4645386
  33.5189095  66.7522583  29.2537441  12.3396626   3.2591782  83.0346222
  12.8510866   3.0541384  82.2519073  11.5459394   2.7313638  82.9471741
  77.9912186  54.0420647  43.1455460  78.0421066  54.9420013  42.8234367
  78.2028732  54.1086197  44.0766754  10.9331427  10.4766369  17.3694172
  10.0346355  10.7081709  17.1342354  11.3205624  10.1607447  16.5531139
  26.5069790  14.5335894  48.7665443  27.0493793  14.1324873  49.4456253
  26.5999985  15.4752665  48.9108467  84.0648193  58.7837906  64.9880371
  84.4074402  59.4781685  64.4252853  83.1171417  58.8150787  64.8570557
  63.2584572  53.6653595  72.2802963  62.6421547  54.1126862  71.7003784
  63.3347397  52.7840157  71.9147263  61.2769890  46.4224052  11.1073790
  61.8901062  47.1298027  11.3071461  61.6409607  45.6571503  11.5525141
   5.2722626  41.4425964  23.4499912   5.3878613  40.5098915  23.6314583
   4.4893870  41.4845238  22.9008274  53.8589630  53.7268295  29.5215397
  53.0158234  53.5733452  29.9479065  53.8958588  54.6753387  29.3982430
  16.8623829  50.3973122  63.5582542  16.6595020  51.0152473  62.8559532
  17.4821587  49.7829018  63.1650505  61.6812210   0.6310857  46.4901962
  61.3298187   1.0374031  47.2824402  62.4482460   1.1596633  46.2699394
  52.1370659   6.9613576  15.6615992  52.2548065   6.5505805  16.5181217
  51.2912331   6.6355505  15.3539515  22.7790527  64.4305191  32.0272026
  23.3254776  64.9906693  31.4759483  23.1671238  64.5009842  32.8993645
  47.2450562  38.0058441   5.9802766  47.7866516  38.6272812   6.4668169
  47.5274010  37.1462479   6.2927017  19.3958359  31.7710247   4.9680433
  19.2901154  32.7018738   5.1644487  19.1759052  31.6956711   4.0395045
  72.5362549  10.0074587  56.9915009  73.2363586   9.6384487  56.4530602
  72.6698380   9.6199980  57.8565216  35.2508850  40.4195099   4.8204684
  35.5550537  39.6170692   5.2444959  34.8299637  40.9163818   5.5220242
  52.6808357  52.2789650  76.6544266  52.4191284  51.3864288  76.8805161
  52.5291939  52.3414116  75.7113800  18.5969639  50.3106232  22.3685265
  18.2401562  49.6157379  21.8153076  19.0389538  49.8472099  23.0799522
  22.8928108  59.6328621  86.3515091  23.5559616  58.9460335  86.4202728
  22.0686665  59.1915016  86.5569763  31.5725651  34.5766869  32.2852898
  31.3838997  35.1909790  32.9947166  31.3302689  35.0489616  31.4887466
  10.6606646  20.7632561   4.3098893  10.7823544  21.2993603   3.5262983
  11.5299664  20.7206192   4.7082958  80.8968506  34.0692596  47.0150909
  81.1948242  33.4407349  47.6726608  80.9664612  34.9200668  47.4481239
  78.2715225  11.0062437  85.3060837  77.4639664  11.1263437  85.8057404
  78.8670959  11.6721268  85.6497650  25.9348640  39.2617912  12.9261341
  26.3737392  38.9855156  13.7306786  26.5516281  39.0399437  12.2285538
  55.1910400  26.9122524   5.5689740  55.8248672  27.3544636   5.0042257
  55.1800652  26.0081825   5.2547002  16.7515144  55.7856216  55.1888809
  17.6490459  56.1071777  55.2741547  16.6564426  55.5849304  54.2577972
  81.4044724   3.5244570  74.7560425  80.9851074   2.7261703  74.4349365
  81.0928726   4.2120595  74.1675339  50.9471130  58.8109779  34.0869408
  50.7814789  59.0977440  33.1888542  50.0762253  58.6630859  34.4556084
  47.1838303  11.3259087  53.1331177  46.5855522  10.7682905  52.6357689
  47.2357025  10.9126940  53.9949760  65.2200623   1.1200938  83.1480331
  64.7228622   0.9941463  82.3398514  65.0412674   0.3340698  83.6642075
  77.7975388  58.7686806  64.1513443  77.4930954  58.2401657  64.8890533
  78.1624527  59.5560341  64.5552444  67.3239059  28.0958118  44.3674088
  67.8648071  28.0514259  43.5789413  67.7226791  27.4653988  44.9672356
  12.8345795  35.9818916  84.2281189  13.1404810  36.8744850  84.0670929
  13.1278906  35.7850151  85.1177521  58.6990814  48.6357193  26.2080669
  58.2732277  47.8858643  26.6235180  59.2532654  49.0070572  26.8945236
  83.3017731  13.1507635   4.0935354  82.6865997  12.4573584   3.8548241
  83.9144974  13.1905918   3.3592238  51.5787125  30.1603584   2.6032815
  52.3049507  30.7838306   2.5938654  50.9803658  30.4996681   3.2689266
  49.4289398  66.3950729  49.1418266  49.4220657  67.3308029  48.9403458
  48.8973618  66.3167343  49.9339867  41.0266724  70.5792313  85.2601547
  41.3120995  69.9402771  84.6070938  40.8232422  70.0552673  86.0349503
  62.1132584  39.5237198  77.1633987  62.5905952  39.3097916  77.9650345
  62.7057610  40.0975723  76.6777420  86.7303162  66.7350006  46.8337326
  86.4178848  65.8462524  46.6642075  86.9588547  66.7353134  47.7632484
   0.7001747  64.8392563  18.0849857   0.9492392  65.5653610  17.5131760
   1.5142062  64.5879440  18.5213623  21.3701057   9.5930519  74.6197586
  21.9495754   8.8507366  74.4482574  21.7181282  10.2993317  74.0754395
   6.6257925   8.1363306  37.5453529   6.7382588   7.9968233  38.4856300
   6.5162892   9.0829515  37.4550781  77.9523239  31.5347042  15.0019712
  78.7853928  31.9985542  15.0860777  77.3572693  32.0029907  15.5875044
  17.2178459  39.7101593  26.6644287  16.7772274  39.0679398  26.1079769
  18.1045208  39.7673073  26.3083763  84.6145859  34.8913116  39.9152985
  84.4519043  34.0206299  40.2781677  83.8302155  35.3933716  40.1365013
  41.6958580  33.7921219  29.0353642  42.4538879  33.2127571  28.9581432
  41.9877701  34.4918861  29.6196136   2.7672873  34.8428497  49.5980797
   2.3410828  34.2333755  50.2006760   3.6944652  34.6080246  49.6358948
  35.7090149  57.5667763  39.8938560  35.7802429  58.0546112  39.0733833
  35.3984413  56.7003136  39.6311340  30.2966900  11.7662611  79.6037903
  31.1449814  11.9299974  79.1916962  29.8222923  12.5925369  79.5118866
  13.0720530  27.4649277   2.1533051  13.1565990  28.3620358   1.8303810
  12.1986322  27.1909561   1.8734684  59.3848953   3.1928730  23.2122688
  60.1318970   2.8492444  22.7222309  59.7607880   3.8628085  23.7833385
  58.0800476  65.8200989  15.6415043  58.3730621  65.9879761  16.5371552
  57.2826500  66.3414154  15.5486870  26.9200191  56.1786385   5.8186336
  26.5785637  56.4166451   6.6806040  27.6158772  56.8146248   5.6527033
  24.9101601  49.1014633   5.2005448  25.6446381  48.4879875   5.2210441
  24.6972752  49.1892509   4.2714567  57.5431099  62.2567825  40.5928116
  57.0287933  61.7510757  39.9635506  57.7477417  63.0719795  40.1347580
   3.5161142  66.4201660  47.2132072   4.1683927  65.8823929  47.6621628
   3.2907865  65.9189072  46.4295006  70.7938538  53.3705559  34.0373688
  70.2675018  52.5893745  33.8672485  70.5522308  53.6334343  34.9254837
  49.5509377  27.1852894  85.3560715  49.5000114  28.0426922  84.9335785
  49.3602180  27.3606319  86.2775421  69.4726334  16.5171604  81.2618027
  68.7410965  16.0212231  80.8942032  70.2049942  16.3357830  80.6727448
  81.6129074  67.3195114  83.6698303  82.0068512  66.5897064  83.1919022
  81.0174179  66.9038467  84.2934113  52.2844276  28.6394825  81.0123367
  51.4001389  28.5004711  80.6733017  52.2142181  29.4299469  81.5475616
  37.7993050   6.3570442   6.5187106  38.7402496   6.1815038   6.5120292
  37.6954727   7.0830851   7.1337838   3.2068706  43.9105835  52.8310547
   4.0116386  44.3847923  53.0401154   2.9497738  44.2426453  51.9708977
  79.7391663  51.9260483  17.8877220  78.8752060  51.5873451  18.1224155
  79.7087631  52.8506889  18.1333733  48.3188019  53.1682243  75.5521088
  48.1742744  52.6600609  74.7539139  47.4659805  53.1794167  75.9866257
  62.0729599  60.8610268  80.3384018  62.9205551  61.1991920  80.6272964
  61.6191864  61.6248131  79.9821091  72.3804550  53.4075890  73.0006409
  71.4561920  53.2627373  73.2031097  72.3815536  54.1647453  72.4150238
   9.7945919   3.1030734  12.9391775  10.1585331   3.1482801  12.0550203
  10.4559784   3.5192342  13.4919977  62.9477348  42.2937775   3.7136312
  63.3467560  41.4237900   3.7017388  62.1524010  42.1853867   4.2350988
  32.6780739  18.8116112   2.4010396  33.2110863  18.0569019   2.1509535
  32.3334770  19.1463566   1.5731318  69.1524048  11.6783419  17.4255619
  69.2067032  10.7995586  17.0500336  70.0589600  11.9845514  17.4505882
  61.4432564  38.7440796   4.9874716  60.4976349  38.6242523   5.0750365
  61.6460533  38.4166069   4.1111903  16.1852131  35.2969170  77.1590347
  15.5667686  35.5308113  77.8511734  15.7226954  35.4998703  76.3459473
   5.7085533  14.2555943   1.3923184   5.0305414  14.9259005   1.3073478
   6.2697024  14.3842316   0.6275986  55.7310295  10.2030411  83.2238617
  55.7491722  10.2273712  84.1805801  54.8134956  10.3554821  82.9977493
  30.3907833  50.7041626  69.9318008  30.8971043  51.3861008  70.3731918
  31.0337105  50.0270920  69.7209473  13.2459869  69.4977722  75.9001160
  13.8034344  70.2736206  75.8406296  12.8768787  69.5351334  76.7824936
   3.2615354  10.5211468   8.9543991   3.2178445  10.7273617   8.0206985
   3.6841955   9.6630821   8.9906521  45.4702835  20.7443428  56.0157776
  46.2519722  20.8367977  56.5604286  45.5866089  21.3895683  55.3183670
  21.2019196  11.7297239  78.3345413  20.7016220  12.2502851  78.9629974
  20.9160995  10.8291969  78.4881363  72.6295166  15.9807606  46.3640480
  72.2853775  16.1038246  47.2487259  72.6278534  16.8584785  45.9821587
  46.9506798   3.8689327  10.1286821  46.5418777   3.0564263  10.4269190
  46.6542587   3.9681537   9.2239609  16.7710228  65.3241196  71.1213150
  16.6184978  64.8131104  70.3264389  17.3921051  64.8002625  71.6273422
   5.5438213  55.7676430  26.2247181   6.0658994  55.2088318  25.6490479
   4.6681471  55.7578888  25.8382835  60.4345970  69.7382584  23.5185909
  61.3498230  69.6518631  23.7852859  60.4769249  70.0549698  22.6162968
  30.7265587  55.3181915  39.0059319  31.4522381  54.8318329  38.6146812
  30.7468376  56.1702766  38.5703049  19.6700230   7.2722368  25.4810581
  19.1196995   7.7437496  24.8557167  19.1354713   6.5275459  25.7565975
  23.8327942  25.2575130   8.4527788  23.4634514  24.6866570   9.1265297
  24.6567936  24.8366261   8.2076006  69.2687454  58.6098824  27.0796566
  69.8395615  58.8554649  26.3515835  69.5496979  57.7260780  27.3167019
  65.5636215  70.1641617   3.2502992  66.0221863  69.8916473   2.4555125
  65.5518494  71.1201782   3.2041636  70.2143631  22.1889954  61.2709808
  70.6627426  21.4818592  60.8071480  69.5443497  21.7465496  61.7920876
   4.1380491  13.8308783  76.8243637   4.8790231  13.9446335  76.2291718
   3.6029165  14.6135607  76.6929321   2.4670150  65.2705612  44.8447571
   1.8460120  65.0308990  44.1568985   3.3275898  65.1437149  44.4453163
  59.5686569  37.1463165  46.3550720  60.3270645  37.3000984  45.7916870
  59.1550636  36.3633652  45.9915276  54.6171570  51.1532516  37.9874306
  55.0490875  51.4382935  37.1821823  53.6966019  51.0558395  37.7438736
  76.5822983  51.7636909   7.0725770  76.7845383  52.1158218   6.2057829
  77.1967926  52.2043571   7.6594653  43.6454048  63.3660355  38.7214546
  44.4922638  63.5069847  39.1447639  43.5359383  64.1235504  38.1466331
   1.9704376  21.5398827  88.1081696   2.5891728  21.6522713  88.8298111
   2.1861854  20.6835575  87.7388535  12.3948803   5.6737823  50.4769592
  12.3596802   5.6829715  49.5204506  13.1929035   6.1566749  50.6919174
  86.4041214  60.5928955   7.8029380  85.7474747  61.1520767   8.2181044
  86.7307968  60.0396957   8.5125046  25.1122112  62.8418007  23.3647804
  24.5936565  62.6668510  22.5794621  24.9404221  63.7618904  23.5651741
  29.8119354   9.4630432  87.8675613  29.5823727   8.5424538  87.9942398
  28.9832230   9.8884201  87.6472855  68.8639069  48.8568039  71.6507034
  68.4792328  49.2595558  70.8722153  68.2871704  48.1188927  71.8484268
   2.3803911  57.6206894  38.6110115   2.5551128  58.5511780  38.4699554
   3.2477641  57.2186928  38.6589050  65.7361908  25.4146786  66.6487656
  65.4948578  26.1500721  66.0855713  66.5196304  25.0468826  66.2398758
  18.0174751  12.7185192   4.3355222  18.7203369  13.2030926   4.7684255
  18.4612389  11.9906683   3.9001620  13.8177671  34.0391006  20.4256802
  14.1571798  33.1538315  20.5573215  13.7671843  34.4096985  21.3067760
   0.0970339  38.6955338  76.7616425   0.9347922  39.0584450  76.4740906
  -0.5599441  39.2018013  76.2838287  65.4962463  23.9359550  38.7004776
  64.9445343  24.3510265  39.3634720  64.9000015  23.7494812  37.9752541
  70.5852661  67.1666412  76.2331009  71.3370667  66.9484634  76.7839432
  69.8587952  66.6722107  76.6125793  75.8218765  39.7870178   2.6881888
  76.6329346  40.2953682   2.6879451  75.2436905  40.2582283   2.0882826
  46.9269791  58.3273315  61.3181953  46.2292747  57.6734085  61.3609085
  47.5462646  58.0615807  61.9979668  79.3934174   3.4612849  67.6833572
  79.1740952   2.6194837  67.2839813  78.5476913   3.8406475  67.9222336
  15.9199343  18.7716312  69.6797028  15.1695518  19.3356266  69.8669662
  16.5474491  19.3458118  69.2406387  63.0004616  34.5924683  48.1237259
  63.3168907  35.1719933  47.4307213  62.5430374  33.8914375  47.6594505
   3.7304313  60.8257217  72.0856857   3.9028161  61.0509949  71.1714859
   2.8010120  60.5975990  72.1049957  68.5213547  49.3422012  -0.1719038
  68.6908798  48.4006805  -0.1397478  68.2579880  49.5687447   0.7200314
  20.3407059  21.7061749  74.9021683  20.6488953  22.5991783  75.0564346
  20.3062172  21.6260166  73.9489594  43.3892860  63.8047409  83.9100266
  43.6250343  64.6187210  83.4649506  42.6420708  63.4688225  83.4149933
  44.7468033  59.0019302  64.0928955  45.2401237  58.3096657  64.5329361
  44.0213318  58.5453529  63.6669197  49.0773659  66.7555847   7.5923486
  49.2098694  66.6818008   8.5374575  49.4034271  65.9277191   7.2394280
  75.0361786  18.6925049  64.3184433  75.4089432  17.9977779  64.8612442
  75.4451065  18.5722828  63.4613800  78.1718674   6.5214677  71.7185135
  78.9365234   7.0013967  72.0366287  77.8238907   6.0833836  72.4951935
  60.9720802  29.9272289  32.7749977  60.3143845  29.9371300  33.4703865
  61.3491058  30.8069324  32.7893791   2.8506730  59.9851151  55.0788231
   2.0859911  59.4099350  55.1044769   2.5016000  60.8561974  55.2674980
   6.5771799   0.2453877  29.8685188   6.7811809   0.7991781  29.1149063
   6.5509372  -0.6429022  29.5128727  56.6193466  71.4601898  21.8134060
  55.6622963  71.4513245  21.8279991  56.8423271  71.9995422  21.0547161
  18.2212257  33.5667419  81.6473999  17.6395588  32.9685555  81.1782837
  19.0133171  33.6004181  81.1110306  48.8762321  64.2955017  55.6022758
  49.4373741  64.1401367  56.3620224  47.9980011  64.3954926  55.9696198
  23.2264957  35.6196938  21.2602444  23.9837170  35.1953850  21.6637402
  23.2797070  35.3761368  20.3360806  61.9099846  61.3595200  26.9000282
  61.8708534  61.6946297  27.7957973  62.0462532  60.4176178  27.0024147
  30.1606178  61.5297318  77.9691544  30.5117207  62.3232956  78.3731537
  30.8593597  61.2269096  77.3892441  81.3235092   6.0798249   3.4035125
  80.5465775   5.5289764   3.4992957  81.3579712   6.2849545   2.4691858
  70.8575592   7.0714722  72.1198120  70.9236526   6.8851099  71.1832581
  71.4092484   6.4087853  72.5354080  52.3963432  52.1216660  40.8083229
  53.2781448  52.2579689  41.1548424  52.0466232  51.3941879  41.3228188
  77.8792725  37.6932487  29.4119377  77.5216370  38.5322990  29.7023220
  77.5532990  37.0598068  30.0512524  75.6002655   4.8277864  73.6115417
  75.6016388   4.1791787  72.9076004  75.3100510   4.3424473  74.3838501
  27.4166393  31.2299633   7.4928560  28.1909008  31.7417049   7.7271047
  26.9679623  31.0799122   8.3249645  81.8740540   8.5085011  89.4470596
  82.1509094   9.4214439  89.3688431  81.8146667   8.1979799  88.5435791
  71.0542755  14.5504026  73.2623825  70.9771652  15.2009401  73.9602966
  70.2493973  14.6483603  72.7536545  67.8927383  20.2233315  21.5056553
  68.7279816  19.8399639  21.2380142  67.7472458  20.9375286  20.8851833
  50.4340706   0.9862274  71.5376740  51.3147469   1.0439181  71.1671066
  50.2344780   0.0500692  71.5362549  56.3696175  56.1132851  80.8770752
  56.9177742  55.5701561  81.4434357  55.7236671  56.4999275  81.4682541
  75.8184433  32.5457382  86.8668442  75.9162674  33.1536636  86.1339798
  76.4634705  31.8593578  86.6964111  62.1906166  70.6397934   6.8459425
  62.4280548  69.7480927   6.5915155  63.0187378  71.0431290   7.1062741
  71.4891968  58.2789307  66.4542160  70.9850540  57.8940239  65.7373276
  70.8550034  58.8117828  66.9339066  82.2631989  15.6216373  82.3818130
  82.6408081  14.8341856  82.7736893  81.9097748  16.1124954  83.1236877
  64.7429428  35.3596687  73.6207733  63.8364677  35.0843277  73.7575836
  64.6973724  36.3140907  73.5638885  60.1605301   4.2179351  43.9628830
  60.7616234   3.4730105  43.9657860  59.6768379   4.1386037  44.7850609
  24.5062351  44.2742653  29.1917439  24.4820328  43.4501152  28.7055073
  25.0145206  44.8652649  28.6362286  27.6553898  21.2122860   7.2529602
  27.0553513  20.7844009   6.6421394  27.0904236  21.5444164   7.9506240
  59.9527397  53.3456116   0.6492387  59.8412476  53.3416176  -0.3014377
  60.8905334  53.4860535   0.7798234  42.1418686  21.5928631   6.1233497
  41.9070091  21.0000076   5.4094906  42.1663933  22.4591713   5.7169743
  74.9131699  68.0027847  72.7608948  74.6349335  68.3670959  71.9205933
  75.0097198  67.0649948  72.5951843  86.1674042  28.5385418   0.4554658
  85.4799423  27.9787560   0.0945425  85.9025040  29.4269829   0.2172768
  25.1749401   0.7355118  59.2211761  24.8284988  -0.1041982  58.9193535
  25.3681278   1.2177958  58.4172401  59.9819756  22.7545662  32.9822273
  59.4961853  22.0882816  32.4961128  60.6409645  23.0695553  32.3635597
  85.1563644  28.5001965  78.2502899  84.9099350  29.0063419  79.0244522
  85.8269958  27.8936157  78.5642090  28.0661221  38.2199707  14.6432467
  28.7689877  38.7198563  14.2281256  27.6436672  38.8447838  15.2326307
  68.8116760  35.7819366  12.6593924  68.9850082  36.0020561  11.7441139
  68.6304703  36.6234856  13.0779476  41.7814636  61.2978821  86.7380905
  41.0420418  61.8136711  86.4164581  41.4386482  60.8408432  87.5060883
  44.2446060  50.3502846   4.1280122  44.3657188  50.0564613   3.2251103
  44.5366020  49.6111984   4.6616082  33.1182365  48.8324318  31.2653370
  33.2145767  49.6323166  30.7484875  33.5925407  48.1667862  30.7671566
  30.7702770   3.7075763  75.2919235  30.4718304   2.9245632  75.7545776
  30.7049751   4.4084954  75.9405212  47.6506119  59.0182266  18.0194626
  47.1039085  58.2780914  18.2831802  48.5185623  58.6383171  17.8832111
   6.2929130   1.9490292  83.4735489   5.4297953   2.1048350  83.8569336
   6.6651845   1.2422374  84.0008926  54.4146881  46.5639992  18.5059719
  53.7438736  46.8922615  17.9072342  55.2022743  46.4916306  17.9668045
  12.8128824  46.0550728  70.4480591  13.5713329  46.6389847  70.4533997
  12.1613188  46.5136185  69.9175568  16.9049263  63.6057739  25.8302097
  17.5196209  64.3120422  25.6313000  17.3424873  62.8129692  25.5199909
  15.2919264  64.7983704  32.0390358  14.5839682  64.1541519  32.0422897
  14.8804302  65.6048889  31.7285023  11.9429626  64.5785522  24.5420876
  11.3937979  63.7946281  24.5317020  12.7512293  64.2990952  24.9720173
  39.1838226   5.6746526  21.3910484  38.9979248   6.4836779  21.8676529
  38.3279037   5.2614050  21.2776489   1.6253061  14.7235956   6.0665741
   0.6960861  14.9066153   6.2054467   1.7501016  13.8406096   6.4144173
  13.6067581  50.3971634  87.7779083  13.1359425  50.0892487  87.0034714
  13.7720213  51.3239899  87.6049652   5.3461733   7.4970908  21.6627979
   5.1053934   8.1383066  20.9941425   4.9030585   6.6924634  21.3936214
  24.7871571  12.2090969  11.0866566  24.7292881  13.0509396  10.6347904
  25.6686821  12.1974888  11.4594994  56.9739990  21.6637058  51.8608971
  57.5732002  21.8694096  52.5784454  56.7746315  20.7343903  51.9742851
  69.6986694  49.7580872  61.5859146  69.6338196  50.6845284  61.8177147
  70.6235046  49.6278076  61.3762894  44.3040428  12.5599079  11.3449326
  44.9041023  13.0540199  11.9035177  44.5200882  12.8393049  10.4552717
  64.6887589   6.9389806  60.6255379  65.4912262   7.1885772  61.0837593
  64.3245087   7.7668419  60.3121643  45.1880951   0.7052637  32.2960625
  45.8133163   1.2060654  31.7721119  44.3312073   1.0381495  32.0292931
  18.4347725  66.5168304  53.3936195  18.8315868  67.2842331  52.9814758
  18.8890800  65.7718430  53.0001411  77.3964462  31.2890530  84.0402679
  78.2568130  30.9203587  83.8401108  77.3760605  31.3446617  84.9956284
   6.9667864   6.4628119  58.7666740   6.2195363   6.6216016  59.3434181
   7.1614714   7.3190603  58.3856659  69.9232483  54.7283287  36.7704468
  69.6995316  55.6120644  36.4785690  69.2573013  54.5163536  37.4245262
  22.0438957  49.2964172  18.5277748  22.7750187  48.6786079  18.5294819
  22.4396000  50.1364288  18.7602062   4.8417063  65.5140228  78.7021179
   4.7588086  65.4014664  77.7551804   5.2642145  64.7094955  79.0028687
  33.4142647   9.6526384   0.6214766  34.3365822   9.8474016   0.4552384
  33.0567131   9.4341602  -0.2391366  70.2334290  41.6758461  49.6558952
  70.8967361  42.0517731  50.2346306  69.4934616  42.2801208  49.7153358
   8.0655861  33.8944931  50.8736382   7.5643153  33.3775673  51.5043106
   8.9535131  33.9125900  51.2306938  80.4243851  66.4056168  28.3602829
  80.0083923  66.4216766  27.4983540  80.3426666  65.4965897  28.6487694
  79.8559799  52.1762695  71.3060303  78.9646835  52.2831345  71.6383133
  80.1635361  51.3614235  71.7031021  21.4171219  24.4007301  76.6040878
  21.7656612  24.4838791  75.7164841  21.3543339  25.3013744  76.9220963
   5.2287841   2.5671859  55.7023506   4.8102341   2.4423490  54.8506088
   6.1542230   2.7003167  55.4972382   8.5951691  26.9424419  85.1752548
   9.3328285  26.9879303  85.7835541   7.8651872  27.3347702  85.6542587
  51.4841118  27.4180908   2.3737266  52.3828201  27.1297970   2.5332375
  51.5538216  28.3654537   2.2559311  66.4391708  23.2868252   3.9712136
  67.1602631  23.7441959   4.4037309  65.9852371  23.9690590   3.4765091
  55.3281555  51.3847466  77.6232834  55.7030563  52.1916924  77.9761658
  54.6532364  51.6812134  77.0126953   8.4029408  49.7241402  43.4135475
   8.0224953  48.8463669  43.3817139   8.4247723  49.9420700  44.3453522
  28.2618122   2.5702674  87.5192337  27.5849323   2.1800892  86.9662170
  28.9700642   2.7880259  86.9132690  64.0227280  47.2722282  84.0055923
  63.3240623  47.4273720  83.3699646  63.5844841  46.8514900  84.7452850
  10.9579439   7.5180407  84.6525574  10.3687210   7.1783051  83.9790344
  10.9087582   6.8753242  85.3601761  83.7347260  30.0629597   5.0713310
  84.6362076  29.9724522   5.3801494  83.7043915  30.9325123   4.6723433
  63.5692177  14.3843422  35.9669075  63.8173256  14.6066999  35.0695610
  62.6806564  14.7274208  36.0617294  75.0348434  64.7774887  26.4940891
  74.7095413  65.5951538  26.1174812  75.9025574  64.6637192  26.1063290
  57.6904259  59.6225014  34.0824776  57.7484550  59.5564499  35.0356293
  56.7524109  59.5816460  33.8962250  52.8875122  56.7184906  32.4831696
  52.3544884  57.1002693  33.1805649  52.3736420  56.8546219  31.6871529
  25.9568005   3.6408193  85.6594162  25.8130131   3.5390248  86.6002655
  25.4515724   2.9316776  85.2618027  33.1074028  69.5071564  45.1016731
  33.9983635  69.7034607  45.3913040  33.1232452  68.5727463  44.8946800
  43.9962997  53.0146332  47.3469315  43.6145554  52.3045807  47.8630028
  44.3519325  52.5820847  46.5706215  11.0856533   7.3230877  71.5801392
  10.7078972   6.5304437  71.1990280  10.3619967   7.7268457  72.0592346
  20.3746243  50.5634918  64.6336212  20.8252392  51.3974419  64.5005493
  19.4752846  50.7294312  64.3509903  21.5421391  11.0048952   5.4521828
  22.1976185  10.5760851   6.0023665  20.7615662  11.0543480   6.0039887
  11.7007332  65.4263611  13.2650471  11.0912848  65.9232712  13.8108387
  12.4057369  65.1745148  13.8615150  29.0568523  48.4456558   6.8415251
  29.9770432  48.2916718   6.6275840  28.6490650  47.5817871   6.7809496
  72.7613831  31.1428413  41.7722778  73.5100098  31.7216759  41.6282539
  72.2188339  31.6070747  42.4097404  71.5188599  19.2632618  36.3724174
  71.9732208  19.1438503  37.2064056  70.9857559  20.0479107  36.5003014
  45.0790100  56.8599777  74.9226303  45.8153496  57.4497910  75.0843658
  44.7752953  57.0911522  74.0448227  44.5738297  21.8064346  25.1604576
  44.4003601  20.9377098  25.5230255  44.4787941  22.4001560  25.9052353
  36.3977547   2.3565814  62.1480026  36.0526352   1.9996327  62.9663620
  36.6789780   3.2433770  62.3732529  30.6421547   0.0619708   7.0338807
  30.0899487   0.3125336   7.7745004  30.1132107   0.2631451   6.2618852
  68.7505264  17.9374180  26.5152550  68.2920074  17.7798176  27.3405762
  69.6644135  17.7248650  26.7046089  73.7090149  47.3029594  13.4049997
  73.3841782  46.5164375  12.9667082  74.6024857  47.4076958  13.0779486
  58.8516693  50.5492973  17.6367970  58.7377281  51.4121971  18.0351105
  58.2732048  50.5592308  16.8742275  71.6004486  54.1031342  60.4018135
  72.1510849  53.5142975  59.8857651  71.1473541  53.5282326  61.0186043
   0.8514498  63.7691460  35.6424599   1.1435710  64.2403488  36.4227600
   1.6452692  63.6562424  35.1196442  38.5308189   4.0371785  26.7480545
  38.4999695   4.3281069  27.6594486  38.0599327   4.7155638  26.2640171
  85.1255951  15.9466629  41.6312790  85.9658432  16.3974876  41.7147980
  84.9971237  15.8524237  40.6874313  72.9802856  42.4855957  57.6527023
  72.4879227  42.0301590  56.9697762  73.7186356  42.8830109  57.1910515
  10.6741543  66.7186050   1.3761276  10.3906898  67.2945404   0.6660771
  10.2444620  65.8831329   1.1928735  73.7160110  19.7151031  40.6493988
  74.3035507  18.9603558  40.6866875  73.5559616  19.9395561  41.5660400
  22.5973911  55.6750717   3.0199943  22.7192898  55.6166611   3.9676023
  23.4716244  55.8603172   2.6770175  14.3477945  52.4693642  57.6883316
  14.4209194  52.0783386  58.5589561  14.7118025  53.3488541  57.7894363
  85.2981949  37.1410561  10.2886705  84.9381027  36.2571030  10.3607445
  86.0242386  37.0542831   9.6709700  13.1297245  29.9909058   7.8433843
  13.1507349  30.8543110   8.2560835  12.8657207  30.1637535   6.9396935
  61.0569496  13.6399946  47.8944016  60.3246460  13.0825472  48.1574898
  61.4714851  13.1663532  47.1732521  66.1186066  25.3683128  52.5712013
  65.9521484  26.3015614  52.4386444  66.2930145  25.2869434  53.5088539
  48.0393448  49.0915108   8.7579212  47.2863617  49.6800308   8.7041712
  48.7888641  49.6397247   8.5257206  52.6107674  35.9783669  61.1227608
  52.4373627  36.5370903  60.3651428  52.0591774  35.2085037  60.9838600
  39.3203354  10.5938482  24.6891632  39.1840210   9.7119980  25.0355568
  38.9675713  11.1735344  25.3642578   1.3750859  36.5632057   4.5938153
   1.3761157  35.8665543   5.2502518   2.2276247  36.9869766   4.6929579
  85.2615662  23.4709415  54.8177299  84.8056641  23.3366795  53.9868507
  85.1118546  22.6617107  55.3065681  42.4694290  43.6809921  77.6238480
  41.7689590  44.1550369  77.1756821  42.8255081  43.0934258  76.9573593
  43.6452713   2.6203392  14.8283358  44.4372635   3.0774541  14.5454435
  43.8762131   2.2443526  15.6777658   6.4484758  25.5648956  54.8851700
   6.3091617  24.9396725  54.1738892   7.3946247  25.7095947  54.8949814
  22.1841755  71.0066681  23.6761932  23.1404018  70.9645691  23.6666126
  21.9056568  70.0988541  23.7967167  61.5250130  32.6335907  81.5302963
  61.8767357  33.3204842  82.0966034  60.5903816  32.8303719  81.4672623
  62.2468491  56.9782562  33.1847878  61.4923592  57.5041695  33.4500923
  62.7746086  57.5699806  32.6485405  69.7594147  34.3628960  67.1300125
  69.4306641  34.7099991  67.9592743  69.4290543  33.4650726  67.0983734
  35.3503761  66.6834106  73.8897629  35.9891930  67.1457825  74.4323120
  35.1114578  67.3143921  73.2107849  52.1179924  23.1353092   8.6856270
  52.9535675  23.3397408   8.2658052  51.4677925  23.6122131   8.1698399
  85.9997406  12.8888102  29.7961102  85.7923737  13.1619396  28.9024467
  85.6227417  12.0122795  29.8722363  20.3761883  16.7270756  14.2801580
  20.2578144  17.6285591  13.9809122  20.5916157  16.8094273  15.2091579
  18.3211727  30.0638714  53.2116127  18.9802494  29.5763359  52.7174873
  17.4843636  29.7530174  52.8661385  69.4036255  37.8149910  72.5186462
  69.6573792  38.6360130  72.0970230  69.5018234  37.1536407  71.8336639
  77.2912903  28.2557850  64.0307999  78.1992264  28.5031700  63.8556175
  77.3569717  27.4430809  64.5322266  32.4884911  63.1416092  42.5973206
  32.6011658  63.4563103  41.7003784  31.8350563  63.7290840  42.9769592
  20.7685814  25.9946728  83.0030670  20.8909397  25.0706863  83.2210312
  19.8188190  26.1101151  82.9737854  80.9226151  10.7796078  53.7912903
  81.0270920  10.5077000  54.7030907  81.7532043  11.2009592  53.5703354
  50.6978607  24.9494247   0.8489866  50.5887184  25.3786087   1.6975862
  49.8366737  25.0128498   0.4359865  64.3188095  56.7518349  84.4216614
  64.5196304  56.7302132  83.4860153  64.4489059  57.6661034  84.6734848
  72.3809280  17.5805454  32.2399559  73.2508316  17.1844902  32.2912445
  71.8767776  16.9808674  31.6899967  18.3635292  44.4108696  25.7365894
  19.0806274  44.8027496  25.2381611  18.1420918  43.6153488  25.2525005
   9.6495752   6.3963971   8.9567738  10.3499041   5.9455805   8.4850368
   8.8656073   5.8785834   8.7737570  83.3356400  50.4571686  70.9199142
  84.2232895  50.6821289  71.1986542  82.9849854  49.9311218  71.6386261
  60.1328125  54.9213104  87.1789932  60.1635628  55.8761292  87.1189270
  60.9095078  54.6262856  86.7036514  20.8865852  71.4074783  86.3430328
  21.7098370  71.2207260  86.7942657  21.0863781  71.2762985  85.4161530
  32.6815071  33.8703995  27.5644608  33.2602577  33.5167503  26.8890266
  32.3135033  34.6628990  27.1736221  33.5923119  37.6976852  13.9030294
  33.2425957  37.2304420  14.6617222  33.2106056  37.2489891  13.1485739
  10.8372898  32.8718033   6.0355620  11.2358942  32.0213737   5.8508544
  11.4675035  33.5095634   5.7004175  41.4861832  46.3904648  66.2840805
  40.6826973  46.8771133  66.1001892  41.2076263  45.6758537  66.8567657
  65.5987701  55.2091026  11.7657337  65.9319000  54.3212814  11.6352434
  64.8599777  55.2789841  11.1611347  77.7596054  56.6740875  15.4789047
  78.2587357  57.3141251  15.9863071  77.0762634  57.1889877  15.0497751
  20.0490685  54.1684113  10.0446157  20.7059574  54.8423004  10.2195578
  19.4770241  54.1866417  10.8118620  55.1433334  69.2895889  65.5885239
  55.6945953  69.8698120  65.0634766  55.1151962  69.7023087  66.4517212
  69.4668655  44.9957275  70.0614471  70.2310410  44.7828903  70.5971375
  68.8327560  45.3562164  70.6812744  81.0050659   5.1597433  45.4934425
  81.6635132   5.4056087  44.8436470  81.2946167   4.3066392  45.8168716
  50.6961327   9.5375061  12.1453428  51.5553818   9.4311647  11.7371550
  50.4471207   8.6529474  12.4132633   8.3390064   8.9025021  14.2772675
   7.5429158   9.3546982  13.9980001   8.9455805   9.6060276  14.5082445
  32.1069031  45.1215401  24.3355389  32.6001778  44.3227425  24.5221825
  32.3611641  45.7280617  25.0310364  46.6837654  59.6245956  26.5136852
  46.5656624  59.9304123  25.6143761  46.2448502  58.7742805  26.5370998
   2.3960047   0.8067568  25.0952282   3.2051301   0.3305534  25.2817173
   1.7091393   0.1422794  25.1492424  55.9661980  58.3946915  12.6819754
  56.4701157  58.3378677  13.4938068  55.9629822  59.3274002  12.4668579
  42.5880127  57.3110313  29.1086636  42.5916100  57.8992119  29.8638191
  43.4249001  56.8493576  29.1606750  24.7360859  11.5578289  62.3289528
  24.5363770  12.3715467  61.8661232  23.9145565  11.0667696  62.3154373
  83.7827682  68.5296707  33.6930847  83.8668900  68.8502579  32.7951012
  83.3558884  67.6775589  33.6041908  65.3698502   0.0042483  11.0713253
  65.2341995   0.9314675  11.2665062  64.5102921  -0.3962194  11.2017794
  83.1732407   3.5796986  83.8577499  82.3535156   3.0943489  83.7643509
  82.9295654   4.4928255  83.7059097  60.4177399   7.4104586  62.0052299
  59.7695198   8.1145992  62.0202599  60.0448837   6.7541852  61.4165764
  29.7675686  45.0316734  67.5226593  29.1137733  44.3411064  67.4135742
  30.5006371  44.7566109  66.9720459  51.8992043   5.3276844  47.8865852
  51.7206726   5.9019780  48.6312637  52.5848236   4.7370715  48.1985741
  32.5969696  11.9868050  14.5872412  32.5180321  12.7869263  14.0678110
  32.0869102  12.1631680  15.3777905  57.5586624  28.7967663  83.3380051
  57.8815765  27.9224453  83.5559998  57.4569778  29.2324200  84.1842346
  55.2505112  56.5143547  45.6012573  56.0570717  56.4575119  46.1135635
  54.7507286  55.7382545  45.8544846  77.4389725  55.5848618  80.9951782
  78.2261200  55.3783760  81.4991455  76.7624512  55.0171738  81.3643341
  77.1656570   7.2248726  33.8838158  77.1990738   7.9865665  33.3050804
  77.9793243   6.7530990  33.7060280  66.0834274   6.9857068  83.6914902
  66.7558594   7.1602106  84.3499908  65.2573776   7.0429320  84.1716843
  76.0887680  50.0552216   9.3203535  76.8768387  49.5526886   9.5268259
  76.2810211  50.4667473   8.4777880  25.0943279  36.2928200  14.8010759
  25.7684860  35.8527794  15.3188667  25.3744926  36.1749992  13.8934097
  39.4533920  62.9568787  86.4288712  39.1733322  63.6064377  87.0737457
  38.6455536  62.6927490  85.9885712  38.8376160  57.9189034  72.8737869
  39.5112991  57.2740173  73.0894394  38.0665512  57.6326561  73.3634338
  45.6137695  16.1972046  19.5626717  45.2081718  15.8795137  20.3693886
  44.9412003  16.0757484  18.8924999  77.8532333  49.0574455  25.1106567
  78.5897980  49.6579933  25.2248688  77.1087036  49.6261597  24.9144821
  86.2927322   4.0926070   1.0649999  85.5417862   4.3653255   0.5378057
  86.7369919   3.4366858   0.5277517  56.4694099  31.1928902  76.0121689
  56.9728889  30.9877625  76.7999878  55.7769547  30.5323448  75.9917068
  54.7367172  30.9477024  54.4095764  55.3127823  31.0244904  55.1701584
  55.1915588  30.3415279  53.8248520  52.2490082  14.4681730   0.6776603
  53.0232239  14.7381344   1.1715651  52.5989990  13.9869385  -0.0721075
  53.7399292  65.7193832  71.2270050  53.4677048  66.3722382  71.8719101
  54.0157127  64.9666061  71.7499771  64.2570648  37.7066689  35.6745224
  63.3688736  38.0125275  35.8583679  64.6800385  37.6697388  36.5324059
  80.6159592  50.4438324   6.3841367  81.4512634  50.1484528   6.0218472
  80.0108795  50.4180260   5.6428947  72.0547943  58.7654381  77.4150848
  72.1077957  59.6124954  76.9724655  72.5220261  58.8966637  78.2401352
   7.6577721  69.2367325  49.8323059   8.1554642  69.0745010  49.0309219
   8.3238659  69.4185181  50.4952583  62.8952637  29.9418354  30.6323128
  62.6639900  30.8669701  30.7151928  62.2340164  29.4823532  31.1498661
  14.3557444  32.5513611   3.5426629  13.8867569  33.1757011   4.0962706
  15.2315826  32.5023956   3.9257309   7.5548291  13.5873823   6.4631491
   8.1249371  12.8247757   6.3649592   7.2445636  13.7702513   5.5762863
  62.4611435  54.8854408  85.9073257  62.7843399  54.3194084  85.2063370
  62.7525444  55.7630463  85.6600800  82.3007050  13.4737129  85.3418274
  82.6718292  13.6644249  86.2032928  82.8592911  13.9520864  84.7291489
  75.5071487  66.2293243  10.0539408  76.1112061  66.5705338   9.3944521
  74.6754227  66.1332016   9.5900240  75.4697723  57.0342445  45.8595467
  74.6150818  57.1271477  46.2803879  75.6607513  57.9048119  45.5104446
  82.4094543   4.4351912  23.8363895  83.2105179   3.9117978  23.8607101
  81.8590393   4.0005279  23.1849747  70.1878433  21.4406719  37.2926788
  69.4185486  21.9988098  37.1791306  70.9280930  22.0473557  37.2785759
  16.0844059  60.8052063   5.2219810  16.3837891  61.0138054   6.1069040
  16.8808880  60.8148499   4.6911731  55.6400261  16.5276737  80.6531372
  55.3244438  15.6337461  80.7855530  55.8886642  16.8259525  81.5280380
  48.5640335  26.0659599  17.6662292  48.7742958  26.0012894  16.7346497
  49.0518875  26.8317223  17.9692802  29.1012955  61.4270592  34.6259804
  28.6070137  60.6330147  34.4224777  29.6995544  61.1641235  35.3253975
  47.6465454  25.8313179  83.5397491  48.5040550  25.8810291  83.9621658
  47.1608772  26.5755711  83.8953400  45.0491524  62.2982521   1.4687672
  45.3670578  62.4543037   2.3580453  44.5748711  61.4687881   1.5260655
  83.3731766  20.8645535  49.8688469  84.2449036  20.4996128  49.7166824
  83.1080704  20.5062981  50.7159576  34.2939262  41.9227219  38.3999176
  33.9986000  41.1908646  38.9415779  34.9410858  41.5375633  37.8091011
  60.7957497  47.1174927  49.0481949  60.3263855  47.9515800  49.0330200
  60.3722229  46.6169853  49.7455826  82.2881165  44.2840614  46.3000221
  82.1447830  43.4068184  46.6551743  81.4083710  44.6456261  46.1925240
  37.8960152  57.6071205   4.6510239  38.0790405  56.7981873   4.1731524
  37.0610352  57.4427490   5.0892248  70.6360016  33.2974510  50.5089951
  71.0685349  32.4668083  50.7069359  69.7112732  33.0692749  50.4139366
  11.4497452  46.3874168  79.6838150  12.2427397  46.7112770  79.2566071
  11.2076693  45.6094818  79.1813736  54.8020287   1.5608664  33.6869774
  53.9856262   1.0787224  33.5555992  55.4661636   1.0324090  33.2443886
  39.2512512  56.2356453  36.5768433  38.9780731  55.7270737  35.8133240
  39.0034714  57.1358833  36.3661232   2.6532245  35.4176407  26.2022114
   2.0073676  36.0364304  26.5430908   2.7693412  34.7802010  26.9067841
  86.3023148  55.1541595  65.4532623  85.3516617  55.1706200  65.3426666
  86.5804672  56.0512772  65.2687607  65.6560287  59.0539360  84.6861877
  65.7925186  59.9730988  84.4565277  66.4992371  58.7668610  85.0366364
  73.3654327  44.2927780  53.7304306  72.7120209  43.6046562  53.6048470
  73.5579376  44.6045303  52.8461304  21.5496826  50.5840492  59.3164024
  22.1448746  49.8506660  59.1610680  21.3501339  50.5366783  60.2513695
  68.5548172  58.3193779  17.6999722  69.1552658  57.6838760  17.3103161
  67.9018631  57.7856026  18.1527119  60.5096359  28.6936111  75.6474075
  59.5665588  28.5356350  75.6040268  60.8735962  28.1676273  74.9352875
  23.7089767  61.0069618  28.9309483  24.3909054  60.3377457  28.8729897
  24.1014919  61.7839851  28.5329552  82.3259506  66.5042419   4.6007266
  82.4070969  67.4543304   4.5172105  82.9854050  66.1539688   4.0018497
  46.9337921  10.2910728  18.3670387  47.7527580   9.8851795  18.0828190
  46.2572632   9.6566515  18.1302967  41.7062531  18.0301170  75.5887451
  41.5543175  17.6005573  76.4305496  42.2404709  18.7949066  75.8030853
   2.0146885  39.9661140  17.8790455   1.7535355  39.0636711  18.0624104
   1.4422058  40.2402458  17.1625614  11.3272047  21.6121864  14.1803408
  11.3005648  22.5679932  14.2245550  10.5655622  21.3755817  13.6510487
   7.8676491   3.3608625   4.9204841   8.5974598   3.2406211   5.5280619
   8.1016169   2.8323147   4.1575108  46.9691086   3.1747730  76.9551544
  46.7227135   2.9893384  77.8613205  47.8292580   3.5895605  77.0209122
  44.2613068  51.7219696  65.9220276  44.6898003  50.9123993  65.6441345
  44.6217766  51.8976059  66.7911911  33.4299927   1.2162658  30.0250282
  33.6956787   1.1153166  29.1109982  34.0073471   0.6257044  30.5088997
  60.6448364  42.2188950  23.3824539  61.1079483  42.9211769  22.9257698
  60.2027893  42.6569061  24.1097603   2.0684998   7.9376950  85.0571136
   2.2329304   8.4268208  84.2509232   2.5933385   7.1424093  84.9660263
  70.4360123  23.3846016  87.5636673  70.6715927  23.9177227  86.8043823
  69.4980469  23.5355530  87.6805801   5.0158968  63.9729805  30.5049973
   5.6852155  64.5911102  30.7985249   4.4141340  64.5022430  29.9815540
  71.0073395  54.0559196  87.6344757  71.6254349  54.3214417  88.3154221
  70.7434311  53.1699638  87.8828125  45.6920853  65.2350998  48.1779213
  46.6434746  65.1323013  48.2007179  45.4104767  64.6952667  47.4393387
  65.0984573  65.6603851  28.6565266  65.3304596  65.0881805  29.3879547
  64.3868179  65.2017059  28.2099743  50.8286362   3.5261300  37.3235245
  51.5521355   3.3101203  37.9118462  50.0425301   3.2740455  37.8080063
  86.4656601  21.8712521   1.8309629  86.0376053  22.2307320   2.6079898
  86.3436050  20.9248753   1.9065013  73.0889435   7.5132055  16.3650265
  72.9158630   8.4323330  16.1613617  73.7739563   7.5407877  17.0330334
  60.1331749  10.6636620  83.4807587  60.9689484  10.2057400  83.3911743
  59.4744606  10.0053530  83.2595062  68.0749588  38.0914764  27.0136700
  68.9543152  38.1636963  27.3848267  68.2048950  37.6509819  26.1738434
  56.5563087   6.2682257  62.4562149  56.8159294   5.5885749  61.8341980
  55.7157021   6.5860476  62.1266632  79.3762817  17.1334839   2.9598935
  80.1638412  17.5852928   2.6568339  79.3925552  17.2359657   3.9114525
  46.7463341   5.4845223  87.6418076  47.0078926   4.8303986  88.2898331
  47.1546135   6.2963223  87.9426727  58.4903374  70.3092346  68.5267563
  57.6799202  70.2055054  69.0254440  58.3716888  69.7512207  67.7581406
  40.2515526  60.3013725  34.1918869  39.9682617  59.7183228  33.4875946
  40.2592850  61.1717949  33.7937202  83.4683151  33.1849747  44.2807693
  82.7481308  33.8152046  44.2611427  83.2816772  32.5854263  43.5583153
   5.6707311  51.4570580  42.4036179   5.8087468  50.5547829  42.6918640
   5.8405585  51.9861221  43.1830292  65.9948807   7.4578300  70.0253677
  66.5569229   7.0559263  69.3629379  65.7650452   8.3115387  69.6585007
  75.6162109   2.1251962  60.9248962  74.8851395   2.4996085  61.4164085
  76.0417404   1.5315744  61.5435791  52.6844292  68.2620697  66.2229080
  53.3869743  68.4781494  65.6097412  53.1136856  67.7496872  66.9080658
  64.4619904  17.8094959  19.5554619  64.1196365  18.5649548  19.0776501
  64.0566330  17.0535946  19.1305771  59.7128487   7.3279591  84.1127701
  59.9160080   6.8213902  83.3264236  58.7565384   7.3629270  84.1347275
  54.3210335  63.6025047  34.7703934  53.8976097  63.2228889  35.5403557
  53.6895027  64.2416916  34.4404793  12.5780592  23.9868126  26.0943069
  12.8297005  23.0641079  26.1333714  13.4089136  24.4620876  26.0994415
  80.8475418  13.0367041  26.6469460  81.5909195  12.4341192  26.6695900
  80.0805130  12.4683123  26.5774593  51.7176399  10.5691938  72.7822037
  51.6717796   9.6255217  72.6285400  52.2837715  10.6598196  73.5486984
  59.9416809  53.6361694  24.8295879  59.6214447  53.0745888  25.5354977
  59.2466240  54.2820702  24.7033443  27.7053471  52.3652802  25.5835342
  27.1545525  52.8058586  26.2306423  27.4993801  51.4361877  25.6865025
   9.2822084  54.6150856  42.5699158   8.3585434  54.8603325  42.5157928
   9.3264494  53.7547951  42.1525726  56.0783806  35.1659622  21.0589466
  56.8686562  34.7315598  20.7380161  55.7569923  35.6642113  20.3074894
  47.1661720  57.0699997  27.9728432  47.6123695  56.3479080  27.5304432
  46.2391701  56.9352951  27.7759743  23.5983028  62.7242546  65.0009613
  23.8579979  62.0436516  65.6219025  22.6662712  62.8606758  65.1710815
  37.1637077   0.5344983  46.2519188  36.9257240   1.2064073  45.6130638
  37.8864021   0.0593463  45.8418274  49.2721291  68.0577164   4.8728685
  49.0662575  68.8717041   5.3325067  49.6375160  67.4868240   5.5487480
  84.0401840   9.3448982  52.0918922  84.4886551   8.7229204  52.6648216
  84.7447968   9.7763338  51.6085548  60.1182365  14.2004223  35.6536713
  59.6393738  13.4757109  36.0558128  60.4899940  13.8275557  34.8542976
  43.3795776  45.8842583  79.2345123  43.2668953  45.0190964  78.8407822
  43.3828506  46.4871674  78.4910583  53.4261169  66.1697769  68.0514145
  52.9027710  66.1671066  68.8528671  52.8599892  65.7648468  67.3943329
  78.4589386  59.3904877  28.6572037  78.8015594  59.4722786  29.5472355
  77.5083542  59.3690720  28.7675133  15.7191381  21.3858700   3.5561526
  16.5421143  21.6141033   3.1238887  15.2712622  22.2232952   3.6759784
  32.3306351  28.2687607  14.2145939  31.9661179  29.0700150  14.5905609
  31.5715637  27.7023449  14.0759859  16.2664871  59.4874687   0.9216663
  16.3337860  58.5380325   0.8202950  15.7407207  59.6072311   1.7125257
   6.0577078  51.5209618  36.8969307   6.0352125  52.1676178  37.6023140
   6.6755476  51.8816261  36.2609825  43.0940475  56.7821732  53.9221191
  43.5769730  57.1304054  54.6716156  42.4924965  57.4852829  53.6771507
  65.5279922  54.4279709  73.4064255  65.2434158  54.6909065  74.2817078
  64.7359848  54.0897789  72.9885864  15.3719444  18.2387486  64.0328064
  14.4619055  17.9794216  63.8885498  15.6971931  17.6184788  64.6852722
  45.4082527   9.4939756  37.6735802  45.1660385   8.5992594  37.9124222
  44.5808449   9.9092817  37.4303665  27.3546124  22.4541874  10.0554762
  27.9522533  21.9154034  10.5739069  26.5120564  22.0041065  10.1167946
  31.2156925  13.3002453  19.2001591  31.6435986  12.4578571  19.0468254
  31.4271793  13.5144358  20.1088009  67.8096313  37.0313225  16.3074684
  67.7011032  37.6686249  17.0133724  67.6364975  37.5279541  15.5077095
  85.5959778  55.2563019  61.4140053  85.0902100  55.2792625  60.6016617
  84.9368668  55.2868805  62.1074562  66.5418091  65.3798218  20.2319469
  66.6204681  64.8297806  19.4525242  67.4457474  65.5618439  20.4888515
  13.1814165   5.7399402  83.9279251  12.9860249   4.8318858  83.6966476
  12.4818125   5.9891419  84.5318146   5.0901585  25.1403236  76.9381027
   5.3485565  24.3559742  76.4541016   4.7263398  25.7237148  76.2721252
  60.8260460  56.6747093  80.5970917  60.5376625  56.6935501  79.6845627
  60.6992188  57.5714531  80.9069290  61.5238609  29.0590496  55.1967583
  60.6187859  28.7567558  55.1213379  61.9829750  28.3361626  55.6244011
  12.7859268  51.0486221  62.6225586  13.1330624  51.0898705  63.5136414
  12.1210690  50.3608208  62.6561203  51.3359261   5.6408725  61.5040627
  50.7029915   6.3579698  61.5413780  51.0944557   5.0700746  62.2335243
  42.4108620  49.9431648  75.3111801  41.4885521  49.9205666  75.5662613
  42.8884583  49.9580002  76.1405869  70.6906204  15.3066959  24.6122513
  70.6400299  16.1879368  24.9825039  69.8416214  15.1751165  24.1902084
  80.6874084  16.9350071  65.0872116  81.2001495  16.3400898  64.5400314
  80.7446518  16.5610161  65.9664612   5.1581616  37.5807076  13.3073645
   4.3667579  38.0476913  13.0393400   5.2134752  37.7256279  14.2519112
  25.4375134   4.7071486  32.4413109  24.5536137   4.7429137  32.8069229
  26.0021210   4.5388150  33.1957054  55.0334549  16.1425705  68.5296936
  55.6194000  15.6617575  67.9451218  55.4247437  16.0413151  69.3973770
  10.5613298  20.6736069  48.5656700  11.1283770  20.0418320  49.0078773
  11.1559591  21.3625431  48.2689972  46.2200241  49.3759727  48.3285713
  45.7920990  48.8442955  47.6574287  45.6526489  49.2959480  49.0953293
  53.3194389   3.6687961  26.8575382  52.7821121   3.7638226  27.6439743
  54.1882286   3.4393034  27.1873417   0.7282124  41.1007500  59.9187927
   1.0289888  41.1349487  59.0107193   0.3778726  40.2159538  60.0218964
  20.1547070   7.8589931  85.0543976  19.8274174   8.4446659  85.7371140
  19.4664707   7.2015696  84.9526291  24.8555450  56.5686951  47.5775757
  24.9010983  56.5635147  46.6214752  23.9189301  56.5997162  47.7725677
   3.5131545  57.5857239  26.7091007   3.6833026  57.4637985  25.7750683
   4.2176371  58.1607895  27.0078182  78.0276566   2.1427977  59.5184441
  77.1592102   2.2263391  59.9122238  78.6227188   2.0680239  60.2644577
  67.6571503  58.2352829   0.5662317  67.1493912  58.8154144  -0.0010992
  67.7017822  57.4088631   0.0853289  54.3967552  36.3877182   5.9224510
  53.5178261  36.5466805   5.5782948  54.2544289  36.1311378   6.8335719
  55.1084442  21.5074120  59.2320213  55.4994202  20.9310760  59.8886833
  55.4427109  21.1803703  58.3968315  71.7978745  67.6244354  47.4729156
  72.1884842  66.9938965  46.8678741  72.1109772  68.4756393  47.1669006
  33.7818642  27.1290836  82.5556641  34.2029495  27.7632828  83.1359253
  32.9413261  27.5293217  82.3330917  17.5141754   8.2281008  11.0040426
  16.9496460   7.6142368  10.5342464  18.2714119   8.3443689  10.4301891
   2.6920431  17.7634544  66.4498215   3.5149827  17.4794998  66.8477783
   2.1169443  17.0014362  66.5192566  66.3748856  14.1681690  87.0285416
  67.0059509  14.7376366  87.4686508  66.1582031  14.6311455  86.2192612
  78.9012985  20.3093090  49.1217232  77.9767456  20.1952839  49.3418045
  78.9736862  19.9941330  48.2208023  72.8873367  52.7678413   4.1300454
  72.1575241  53.2001572   3.6865294  72.6173782  52.7228012   5.0472827
  74.5529938  33.5448952  67.5568008  75.0595856  34.2546272  67.1619797
  74.6283722  33.6925087  68.4995422  54.8469658  16.8956318  61.9886894
  54.5187378  16.8209629  62.8847466  54.3325653  17.6050491  61.6035233
  35.3079681  29.2363987   2.6236022  36.2583275  29.2540245   2.5107601
  34.9691963  28.9883175   1.7634145  62.2570572  57.6190491  17.2500343
  61.3654785  57.3692818  17.4927940  62.7552567  57.5501289  18.0644550
  65.2344589  42.2093201  48.1948624  65.0908813  43.1486282  48.0794640
  65.8723755  41.9797401  47.5191498  21.6019478  64.4669800  74.3758163
  21.6457996  65.1660309  75.0282288  21.1075726  64.8475494  73.6498718
  40.0333061  61.7562370  76.3120117  39.3133583  61.6401405  75.6919861
  40.4480782  62.5770187  76.0464630  56.0293922  71.0118179  14.0003405
  55.1695404  71.4251099  13.9224062  55.9195671  70.3589859  14.6917019
  16.3564110  45.1336555  87.0418549  15.6412926  45.3832932  87.6271057
  16.0591068  44.3204842  86.6336975  58.5526733  61.2073326  11.8860874
  57.8205605  61.0477142  11.2904654  58.6541901  62.1591187  11.8911552
   9.4370461   4.0941973  64.1613007   8.9627008   4.8871574  64.4111862
   9.7039928   4.2502356  63.2554131  64.6389542  21.6409454  41.5903778
  63.8145866  21.7602768  41.1187706  64.6434402  22.3390160  42.2452888
  20.4695492  59.0565643  56.3729324  20.1715317  59.7553482  56.9552727
  19.6645126  58.6897278  56.0074463  83.3032990  12.6610441  49.0694199
  83.0455093  13.4883375  48.6627693  82.6798630  12.5418406  49.7859039
  20.8199234  61.0665245  42.7175026  21.1197662  61.9582062  42.5407791
  21.5631008  60.6450462  43.1490974  65.2549057  45.5469513   7.0102768
  64.7905807  46.3839798   7.0145049  65.8521194  45.6081085   6.2647347
  27.6154480  71.1814041  83.9427032  27.3844452  71.9720230  83.4550705
  27.5303116  71.4336395  84.8621368  12.9042511   1.5727423  30.0805378
  12.8794613   1.7762641  31.0155220  13.8286848   1.6471502  29.8436470
  16.3011589  45.0009041   7.2453494  17.0560360  45.5588608   7.4326487
  16.4393177  44.2221184   7.7844548   3.8178084   2.9496148  46.7561455
   3.3617206   2.8008876  45.9278374   3.2399964   2.5714512  47.4189873
  65.8756714  32.3295898   4.1834960  66.0324402  31.4915085   3.7484405
  66.5364990  32.3678322   4.8749256  64.9896011   2.8435702  46.0450439
  65.6362152   2.1379874  46.0284309  65.4014511   3.5336816  46.5650024
  75.6865540  10.0036707  30.7387867  74.7833786   9.8017340  30.4943790
  75.6136169  10.4342566  31.5905533  37.3762550  37.8999901  88.4280701
  36.9748344  37.0655708  88.6706390  37.1115074  38.5038300  89.1219864
  45.8561172  12.3981457  70.0288849  45.7538986  11.5876350  70.5277405
  46.7948914  12.5822973  70.0608673  72.1260910  66.5813599  36.2901306
  72.7429276  65.8496933  36.3103180  71.7570343  66.6079178  37.1729240
  17.3567429  19.7639065   6.0124755  17.2373466  20.7134857   5.9958858
  16.4711151  19.4127350   6.1050696  67.1207886  16.9005642  29.0738029
  67.6127853  16.1251888  29.3439255  67.1212769  17.4656944  29.8463707
  19.2262936  64.9794388  77.2220230  19.5226326  65.7511749  76.7394943
  18.3962593  65.2475586  77.6162186  63.4987526  54.7873154  39.9216766
  63.8672409  53.9175873  39.7666893  62.5702209  54.6955833  39.7080383
  84.7365952  12.5822268  34.6497917  84.7750931  11.7001295  34.2801247
  84.0423584  12.5363407  35.3071785  80.1989594  65.1838837  13.8403044
  79.7995224  64.4011383  14.2197657  79.7152328  65.3294754  13.0272589
  20.2023945   7.5970840  72.3872833  19.7772274   8.4243345  72.1611862
  20.6080360   7.7611127  73.2386246  85.3487396  55.0791473  28.0168324
  85.8895416  54.2918968  27.9535694  85.9687271  55.8032379  27.9299946
  76.9352646  57.4620552  53.3049812  76.7916031  56.5495682  53.0540695
  77.7778931  57.6888199  52.9115677  18.9804173  43.7707062  16.8939743
  18.6370029  44.2363396  17.6565247  18.6643944  42.8733025  16.9989815
  33.2205963  33.8236465  81.9979248  33.5980110  32.9646187  82.1873016
  32.6255074  33.9902267  82.7289200  63.5410309   8.7051220  40.4523315
  63.8970261   8.3569975  41.2698326  63.1571655   9.5469923  40.6975517
  35.9609985  57.9871140  24.5059261  36.8480721  57.7221832  24.7491131
  35.4568443  57.1735039  24.5158367   6.8416619  50.2411270  84.8133316
   6.7276735  51.1870918  84.7217255   7.5600719  50.0276794  84.2178802
  33.1507034   3.5236998   1.3541850  33.4536095   3.2779551   0.4800636
  33.9436150   3.8005543   1.8133941  77.3009644  30.3660736  21.9423752
  78.1829834  30.2302952  22.2885494  77.3686523  31.1662865  21.4215012
  86.7548981  33.9668770  31.6085014  86.0885391  34.6457901  31.5023384
  86.3339462  33.1668282  31.2939472  20.3834801  12.6541090  38.0887108
  21.1510525  12.1507559  37.8172340  19.7022324  11.9960938  38.2271004
  48.9715195  51.3249855  26.0808487  49.6211395  51.2542419  25.3814068
  49.2480354  52.0880661  26.5882683  66.1897812  67.3190689  24.2713661
  67.0025406  67.8173981  24.1858082  65.8347855  67.2854767  23.3830624
  17.4153786   0.4145848   5.5990920  17.7514076   0.0379856   4.7857723
  16.6288815   0.8919713   5.3349776  84.8818970  10.4834909  29.2969017
  84.1971283   9.8597012  29.0556278  85.5408859  10.3938894  28.6084709
  84.4974289  31.8083134  40.6270103  85.2729797  31.6333218  41.1600533
  83.7607574  31.5777588  41.1930428  10.9814796  59.1726532  65.1980133
  10.6616755  60.0662422  65.3223267  10.1971989  58.6640854  64.9918747
  73.2869186  41.2172318   2.2891779  73.4353485  41.9497757   2.8871543
  72.4894943  40.7998772   2.6149929  71.1964340  31.5136852  81.2491608
  70.6862640  30.7168331  81.1042938  71.4028320  31.4993496  82.1837311
  26.8635006  57.8696251  69.4410095  26.9158363  58.8201904  69.5406113
  25.9482956  57.6593895  69.6265793  68.0009766  68.1273804   7.6668210
  67.2225876  68.6760864   7.5705805  67.7976761  67.3342133   7.1710434
  14.0354881  14.5211239  34.0765038  13.8627014  15.3666382  33.6623993
  14.8455839  14.2155991  33.6682968  34.0003777   4.7538548  18.2629566
  34.6285858   4.6142650  18.9715481  34.3590012   4.2616076  17.5245018
  66.8085175  16.9846687  16.8245201  66.3196182  16.1631584  16.7762432
  67.1394119  17.1190052  15.9364367  25.8656101  55.6473045  18.3160915
  25.8880177  55.3090897  17.4209156  25.2304153  55.0906982  18.7665939
  50.0558205  64.7364273  70.1510086  50.5646782  64.1032944  69.6446075
  49.2195740  64.2988434  70.3105316  52.7527618  60.0022316   5.5194621
  52.6048965  60.2282562   4.6011586  53.2214127  59.1681900   5.4883714
  68.1120682  42.7213821  71.4740829  67.8647766  42.7164383  70.5493927
  67.3780136  43.1480789  71.9160461  35.6836205  63.9365692  32.9958382
  35.1046371  64.5744171  33.4131584  35.2403069  63.0966530  33.1151848
  19.1120930  40.1610451  88.4802551  19.6117287  40.9384880  88.7296066
  18.6188164  40.4315529  87.7058258   3.0832894  37.2867355  47.7814789
   2.9521360  36.4562111  48.2389297   3.0164533  37.9510956  48.4673271
  53.3056068  21.3928051  62.5606728  54.2417984  21.2067471  62.6324959
  52.9127617  20.9352760  63.3040237  25.0151482  62.9701538   8.5535154
  25.2161179  63.7620316   9.0522823  25.8509769  62.5078506   8.4910622
  24.2791786  33.4614792  86.4006424  23.7724590  33.8941460  87.0878601
  24.6629181  32.6974411  86.8310165  50.8116570  27.6028824   5.4429784
  51.1259308  27.4269390   4.5561252  49.9019775  27.8763161   5.3248806
  37.0625267   7.1412163  71.8161469  36.4492798   6.7137070  71.2183228
  36.8989677   6.7271514  72.6635132  56.2371559  64.6235275  79.0623550
  56.7701874  63.9423141  79.4723053  55.9430008  64.2343063  78.2388229
  24.0801620  45.6125603  65.9800110  24.6359234  45.3585320  66.7167816
  24.4715500  46.4225159  65.6528702  49.1246376  13.1312189  11.4902773
  48.9418259  12.2716684  11.8697290  48.3837700  13.6743011  11.7593660
  20.0958710  25.4007492  86.5568619  20.6786366  25.9132385  85.9965286
  20.5490532  24.5657501  86.6736298  45.7205963  67.1450729  41.4319077
  45.5067978  66.7704086  40.5774193  45.3578415  68.0303879  41.4027939
  20.9453011  67.6351776  44.1763420  21.0789547  68.2457352  43.4513626
  20.0152206  67.4129486  44.1339531  57.4188538  43.1251144  57.4296265
  56.7219276  43.2343521  56.7826424  57.5491600  44.0016022  57.7915993
  86.7020187  27.3853130  85.6437988  87.1087646  28.1838341  85.3074112
  85.7634735  27.5732288  85.6365738   9.8165455  16.0837803  60.6542511
   9.6971531  16.3498955  61.5659332  10.5411177  16.6244946  60.3398399
  59.6992798  15.8460751   3.7342157  58.9554176  15.5548382   4.2615509
  60.4089241  15.2487860   3.9706166  17.2579117   1.7553917  11.9228792
  16.4814262   2.3089089  12.0060720  17.8214436   2.0226030  12.6490059
  21.5012035  65.4894943  63.1934586  21.1305180  66.3354492  63.4448242
  20.8069458  64.8581619  63.3822937  42.2540321   4.4825068  61.8960419
  43.0318108   3.9751101  61.6640129  41.5246811   3.8769364  61.7635193
   1.8903085  12.7291727  54.8501091   1.9036863  12.8819160  53.9052696
   1.8515934  13.6052380  55.2338333   9.0424852  45.0788383  10.8187380
   9.2721319  44.1550140  10.7185154   9.8812342  45.5389595  10.7868423
   8.4678822  46.8691826  23.0688286   9.1063118  47.0137596  22.3704472
   7.9417319  46.1302910  22.7631569  18.6504803  31.3164482  68.0301666
  17.9737720  31.3601456  67.3546066  19.3045292  30.7142792  67.6754227
  52.4892311  61.7487068   7.7543387  52.4448700  61.3792953   8.6362677
  52.8235435  61.0343475   7.2119780  82.9007950  65.8230362  17.7836857
  83.2687836  66.0621033  16.9330006  83.6278000  65.4133072  18.2525311
  69.2761002  68.1595154  27.2851887  69.8436203  67.3915863  27.2185612
  68.4095306  67.8393860  27.0345764  47.1497536  53.7176933   0.7777495
  46.6149292  54.3730087   0.3296941  47.2269211  53.0005646   0.1484590
   7.5740223  20.5487919  14.2122536   6.8685069  21.0808716  14.5801821
   7.7268033  19.8676300  14.8671656  23.4571304   4.8268242  73.1382141
  24.1295795   5.5073471  73.1077194  23.8354263   4.1407723  73.6881790
  28.1980133  56.8221512  57.1775208  27.4128761  56.8998833  56.6355362
  28.2836857  57.6772575  57.5990486  62.4532051  18.9554691  21.9769020
  63.4065971  18.9958439  22.0520496  62.2968712  18.4335594  21.1898804
  63.9762955   5.3915811   0.1118512  64.4369431   6.1593890   0.4502442
  63.3689613   5.7440491  -0.5386431   8.2609949  52.0344696  76.2205734
   8.8985558  52.7455406  76.1563263   8.2518187  51.8042259  77.1496277
  84.2718582  64.7709885  54.8351097  83.9682159  65.2862396  54.0877457
  83.4791031  64.3614731  55.1816216  15.1640301   3.1647758  59.4178162
  15.8313913   3.6412861  59.9115753  14.4729071   2.9897537  60.0565224
  82.5145950  18.4927063  20.5561676  82.1601105  17.6466808  20.8296890
  81.7502441  18.9896946  20.2646122  55.7221413  30.5465374  62.7541504
  56.5825958  30.8378525  62.4525185  55.3153839  30.1587067  61.9793167
  42.3019142  22.2914200  73.2491226  42.7103882  23.0994892  73.5596161
  43.0197830  21.7966366  72.8540421  37.1045380  27.3537102  11.8000183
  37.8768730  27.6046028  12.3067532  36.4809914  27.0382385  12.4541588
  23.9578686  57.5003929   7.3649883  24.2640800  57.8060074   6.5111337
  24.2296429  58.1852036   7.9760599  55.5258598  38.4968071  11.4915218
  55.4267654  37.9859734  10.6881161  54.9639244  39.2605553  11.3605757
  79.9332275  36.6948624  13.6067257  80.7967682  37.0409431  13.8320274
  79.3242569  37.3904762  13.8547287  84.6679153  69.1084595  71.7526093
  84.8999176  69.9624710  71.3878250  85.3211670  68.5086746  71.3923950
  48.7493248   7.1402087  26.3786907  48.1090240   7.0919623  27.0885639
  48.2219582   7.2509127  25.5875759  86.1044464  64.9019852  25.0223427
  85.7127914  64.1474609  24.5824318  85.9696274  64.7322388  25.9546738
  26.7552986   4.4955120  72.4223022  26.2147350   3.7512136  72.1576385
  27.6081276   4.1116543  72.6261749  18.9477253  43.8248825  85.2543182
  18.3801022  43.0542679  85.2406540  18.3435783  44.5673256  85.2581329
  78.9531403   5.0071387  74.0482254  78.1969070   4.5050015  74.3518677
  78.8885880   5.8416963  74.5125275  35.5872345   4.6221313  29.5352383
  34.9888611   5.3556361  29.3932838  35.7675476   4.6385703  30.4751587
  66.0713577  37.8670998  65.1759338  65.3794861  38.4925308  65.3912964
  66.7668686  38.4017792  64.7930374  14.3684492  58.4007797  35.7340202
  15.0015688  58.8073425  35.1423302  13.5513973  58.3839302  35.2356491
  69.9816360  41.9865837  19.6163559  69.7758255  42.9146500  19.7284660
  70.6491165  41.8075676  20.2786655  81.9212646   2.7669430  39.6808205
  82.6065140   2.2633259  39.2414665  81.8068466   3.5439041  39.1335793
  21.1040916   1.2835143  53.2456703  21.6847878   1.3914592  52.4924316
  20.5598068   0.5284902  53.0222321  35.0047989   7.2452703  87.8202362
  34.1539154   6.8116579  87.7553558  35.3076096   7.0471954  88.7064056
  14.0598984  15.9204159  76.2024231  14.8342438  15.9011307  75.6400681
  13.5215893  15.1915493  75.8938675  54.4455261  14.8662863  18.6496925
  55.0064621  14.2501173  18.1786118  53.6739883  14.9627905  18.0914345
  37.6704369   5.8732834  25.0585995  36.9079819   5.7849398  24.4866791
  37.5865021   6.7488842  25.4361038  48.3439293  23.1736965  72.3311539
  49.2890739  23.1773434  72.4825439  48.0980873  22.2495918  72.3738708
  56.2098351  62.5299873  63.1232376  55.9726982  61.6206169  62.9414558
  56.3426704  62.5580482  64.0707626  68.8821487   9.0787535  23.4614639
  68.6258087   9.8908796  23.8984699  68.7546387   8.3997231  24.1239529
  44.3087044   6.9143777   6.1706610  43.7003365   7.0710101   6.8928709
  43.8089371   6.3884149   5.5462995  11.3665190  41.9538651  83.6066895
  11.0261517  42.7894173  83.9264297  11.8411560  42.1790199  82.8065338
  31.9548187  30.6759109  82.1877670  31.6497707  29.7696857  82.2317276
  31.4538231  31.0627003  81.4696960  13.5128050  67.5200272  74.0567780
  13.0133619  66.7262268  74.2482910  13.3334713  68.1001892  74.7967072
  54.4467316  50.4182434  59.2258377  53.8586769  50.7486534  59.9049950
  54.2625389  50.9656067  58.4624939  56.9961739  48.1279030  46.4320641
  57.2444916  48.6530914  47.1928177  57.1851234  47.2261353  46.6915665
  37.8033524  11.5342674  22.4537716  37.6439476  12.3720112  22.0190220
  38.1156540  11.7729559  23.3265419  63.4053574  44.2174416  58.0621681
  63.0185242  45.0383072  58.3667526  62.6900635  43.7681198  57.6119499
  46.4516106  38.1796303  27.1844215  45.9546509  37.7262230  27.8653660
  47.2446442  38.4814034  27.6274376  86.8620911  60.1388092   5.2095861
  86.3385925  59.3515434   5.0599604  86.6613693  60.3922653   6.1105323
  47.4687347  70.0615311  17.7886658  48.2036133  70.4077454  17.2823772
  47.8425713  69.8604202  18.6465874  80.1513214   0.4194833  33.6046906
  80.0424728  -0.3102139  34.2145500  80.8401413   0.9573051  33.9952126
  58.0477028  61.9196396   3.8868945  57.1366692  61.6406403   3.9785950
  58.0730820  62.3833923   3.0499239   1.3546103   4.8723145  51.4858818
   1.5626272   5.2978430  50.6540871   1.3609200   3.9365849  51.2843857
   5.3921399  15.8306732  84.1922760   4.9769216  16.6519527  83.9289780
   6.3308711  16.0138187  84.1539001  75.0441742  61.5647697  14.3259125
  74.2375641  61.1204033  14.0648432  74.7626343  62.2117081  14.9727793
  16.2572842  63.9057236  36.7024956  16.3195133  64.2084503  35.7965584
  17.1089802  63.5069084  36.8807945   2.8131306  68.2934189  74.7456436
   3.2181540  68.1846848  73.8852005   2.8460660  69.2360916  74.9084702
  31.3514462   5.9104109  81.0678024  31.5226498   5.0105982  81.3457565
  30.4207535   6.0436330  81.2475204  51.4788666  23.4403362  75.2699280
  51.7793808  22.9574795  76.0398407  51.1422768  22.7655563  74.6803436
   9.1924057  67.4150009  88.1199188   9.2382402  67.2098465  87.1860886
   9.5770102  68.2885284  88.1923981  57.5668335  35.4065781  64.6522446
  57.3369408  34.4942398  64.4761276  58.5233078  35.4232826  64.6189499
  62.5874062  55.1093330  75.3045349  62.6953926  54.2442589  74.9092941
  61.9987907  55.5730095  74.7089081  33.7743721  68.3926697  23.2877693
  34.1293640  69.2791519  23.3538208  32.9839134  68.4103851  23.8272972
  84.1175385  16.7918968  11.6253653  83.4160385  16.8208733  10.9747572
  84.1441193  17.6771355  11.9885149  81.8240280  14.9604292  14.7299604
  82.7613983  14.8209181  14.5953674  81.5600204  14.2573395  15.3234205
  67.0542831  44.3908043  35.5871048  67.5256958  43.7024689  36.0563507
  67.5897675  44.5625534  34.8125153   1.1047852  54.5356445  49.0643921
   1.4715652  55.3752670  49.3414078   0.9930554  54.6237030  48.1178207
  23.9239960   7.4741759   8.5416498  23.5604553   8.0783796   7.8943410
  23.1617451   7.0178370   8.8979664  67.5111084  46.0434608   5.2306719
  68.3190384  45.5858612   5.4632349  67.5882416  46.8971558   5.6566873
   5.0523071  11.5059767  81.1894073   4.6649003  12.0279541  80.4867783
   5.2551556  12.1414204  81.8759155  19.8220997  56.7485542  79.0661545
  20.3803825  57.4745255  78.7877350  20.2762146  55.9648323  78.7566605
  15.9025860  54.0209389  87.9263306  16.7546711  54.4281082  87.7701416
  15.2741652  54.7367668  87.8319321   4.8583975   3.1691601  14.3420658
   5.1107473   3.8966811  14.9106302   5.3097363   2.4096408  14.7103806
  45.3688774  15.4192352   5.7545972  44.8453636  14.7179365   6.1423378
  45.8209496  15.0029297   5.0207357  57.3031425  37.6426086  79.4346161
  56.3916245  37.4202499  79.2450790  57.5496635  38.2543640  78.7409210
  12.7335711  23.3193283  20.9223995  13.0516930  22.7887516  20.1919746
  13.2337246  24.1332893  20.8628502  22.7201786  14.0120468  86.9135666
  21.7652874  13.9868727  86.9750443  22.8989067  14.0446663  85.9737701
  62.4745598  15.4610300  85.6894302  63.1028366  14.8354225  86.0501480
  62.7424507  15.5704432  84.7770157  18.1448250  60.2523346  28.8126831
  19.0652885  60.0085716  28.9104614  18.1569138  60.9976044  28.2121372
   1.7456739  24.5795460  30.2537766   2.1633952  24.1298866  29.5192375
   2.3405533  24.4387989  30.9903507  22.5036316  56.3404465  44.5527649
  22.8862114  56.7984314  43.8043556  22.1722507  55.5200157  44.1876373
  85.5967331  60.4377518  27.0239677  86.0590134  61.2746849  27.0694294
  85.5373993  60.2474480  26.0877533  18.0738659   6.1465859  84.6791763
  17.2665424   5.6356144  84.7372055  17.9111633   6.7721486  83.9731827
  66.0932007  55.4183197  37.0311050  65.2411423  55.8487244  36.9605560
  65.8870544  54.4845505  37.0737267   0.3686431  26.8875504  39.9310455
   0.5827409  27.6289883  39.3647766   1.2139318  26.4825764  40.1252518
  44.0263138  10.7002048   4.9750686  43.7245064  11.2919998   5.6642146
  43.2272873  10.2884712   4.6460347  56.9152946  45.7872124  22.1266823
  56.9505424  44.9760742  22.6336765  56.9510956  46.4822006  22.7839050
  62.7165604  38.0484810  67.9817581  63.2705421  38.8279152  67.9391022
  62.9134712  37.5703087  67.1762695   8.0895710  57.4749985  67.3876724
   8.2547121  58.2952042  67.8526688   7.7571821  57.7473106  66.5323410
  82.8980484  48.1728821  72.7321396  82.5258713  47.3234329  72.4951706
  83.4957733  47.9794235  73.4543152  78.4048080   2.0200617  26.6983337
  78.9622955   2.7881653  26.5740223  78.5689850   1.7485825  27.6014252
   6.4806128   8.6566849  55.1769333   6.0498571   7.8021231  55.1568108
   6.0236311   9.1709852  54.5114326  61.6016159  36.4838066  37.8606949
  62.1733818  35.9434738  37.3153915  60.7601242  36.0277100  37.8507347
  67.7777405  55.4670029   5.5180058  67.2596130  55.5909615   6.3132486
  67.9979095  56.3544579   5.2348351  18.8182621  30.2548847  76.0472794
  17.9193935  30.3935413  75.7488785  19.2061081  29.6855392  75.3827057
  21.0831909  43.0446434  28.0223160  20.2403049  43.4479485  28.2299690
  20.8792992  42.3978958  27.3467560  19.8518753  56.7660789  33.5568314
  20.4717293  57.4640770  33.3451500  19.4863033  57.0193253  34.4044495
  33.6026535  51.8900642  45.9427986  33.1174774  51.4498215  45.2449265
  33.6317253  52.8077545  45.6721878  48.8735504   6.3438916  64.3788757
  49.0008202   5.3996081  64.2874298  48.5146790   6.6199841  63.5355377
  31.9971428   1.5748793  15.7043810  31.2727852   0.9542913  15.7844419
  31.5733166   2.4307520  15.6404629  49.9455070  10.6053734  53.2593956
  49.4044456   9.8185511  53.1930923  49.3224792  11.3103027  53.4358711
  75.7149429   2.3754973  72.1163635  76.4285202   1.8140053  72.4192886
  74.9607086   1.7898039  72.0506134  19.8726063  51.0896759  19.8220177
  19.4095192  50.8367805  20.6206589  20.4865322  50.3725204  19.6638470
  72.7928162  55.6547432  41.9759903  72.8985977  55.9439697  42.8822937
  73.3926086  56.2085991  41.4762688  28.7537518   7.3949819  67.6264191
  29.5309849   7.3219805  68.1803284  28.4216232   6.4996691  67.5605621
  78.2106094   0.7939052  56.2515717  78.5911636   1.6707973  56.2018394
  77.3061218   0.9084469  55.9599953   1.2754407  45.3547707  10.0897818
   1.3078148  46.3113480  10.1018200   0.3436133  45.1475258  10.0192137
  56.9855766  36.0062790   4.3471875  56.8490982  35.6355667   5.2190685
  56.1289062  35.9458847   3.9244604  29.5328789  41.1387253  70.0403748
  30.4263630  41.4180641  70.2400970  29.5712643  40.1824608  70.0582352
  15.1386375  27.2716084  37.9757309  14.2213860  27.3837910  37.7261391
  15.6135817  27.8991737  37.4309196   6.5910635  47.5350800   0.3204661
   7.5150485  47.4634895   0.0809697   6.4702249  46.8795967   1.0074652
  75.7042313  26.4705849  31.5492115  76.2325058  27.0977783  31.0554638
  76.0416565  26.5247211  32.4433289  56.9701004  42.9815865  85.5864868
  57.7584076  43.2489777  85.1139297  57.2446442  42.2215958  86.0995865
  20.8247662  15.8852520  65.1392059  20.3774548  16.4420261  64.5019073
  20.6763535  16.3171463  65.9804382  52.4079437  18.3042984  81.7910385
  53.0212517  18.4430389  82.5127258  52.3783646  19.1462479  81.3366394
  66.5155869  22.0511398  67.0203629  65.6825180  21.9610672  67.4830780
  67.0204086  22.6654091  67.5533447  13.9146767  36.9353752  19.5838947
  14.1179295  36.0315781  19.8248749  14.6384335  37.4478531  19.9441357
  53.6425667   1.8921938   3.6257558  54.3072548   1.2935261   3.9663732
  54.1265030   2.6890781   3.4089255  72.7413483  13.6869087  33.0955238
  71.7948990  13.5489149  33.0578766  72.8728256  14.2355890  33.8687592
  67.1674347  14.7209682  37.4329338  67.0745163  14.1848736  36.6454048
  67.4054718  15.5883551  37.1055031  49.0997467  33.3972206  15.1346178
  49.1232643  33.1221237  14.2181025  49.4655075  32.6556015  15.6167498
  76.8401566  67.1415558  66.8234940  76.1172562  67.1996613  67.4482040
  76.8609543  68.0000839  66.4007339  67.0959625   2.6958420  88.2447052
  66.9886398   3.3265734  87.5327377  66.2288055   2.6375647  88.6458054
  35.4626884  69.9267197  13.4703779  34.5328255  69.9800034  13.2495928
  35.5142479  70.2503586  14.3697290  57.5748215  50.0354958  71.2980957
  58.0373459  49.6136093  72.0221939  58.0327377  49.7341537  70.5134048
  30.5402679  32.0654907  80.3483505  29.7286797  32.4193039  80.7121811
  31.0474491  32.8378639  80.0984726  40.3464546   5.8352060  59.3547020
  40.8653564   5.4771051  58.6344681  40.9479713   6.4199696  59.8156395
  60.0044479  44.9753456  77.6957626  59.9672089  45.0809364  76.7451324
  59.5297623  44.1615791  77.8651352   1.4854047  66.7312546  56.3088913
   1.9882342  65.9523239  56.5469284   2.0199606  67.4640808  56.6145935
  44.3558388  63.4216805   9.4211941  45.0616035  63.9095078   8.9967489
  43.7835350  63.1540489   8.7021170  20.2348537   5.2511311  54.6994743
  20.5158081   5.1287236  53.7926598  20.3030815   4.3803267  55.0909767
  14.0348721  34.2778130  49.7431755  14.1387424  34.7472343  48.9154739
  13.8328447  34.9611092  50.3823318  30.2447777   3.3276882  79.1264420
  29.5422592   2.9025409  78.6345596  30.6069450   3.9720800  78.5183105
  48.3066177  48.1681519  27.6469803  48.1635361  47.6020203  26.8885231
  47.5359917  48.7354126  27.6712132  58.1077232  30.4362564  23.9280224
  58.9198647  30.4313812  23.4214325  57.4426575  30.1182842  23.3174362
  67.1806946  37.0080376  60.3083229  67.4674988  37.9208260  60.3364983
  66.2538757  37.0553169  60.0738220  10.4029598  14.5770988   6.1072559
  10.7036524  14.6618376   5.2024713   9.5643473  14.1206694   6.0391936
  30.4616985  14.9803820   8.8758736  30.3387222  14.3437767   9.5800333
  30.8850670  15.7271461   9.2993536  10.2111082  49.9830818  81.1390076
  10.0161581  49.1014404  80.8213043  10.6424599  50.4137039  80.4009476
  25.2967815  35.6407013  11.3301487  25.9517822  35.8505936  10.6644516
  24.7891808  36.4461746  11.4290609  21.3887463  53.7374115  73.6396179
  21.1153278  52.8754272  73.3258362  20.6592636  54.0373497  74.1819458
   9.5843248  42.3577538  70.8661118   8.9443073  42.9138565  71.3103638
   9.4989624  41.5056419  71.2937241   5.2529993  18.8571491  57.7388687
   6.1514816  18.5271721  57.7301064   4.9354634  18.7109795  56.8477821
  13.7084923  14.6068602  80.0837860  14.2156115  14.6151476  80.8955688
  14.0259066  15.3663912  79.5953293  23.8147068  26.2764549  67.2454987
  23.6573257  26.2804470  66.3013382  23.6871433  25.3641815  67.5057220
  86.5761490   3.3899915  85.8849564  86.8122711   4.2728181  85.6001816
  86.3275757   2.9368927  85.0792618  25.0910244   9.1966438  35.1568413
  25.0662651  10.1032648  35.4628754  25.0851669   8.6731186  35.9581642
  54.5768738  14.0270357  63.3280945  53.6929436  14.0507879  62.9615860
  54.4784088  13.5661402  64.1612244  30.5669708  69.5367279  67.2426147
  31.0136700  68.6968689  67.1361618  30.8585091  70.0594482  66.4956207
  83.8141022  59.5056114  52.4853172  84.1378326  60.2892151  52.9296074
  83.5043259  58.9399719  53.1926537  35.2019730  24.5692406  18.4917641
  35.3715286  25.4741077  18.7538681  34.2621880  24.5441132  18.3117714
  17.6623707  48.1364288  11.1554937  17.6751690  48.4798965  10.2621307
  18.4434319  48.5074883  11.5659704  73.2387238  51.7427521  27.5531826
  72.5349655  52.3733559  27.7058144  73.8470459  51.8824348  28.2789001
  12.9689693   5.4239292  59.7388039  13.3673182   5.0859146  60.5408630
  12.4534531   4.6918116  59.4004593  60.9143372  27.1291199  32.4117699
  60.9983559  28.0662460  32.5877419  59.9807777  26.9477711  32.5204353
  80.6311874  24.4366131  59.7117996  80.3925400  24.4935436  60.6370239
  79.8988037  23.9749374  59.3035088  32.0639763  29.7648067  11.4843903
  32.4495316  30.5009346  11.0093145  31.2544365  29.5721016  11.0113773
  15.4286337  58.1222725  83.4554901  15.6009703  58.9528999  83.0121078
  14.5826492  58.2507782  83.8844757  53.6963501  59.3076248  29.9981327
  54.6166992  59.0483513  30.0424995  53.4385948  59.1223717  29.0950966
  50.7016907  49.9206924   2.0000250  51.0549889  49.3959198   2.7183752
  50.2174644  50.6239052   2.4327433  52.0554237  68.4664459   0.5269921
  51.3658981  69.0811615   0.2761783  52.4900131  68.2449341  -0.2965951
  83.8878479   0.1433495  13.7183056  84.6945038   0.3806117  13.2608833
  83.3981247   0.9633787  13.7812366  71.5513763  70.1682129  49.3379936
  71.6860809  69.8828583  48.4343033  70.7525253  70.6945953  49.3063927
   1.2070268  47.1283264  46.3076439   0.6378449  47.4093094  45.5911827
   0.9857203  46.2068100  46.4420471  27.6920509  25.2639236   5.8275304
  27.3855343  26.0991306   5.4743867  27.1063786  25.0856094   6.5633459
  45.1444321  49.1109924  68.8278275  44.9619865  49.0772667  69.7668762
  44.6140556  48.4065857  68.4553375  36.3058205  15.4606695   2.7574837
  36.4148254  14.5268564   2.5776432  35.3824768  15.6337576   2.5738704
  44.0072670  60.5031700  11.1860218  44.0400696  60.4631119  10.2302237
  43.6464615  59.6564713  11.4489899  53.2942238  57.0553513  42.1539497
  54.1236076  57.3889122  41.8117599  53.1434631  57.5617256  42.9521294
  53.0175781  32.1386223  78.6202545  52.2150879  32.6136703  78.8360443
  53.4390030  32.6735001  77.9475403  79.1250687   5.8575320  43.0041046
  79.5101700   6.7333493  42.9745789  79.4252319   5.4918342  43.8362083
  44.6762581  44.9808235  39.8167229  44.6027679  45.2488823  38.9007645
  44.1126366  45.5919876  40.2910995  49.8698769  31.5517368   4.4712152
  49.5711250  32.1362839   3.7745905  49.3328018  31.7867851   5.2278757
  43.7649727  65.5314789  50.0686455  44.0807495  66.3073730  50.5317955
  44.2597008  65.5237656  49.2492485  77.5780792   7.7503366  29.0966301
  77.0888672   8.0171785  29.8748951  77.6705093   6.8017540  29.1853943
  13.5576363  61.2418480  79.1859894  12.7605877  61.2168808  78.6565399
  14.1885939  60.7164955  78.6939240  71.8659363  12.4078350   8.6785889
  72.1342239  12.2596340   9.5853930  72.2984161  13.2252054   8.4314003
  68.1980667  68.6058121  30.6161556  67.5488205  69.2900620  30.4532871
  68.8588638  68.7358475  29.9359570  71.7298431   0.1920922  73.9491806
  71.9345627   0.7076242  74.7292709  71.8358459  -0.7173037  74.2284546
  36.4686203  29.7536144  15.5008698  37.1634483  30.3339329  15.8118010
  36.1444855  29.3228588  16.2918301  40.2633438   1.7575612  30.4679527
  40.4059525   0.8113055  30.4457188  39.3333893   1.8643903  30.2679424
  70.5081100  49.9837914   2.9378507  70.9864273  49.6861343   3.7117026
  69.6244659  50.1656761   3.2577291  16.2279282  10.9244957  26.2714596
  16.7956142  10.7396030  27.0196419  16.8308086  11.0504570  25.5387249
  76.0391159   8.8114958  60.2074280  76.2988815   9.1079664  59.3351555
  75.1328201   8.5220909  60.1019974  33.8354187  32.5522499  11.5776138
  34.2090263  31.6794147  11.6992836  34.3586502  32.9411812  10.8767633
  30.4597054  45.7464180  80.7277451  29.6906910  45.2366982  80.9827652
  30.8380184  45.2592201  79.9957886  70.9968414  57.2858925  21.5460663
  71.2103577  57.9845695  20.9276085  70.6971512  56.5622635  20.9958096
   5.0860014   4.8271027  40.6511574   4.3621063   5.4404988  40.5248528
   5.5254354   5.1351480  41.4437714  19.4235134  19.8242626  18.4284630
  19.2619534  20.3361454  17.6359310  20.3521099  19.9605846  18.6164894
  16.7557087  56.2153816  48.6252327  17.0593834  55.3097458  48.5632591
  16.2981434  56.2576408  49.4649200   3.1200445  20.9863739  26.5331898
   2.4659939  20.3231354  26.3128147   3.1681938  21.5428467  25.7558556
  43.5526924  51.2468872  81.7874603  42.6949348  50.8544540  81.9501877
  44.0741692  50.5364037  81.4139633  56.2950821  12.0937757  85.2491837
  56.6948318  12.9622498  85.2959137  56.5624313  11.6630478  86.0611115
  37.3878021  15.2661037   5.1819744  37.4660263  14.3159084   5.0968814
  37.0811882  15.5589905   4.3238153  72.8987350  57.5198059   4.8120418
  73.8096542  57.6129494   5.0909595  72.4273376  57.2797318   5.6097760
  60.7810478  67.1576767  40.1792259  61.4897194  67.7935104  40.0805893
  60.6222878  67.1203690  41.1224289  74.4765549   1.5549899   4.4739661
  74.5689011   2.4839628   4.2625132  74.2699966   1.1383029   3.6373434
  75.6729736  46.2963295  67.5517197  76.3943863  45.8820763  68.0251999
  76.0990524  46.7947693  66.8544083  68.8739471  39.7365646  67.7950363
  68.8920135  39.0143471  68.4229736  69.4215698  40.4134674  68.1927109
  41.1626358  62.8808403  72.9182968  41.0166588  61.9405403  72.8145828
  40.3006096  63.2736282  72.7809753  84.9012604  41.5725174  33.0913010
  84.3099976  41.6788673  32.3460960  85.3259506  40.7278786  32.9414482
  82.0446243  51.7064934  31.6331711  82.5690689  52.2766609  32.1953964
  81.1931458  51.6589622  32.0678635   7.9666572  50.1052284  45.8971519
   7.0276852  49.9201622  45.8794327   8.0285397  50.9973755  46.2384338
  64.4904175  66.2868042  17.6303921  63.6659508  66.6024399  18.0003376
  64.2585144  65.4677505  17.1926632  69.0316849  36.8113060  80.7702103
  69.8748245  37.2297554  80.9441223  68.8638840  36.9863853  79.8442383
  36.2051239  61.7737198  21.0172443  35.4871941  61.8248596  20.3862171
  36.0928650  60.9219322  21.4392452  58.5639343  25.4513855  79.0618668
  57.8562584  26.0874653  78.9578018  58.1394348  24.6006031  78.9514160
  15.4896288  44.6308174  74.3117065  15.7757454  44.1716843  73.5220413
  14.5344095  44.6396523  74.2507935  49.5479851  52.0727730  40.6201973
  48.8690453  52.7326546  40.7609940  50.3470154  52.5788574  40.4730263
   8.9204378  40.2834969  88.9040756   9.5706186  40.9830170  88.8395233
   8.2872448  40.4805870  88.2138138  85.3303604  61.4089966  87.4250565
  85.5372696  60.4749908  87.4574127  86.1800308  61.8449440  87.4901581
  73.2441559  67.0204544  53.3860435  73.2460251  67.7490234  52.7652283
  73.6172409  66.2875214  52.8963013  48.6624908  14.2344103  60.5213814
  48.1998482  13.4260349  60.7421150  49.2239761  13.9953108  59.7839584
  31.6607685  66.6340714  67.4717712  31.7828770  66.4698105  66.5367050
  32.5186577  66.9290085  67.7771759  44.2186890  65.5659256  24.4085331
  44.1907997  65.2199097  23.5165005  43.8685837  66.4535217  24.3321877
  55.1713600  36.6667328  18.7317028  55.1349602  36.3035431  17.8468304
  54.2905006  37.0075493  18.8871403  15.5299301  12.7354736  14.4386864
  15.5800180  13.1620598  13.5832644  15.1485739  13.3979998  15.0147581
   1.4112637   4.7884769  46.0118675   0.5479822   4.3983464  46.1488914
   1.2349737   5.7200880  45.8805122  46.8351746   4.8154140  22.1767349
  45.9840965   4.4329619  21.9631252  47.1547852   5.1675882  21.3460407
  22.0241356  10.3272085  49.3097801  22.3824253   9.6960249  48.6857071
  21.5850830   9.7895498  49.9688606  56.7602348  48.2169762  51.3240242
  56.5182571  47.8761444  52.1851349  56.1799469  47.7611732  50.7143173
  60.4451675  14.7652111  64.1689224  60.9795036  15.5568352  64.1053238
  60.8218994  14.2803040  64.9032059  66.8798447   8.3954582  47.2589912
  66.7068634   8.3942013  46.3175507  66.1520615   8.8901844  47.6355743
  43.4132423   8.0414362  35.8670006  43.9960556   7.8098454  35.1438599
  43.7487411   7.5449438  36.6134338  70.5664215  70.0485382  46.4407768
  70.0234756  69.2810059  46.6206093  70.6377029  70.0732346  45.4865532
  44.3800354  69.7295151  66.8591232  44.8987122  70.3632965  67.3546295
  44.5341530  68.8951874  67.3022766  80.4048386  16.9461842  31.3183613
  79.7757874  16.9370441  32.0397758  79.9345016  17.3618774  30.5957165
  41.7830505  21.7688885  17.6386929  41.8583488  21.7809448  16.6845360
  42.6827850  21.6658039  17.9486675  79.4324722   8.8769741  42.6989288
  79.5645523   9.7209949  42.2671700  80.2945633   8.4613800  42.6812325
  21.5957413  54.3755760  22.7500801  21.6963768  54.9408073  23.5159912
  21.4800053  53.4977608  23.1137733  64.6857147   5.3600769  43.0085487
  64.4698029   5.3457832  42.0761261  64.2776642   4.5692048  43.3610382
  82.2305527  19.3820400  64.2275696  81.6209030  18.7368660  64.5857697
  82.0741119  19.3610573  63.2834740  70.3465576  45.5464897  10.2343292
  69.5681229  46.0883484  10.1052742  70.0824585  44.6742592   9.9415846
  51.8511353   5.0499296  78.5051727  51.8451157   6.0051904  78.4445801
  52.7484131   4.8014874  78.2829208  23.9903450   4.9102807  22.6336708
  24.3167305   4.9985843  21.7381783  23.1830578   4.4035845  22.5454865
  35.9968529  33.7770958  17.0844936  35.7924004  33.6305656  18.0080528
  35.1526833  33.7085342  16.6385021  40.3236694  13.9820423   5.0335736
  40.5058861  14.3447447   5.9004502  41.1828117  13.7334909   4.6925082
  41.0881348  63.2423935  23.2486153  40.6941261  63.9199409  22.6991444
  40.4189148  63.0466995  23.9044228   4.2341876  31.6977730  85.3494644
   4.0207076  31.1509647  84.5933838   3.4476120  31.6708298  85.8942642
  24.4413166  45.7416840  79.2226868  24.0049095  45.6375008  80.0682220
  23.9162102  46.3954468  78.7610779   8.2522602  63.5543671  51.3638649
   8.0156860  63.2142334  52.2267532   7.7628155  64.3733521  51.2868156
  31.3773289  55.1579552  66.8726196  31.6959305  54.5511169  67.5408020
  30.4627495  54.9088974  66.7394028  73.4823685  43.4161606   4.2744927
  73.8241501  43.4011841   5.1684680  74.0093994  44.0785789   3.8276448
  20.3685989  49.9899559  11.5828419  21.2063389  49.6556473  11.2624311
  20.3786526  49.8015213  12.5212574  21.1124611  55.5162392  20.4271526
  20.4937439  56.2071381  20.6639652  21.3454285  55.1073380  21.2606735
  10.1350203  50.3211632  35.3831291   9.1946363  50.1811867  35.4941101
  10.2493258  50.4439278  34.4407425  32.9567184  66.2441254  27.6955833
  32.3202896  65.8775635  27.0817223  33.7928925  65.8605270  27.4312038
  21.6844254  55.5785103  13.8614779  20.8665600  56.0699158  13.7849989
  21.8875923  55.3106308  12.9652662  53.3755112   9.1760674  68.8274918
  53.6900864   8.3527002  68.4542084  52.7697182   9.5205507  68.1713028
  78.3960114  53.6446648  60.8991508  77.6562195  53.3785057  60.3531685
  79.1677475  53.4568062  60.3649559  83.5413818  43.4631233  85.4305725
  82.9426880  44.1860619  85.6180801  83.1493912  43.0159073  84.6805344
  71.8396835  23.3570957  82.6062088  72.6466370  22.9765167  82.9529190
  71.1395035  22.8922844  83.0643845  23.0144119   1.8298618  -0.2594669
  22.1689873   1.3818833  -0.2878303  23.1062145   2.1107330   0.6509809
  67.8865967   4.6917458  69.3711853  67.8054047   4.9135947  70.2987747
  68.1733551   3.7785158  69.3675461  27.0319557  53.6166229  22.7977409
  27.2965927  52.7900124  22.3941116  26.9847031  53.4218102  23.7337151
  58.8777733  23.9604721  87.7354660  59.7043076  23.7105160  88.1484985
  59.1330681  24.3134689  86.8831406  56.7037468  55.9452286  70.4129410
  56.3010216  55.7330017  71.2549667  55.9780998  55.9268913  69.7889786
   9.3282299   6.7518144  38.9356804   9.4203806   6.0391874  38.3033028
   9.7545052   7.4998431  38.5173798  35.2805176  65.7643051  44.6625862
  35.0242958  64.8429489  44.7035789  36.1840973  65.7759018  44.9782524
   1.6644399  18.9291000  18.2504063   0.8480594  18.7410221  17.7873936
   1.3850825  19.2995930  19.0876198  77.4289398  12.2112579  75.5172119
  77.5069885  13.1144505  75.2099915  76.5225830  11.9705057  75.3253937
  78.3490829  46.0465851  41.2266006  78.9559326  46.7446251  41.4729729
  78.4781952  45.9384766  40.2843285  84.9827805  30.5986900  20.2277641
  85.1379471  30.4873085  21.1657143  84.1947937  31.1398335  20.1779556
  83.5640030  11.8875046  57.8997345  83.2202377  11.0606632  57.5615158
  84.4903641  11.8781481  57.6589088  56.2420158  65.5544357  67.5467148
  55.3330917  65.8542404  67.5610733  56.3841782  65.2638779  66.6458282
  56.9260635  30.9775410  59.0383873  56.3180542  30.2398243  59.0866699
  57.5249672  30.7482033  58.3277855   2.7604995  61.0810585  79.0667877
   3.0680838  61.6913185  78.3965607   1.9546046  60.7132912  78.7041397
  24.8998585   3.6503694  38.6496086  25.0251637   4.2130322  37.8854485
  25.7641621   3.6058068  39.0585403  59.0360260  49.8171959  75.7778091
  59.3021774  50.7353973  75.8257675  59.6714554  49.3547783  76.3242722
  20.1865253  42.5950317  63.4695930  20.6093903  41.9490013  62.9038544
  20.0047703  43.3365479  62.8922272  15.5746813   8.1756611  17.9444504
  14.8053799   7.7211180  17.6012325  15.2217817   8.7947664  18.5835133
  84.8068161  34.7333679  14.2393522  84.1336060  34.7562675  14.9194202
  85.1950378  33.8617821  14.3158903  62.3931694  51.4676743  63.3527145
  62.7149353  50.7039413  62.8737488  63.1129723  52.0972595  63.3110352
  59.3689957  70.1660080  76.1238327  58.4355774  70.0667038  76.3111954
  59.5837173  69.4143143  75.5714951  61.3528137  25.3437843  78.8015060
  60.4176826  25.3619614  79.0050583  61.5523758  26.2342224  78.5124893
  35.0173035  66.5308990   7.0781751  34.7723427  65.6967926   7.4787917
  35.0230560  67.1533203   7.8053513  34.7796440  13.9137754  25.5759602
  34.1661110  13.2472982  25.8851795  34.2240753  14.5866556  25.1825066
  51.4676361  57.9779167  74.7916641  51.6026993  57.8032875  75.7230530
  50.5163612  57.9989929  74.6874161   0.4977829  47.3405075  13.7169876
   1.0514773  46.5856819  13.5172606  -0.3953121  47.0266113  13.5752764
  86.4709930   2.5075967  72.6959076  87.2674866   2.9809718  72.4556198
  86.4675064   1.7393321  72.1249542  19.9746914  10.1862583  86.8694534
  20.4261703   9.7256613  87.5767365  20.2033844  11.1067019  86.9987411
  50.0644684  46.1425552  81.8147430  50.3516693  45.2302322  81.8523483
  49.8950386  46.3781128  82.7268982  62.2641983  27.6946030  66.2069702
  61.8225937  28.5411606  66.2744827  62.5377159  27.6394920  65.2913361
  86.4721603  45.8181305   0.8728236  86.3550797  46.4499588   1.5822726
  85.5828247  45.5499420   0.6417497  69.5263214  39.0741730  57.9067688
  68.6409912  39.3565445  58.1363029  69.4119644  38.1929512  57.5509529
  33.5018768  49.4818077  85.9875946  33.7374344  48.5982094  86.2704468
  34.3282127  49.9648132  85.9977646  79.8453979  43.2831573  15.5078707
  79.3520432  44.0982208  15.6000872  80.4787903  43.4638519  14.8133221
   2.0313170  34.4509392   6.8403172   1.9152359  33.8886833   7.6062326
   2.9227307  34.2692070   6.5426812  83.9446487  10.3407297  47.5522003
  83.4873352  10.7788916  46.8344879  83.8781662  10.9510422  48.2865906
  77.5018616   1.1325958  22.0582523  77.5294113   2.0812294  21.9334850
  76.7113876   0.9820524  22.5766315  35.8579216  59.5269547  15.5502768
  36.3376160  59.9386253  16.2690601  34.9396019  59.7307396  15.7274675
  40.8071289  54.3201065  84.5998688  40.7260742  55.2200012  84.2838745
  41.1961937  53.8430099  83.8669052  21.1802635   8.4408350  51.3313560
  20.9041634   8.5290680  52.2436142  21.8762894   7.7841334  51.3542175
  79.7507553  14.4627953  41.8325806  80.1788177  13.6507645  42.1038780
  78.9177628  14.1799574  41.4552765   1.9999073  44.1583405  16.2811661
   1.7032400  43.5422173  16.9509506   2.9505272  44.0485268  16.2589188
  52.8563347  48.0823097  77.1223145  53.5081635  47.3881531  77.0248718
  52.8173904  48.2436829  78.0650101  82.1519089  65.3365555  62.5218735
  81.6539307  66.1317673  62.7113266  83.0678024  65.6020432  62.6048164
  45.1473503  21.4706821  78.7401276  45.5715637  21.8736973  77.9825974
  44.7111702  22.1973133  79.1850815  41.9926453  41.6959190  17.2216606
  41.6093369  42.5730095  17.2254467  41.8698387  41.3770027  18.1157780
  31.0603104  28.1722584   2.4897354  30.6800041  27.9861145   3.3481927
  31.2232685  27.3097954   2.1078541  18.6442299   2.7212319  69.5380554
  19.4735050   3.0061121  69.1541595  18.2029400   2.2493198  68.8318024
   6.5211902  58.5470886  43.3660049   7.0093045  58.8983574  42.6212997
   7.1937895  58.3240585  44.0095100  62.8551788  67.8719940  13.0285845
  62.4027023  67.0376892  13.1528263  63.2414131  68.0645523  13.8829708
  14.0495892  69.4369125  78.8989563  13.9552698  68.7014847  79.5043335
  13.5286999  70.1379318  79.2907104  47.5447197  34.8114128  19.3946533
  47.1362190  34.5353470  18.5741959  46.8570366  35.2930069  19.8544273
  36.4783363  55.6119080  19.3722401  35.7812767  56.1440773  19.7558289
  37.0134544  56.2357025  18.8815689  83.5683975  45.6032257  41.4417114
  84.1436081  44.9573631  41.8518715  83.7416763  45.5171852  40.5042648
  56.5197105  50.5349236   1.4570302  57.3215828  50.8380013   1.8829191
  56.1170006  51.3310928   1.1103691  43.6269226  13.1378403  50.0060425
  43.9281960  12.7004061  50.8023605  42.9063683  13.6964340  50.2975998
   7.9286785  56.1454849  20.8585453   7.0185218  55.8510017  20.8920841
   8.3859282  55.5818710  21.4826393  15.4422483   9.0227470   1.3686857
  15.9769535   9.2851372   0.6193702  15.9775715   9.2386637   2.1322565
  29.7954826  49.6335983  65.2247772  30.6627827  50.0250359  65.1208496
  29.8985901  48.7357330  64.9094467  40.6911278   1.4972684  16.9030609
  40.6917915   0.5448785  16.8072243  41.3232117   1.6681722  17.6012669
  13.3299875  49.8847542  32.1888084  13.8250856  49.2954636  32.7578850
  13.5228853  49.5797234  31.3022556  21.0272198  49.1596642   3.5754695
  20.1061211  49.3587875   3.4076555  21.5022564  49.6261292   2.8877327
  61.6870079  43.6102295  27.1218834  62.3412361  44.1108055  27.6093693
  62.1311340  42.7934151  26.8942966  74.7117386  52.8670120  29.6667805
  75.6449203  52.8208275  29.8748188  74.2763596  52.8737717  30.5192089
  31.2458954  61.8995361  59.2073936  31.4519100  62.4262886  58.4351730
  30.3106689  62.0428085  59.3525047  77.1363525   3.2311385   2.1914160
  77.4951935   2.5426657   2.7513041  76.8926926   3.9303975   2.7979593
  76.6709366  46.2642403  16.1451759  76.3380508  46.8181839  16.8512669
  76.4781799  45.3710632  16.4303246  34.8085556  60.5349579  44.3336601
  34.2413330  60.1912804  45.0238571  35.5729904  59.9589462  44.3429108
  68.5724030  62.4379692  10.9777365  68.6443176  62.8059845  11.8584328
  68.3818283  63.1909523  10.4183331  40.0169334  53.1434250  80.3226547
  40.0902405  53.1237373  79.3684692  39.2157211  52.6549110  80.5114441
  78.2658997   6.5016446  52.2759552  77.7748032   6.3631411  51.4660950
  78.6970215   7.3473630  52.1529732   6.9869800  28.1957321  88.7157364
   6.4638081  28.9235344  89.0516357   6.4026341  27.4390469  88.7626114
  69.9593277  27.1364555  18.5290432  69.2947311  27.8032284  18.3559437
  70.5656586  27.5555229  19.1397572  76.9327545  55.8171463  72.5862961
  76.6636047  56.5650024  72.0529099  76.2792587  55.7732391  73.2843170
  34.1223488  34.0261002  13.8440685  33.9682808  33.4778709  13.0746937
  35.0590286  33.9354019  14.0191050  83.6824875  35.2636681  21.8113956
  83.7492371  35.1158257  20.8680401  83.2255859  34.4907799  22.1432247
  56.2901726  50.6035042  16.0642834  55.8424225  50.8792763  16.8640938
  55.9798126  51.2122803  15.3939857  13.7151699  55.1930542  86.5948257
  14.1061850  55.0797501  85.7285080  13.6212587  56.1405487  86.6931534
  35.9450073  11.5107174  88.8206482  36.4192734  10.9371223  89.4225540
  35.7855949  10.9681711  88.0483398  64.0342407  57.4681358  60.0678673
  63.4891548  56.9185638  60.6309700  63.7881317  58.3642960  60.2971191
  67.8255463  63.7280045   5.6897678  68.6030350  63.5938530   6.2317519
  67.9725342  63.1785202   4.9199014   3.9854472  55.2032166  66.9922180
   4.4299560  54.6871719  67.6647797   3.2674205  54.6435623  66.6964874
  40.7223129  71.0374832  24.7953758  40.5981979  71.9577713  25.0275307
  41.4927750  71.0355606  24.2273808   7.1595159  39.2397995  63.2792206
   6.4541278  39.6087074  63.8107910   7.7273307  39.9852753  63.0840645
  82.8084183  15.8634109  43.0717392  83.6202164  16.0326309  42.5936356
  82.6556320  14.9251442  42.9597435  59.7082672  71.7322998  81.5832214
  60.0309563  71.5699005  80.6968079  59.3871574  70.8811188  81.8809052
  65.7681961  68.0732727  86.6381378  64.9444809  67.8213501  87.0555801
  66.0451584  67.2899857  86.1627579  20.1140251  63.2430229  17.4544315
  20.3085270  62.5660019  16.8063240  20.7077217  63.9613686  17.2359486
  53.4171219   6.9171300  67.1149521  52.6635132   6.8473577  67.7009964
  53.0503235   6.8019309  66.2383575  61.3387985   4.9938073  56.5327644
  62.0668869   4.3973236  56.7069168  61.4272423   5.6794171  57.1948433
  73.9105377  43.5668793  14.6211157  73.5112534  43.8104515  15.4562645
  74.5970459  42.9428749  14.8568172  69.0506058  36.9337463  62.9427605
  68.4306107  37.5372429  62.5333366  69.1616516  37.2709885  63.8316727
  55.9756126  39.0993042  23.7368946  55.8718796  39.5735092  24.5618782
  55.6827011  38.2095108  23.9336281  19.4534397  57.9904900   3.4759471
  19.5359936  57.5872421   2.6117663  18.8465271  58.7187309   3.3434489
  52.2387886  49.3866425   4.3847041  52.5838966  48.8853760   5.1235275
  52.9780464  49.4640427   3.7815981  78.1918030  10.3578386  79.5424805
  78.1955566  11.0080509  78.8400269  78.2143326  10.8749743  80.3476486
  44.9804993  13.6856623  21.5921001  44.6197281  13.2866364  20.8003578
  45.7794495  13.1887274  21.7680588  72.4457321  18.6345081  45.9447899
  73.2269135  19.0308743  46.3306351  71.7997971  18.6415291  46.6511536
  59.1653023  27.6151352  38.1077614  58.7975044  27.0746059  38.8068924
  59.0116577  28.5152302  38.3949165  10.1135006  11.1826353  14.3575964
  10.1412296  12.1203556  14.5477142  11.0000525  10.9712400  14.0650740
  72.2123260  23.9213581  23.4681187  71.4751205  23.7568340  24.0560760
  72.2089386  23.1774406  22.8657818  26.3374958  64.4859619  53.6691971
  26.1043110  65.3718872  53.3917160  25.5436840  63.9719276  53.5213318
  43.1816101  59.6949806  26.8153095  42.8486557  60.0610352  25.9959335
  43.7861137  60.3592796  27.1462421  24.7868843  64.8977737  47.4234390
  24.0515366  64.9758377  48.0312233  25.0527077  63.9803314  47.4856796
  41.9554977  53.4220428  62.3469009  41.9321060  53.8280525  61.4803886
  42.8670883  53.5064163  62.6264038  66.7903824   8.8033276  21.3861504
  67.6622009   8.5501070  21.6895313  66.1924286   8.2439137  21.8818722
  76.7265549   5.1589451  80.1909256  77.1247253   4.3095288  80.3811417
  76.1356659   5.3167629  80.9272461   3.4677835  51.1446571  14.5966759
   4.3584528  51.4705925  14.7259254   3.5444779  50.1950264  14.6891327
  20.3812008  64.9358444  30.4263935  21.1993217  64.6904755  30.8584900
  20.3538895  65.8905563  30.4896641  19.9278965  20.1447277   7.4425049
  20.6550751  19.9849205   6.8409195  19.1434517  20.0245609   6.9073071
  17.4063320  36.2047424  84.7051392  18.2128315  35.9749565  84.2436295
  16.7126160  35.7784996  84.2018433  74.4674301  22.2711868  80.0305252
  73.6903687  21.7155209  79.9701843  75.1439438  21.6984730  80.3918533
  24.3211384  16.9597225  76.6961212  23.7011642  16.2887211  76.9818115
  24.8111362  17.1853237  77.4868393  72.9012527   0.7132861  84.9087601
  73.5479202   1.4077847  84.7833405  73.1338806   0.3183177  85.7490692
  73.1291656  15.4299965  19.4147320  72.3907547  15.6653481  18.8529568
  72.7665634  15.4327259  20.3005886  72.2705765  50.4774170   7.4100404
  73.1342697  50.2825928   7.0462956  72.3135757  51.4040527   7.6461082
  21.0610313  54.5022354  86.3510971  21.2577381  53.5666542  86.3038940
  21.0660267  54.7943153  85.4395599  74.3501663  18.0825100  15.2439222
  74.9613647  18.6231499  14.7435417  73.6138535  17.9403019  14.6490669
  18.1844311  38.2271843   7.6580343  18.7080421  39.0279922   7.6302123
  17.6645603  38.3085976   8.4576206  70.3747711  14.5749989  55.5102692
  70.2804337  14.9342718  56.3924561  70.9642105  15.1840019  55.0654030
   3.6293628  28.9786472  21.3008022   2.9046695  29.5926685  21.4192429
   3.5834825  28.4037590  22.0647602  32.0627594   2.2191005  41.1469078
  32.9701157   1.9170250  41.1058197  32.0477638   3.0069203  40.6034508
  33.2473030  70.1105881   9.5133295  33.4588203  70.7425079   8.8261843
  33.9116325  69.4273834   9.4231720  81.8204346  41.3979988  46.8103447
  82.6540375  41.1947975  47.2346687  81.8613205  40.9404030  45.9706001
  79.2319260   3.3974440  57.3802719  80.0708618   3.5067625  57.8280182
  78.7204819   2.8365920  57.9634514  25.2815933  60.6503983   3.1121747
  24.6165371  61.3160248   3.2878823  25.4597893  60.7313499   2.1751978
   5.1691203  34.4539642  12.8836727   5.4863968  34.3476181  13.7804775
   5.1878452  35.3991203  12.7334862   7.2419596  69.6515808   6.9523768
   7.4971719  68.7290573   6.9456096   6.7624946  69.7734604   6.1329322
  46.9008331  52.6970177  71.2841187  46.5811424  53.4295044  71.8108902
  47.7062912  53.0238304  70.8832855  60.4619293   3.0690861  14.5716867
  60.5401535   3.6104808  15.3571825  60.7576408   2.2017164  14.8481951
  65.6864777  40.0667343  18.9309654  66.0824432  39.2121773  19.1017628
  65.0719376  39.9071007  18.2146587  69.8084946  41.9559212   6.6699233
  69.6816330  41.2018929   6.0940962  69.0029984  42.4649773   6.5789237
  27.0848083  71.6492996  11.8760033  26.3775196  71.0396194  11.6656151
  27.1572838  72.2082367  11.1023283  59.6157990  36.2440643  41.9388580
  59.2168083  37.1055031  42.0611916  59.1883774  35.8907585  41.1586533
   0.3726690  24.2569294  43.0529327   0.6894259  23.5076580  42.5484619
   1.1276205  24.5317211  43.5732880  14.1991329   6.9835701  66.2976074
  13.6620178   6.6964736  67.0360641  13.9202623   7.8846250  66.1346207
  63.8684082  15.2352867  18.7010651  64.2537537  14.8511648  19.4885883
  64.6082382  15.3525610  18.1051407   1.6414735  32.7988319  51.0105247
   1.0769017  32.7674751  51.7828636   1.2166710  32.2177391  50.3795662
  50.6249275  44.8769379  62.7609596  50.5873680  45.0164680  61.8147278
  50.0275307  44.1459656  62.9191742  10.3505154  38.4661903  74.4140854
  10.7608395  37.9521599  73.7186432  10.0867405  39.2807159  73.9860687
  73.0630417  40.1941185  15.0725040  73.9206085  40.6080666  15.1698027
  72.4476471  40.9258614  15.0270557  64.4758148  27.4042988  22.7456951
  65.2313156  27.8458996  23.1335621  64.8417740  26.6227360  22.3316154
  85.5935440  27.4560833   3.9182429  84.7004166  27.7307186   3.7105911
  85.9753647  27.2231293   3.0719686  39.8670921  69.0779800  60.0606575
  39.9158058  69.1883392  59.1110878  39.7246094  68.1397476  60.1857414
   2.2262199   1.6392174   1.6591104   2.5202057   2.3816044   2.1869981
   2.0100832   2.0209444   0.8083452  40.0935593  29.7713509   6.8223834
  39.2323914  29.7286758   7.2380795  40.4967957  28.9258919   7.0194368
  82.1700363  19.5883598  56.7714005  81.8571625  18.8880501  56.1987648
  83.0684967  19.3381767  56.9868355  81.5024109  53.4665756  83.2511826
  80.8164062  53.3632736  83.9106979  81.7077179  52.5727310  82.9770966
  74.3583221  56.8087730  62.0348854  74.5166702  56.8052940  61.0908813
  73.5745544  57.3472557  62.1442909  73.7540207  15.2006903  65.3268433
  74.0527344  14.3659563  64.9659882  74.4724960  15.4891129  65.8897324
  70.7673874  55.6716919   5.5855422  71.5384674  55.2279663   5.9387803
  70.0890961  55.5364342   6.2472486   6.7870116  21.3489208  73.8485870
   6.6038976  21.5860901  72.9394913   6.0532360  20.7891788  74.1025391
  60.0159073  14.6264477  84.8085938  59.9548950  14.8965893  83.8923340
  60.7656784  15.1123075  85.1521225  77.0915833   9.0383224  48.1275711
  76.7819977   9.9055481  48.3889275  78.0459747   9.1097078  48.1440315
  83.3909607   9.5558538   4.0901718  83.8618240   9.0741940   3.4100790
  83.8328552   9.3144073   4.9042153  85.1093216  46.0073242  59.5093689
  85.3020401  45.1974983  59.0368500  85.6385117  46.6728592  59.0697670
  81.7206802  44.5090561  27.8447475  81.2771606  45.3398514  28.0159340
  81.9246521  44.1629715  28.7135715  72.6944733  25.8322315  77.3987122
  73.5034866  25.5010967  77.0087357  72.3651733  26.4681053  76.7635269
  57.4586525  58.3493576  43.5956726  57.1565895  58.9056778  42.8776932
  56.7123718  58.3033714  44.1933212  29.2635689   1.5261844  40.5612144
  30.1673088   1.8201921  40.6754417  29.3422775   0.6184968  40.2677193
  11.7498531  30.1627274   5.4184394  11.8680305  29.2316208   5.2305408
  10.8006535  30.2820473   5.4502997  83.6009979  50.2176819  22.6900654
  82.9882278  50.2674713  21.9563999  83.0556564  49.9880066  23.4424477
  83.0574570  26.5632954  45.1023598  82.5988464  26.0545540  45.7710114
  83.8537369  26.0626678  44.9247360   4.0043144  34.6418381  76.8901520
   3.1565502  34.7628021  77.3178101   3.8305500  34.0166664  76.1864471
   6.5858850  10.8746901  36.5853004   6.6823907  11.4695272  37.3289986
   6.8595901  11.3919210  35.8278084  68.0218811  68.8183746  55.3266029
  68.0816422  69.7615509  55.4785385  68.6729355  68.6435165  54.6470528
  26.9566650  31.5133343   4.6983175  26.0781918  31.3312550   4.3646026
  26.9197025  31.2602329   5.6207089  12.7137880  42.4856987  53.6779213
  12.2623234  42.8534203  54.4376526  13.5886707  42.2696495  54.0006218
  69.5105667  68.0398254  18.2383556  69.5677261  67.1184082  17.9854412
  70.0307007  68.1009827  19.0395756   7.2478671  43.7627563  22.6361809
   6.7868910  43.1432495  23.2018185   8.0703506  43.3234215  22.4199905
  53.2988968  18.0516472  49.1596527  53.6520081  18.9339180  49.0450058
  52.4447136  18.0776329  48.7284698  32.9938812  19.3020382   5.8290915
  32.1320648  18.8990211   5.7238245  33.5636024  18.8061981   5.2410483
  73.1087799  25.9787960  52.4114532  72.7550125  25.5376854  53.1837883
  74.0135574  26.1845417  52.6465569  62.7695465  71.0398712  11.0010014
  62.3558884  71.0479660  11.8641663  62.6625557  70.1400681  10.6925554
  67.4592133   7.9797854  36.9890060  66.6882477   8.2910652  37.4632988
  67.8543091   8.7730436  36.6272392  83.8208237  45.1794815  38.6648483
  82.9042206  44.9142532  38.5891609  84.0372162  45.5412674  37.8054810
  65.4005661  37.5454102   9.4945450  64.5986786  37.0238152   9.5283890
  65.1675720  38.3088684   8.9662685  63.0517273  64.8596039  71.0735168
  62.2866249  65.3295593  71.4051666  63.7855873  65.2104340  71.5780869
  45.3596268  34.1124725  67.5859451  44.7486000  34.5254440  66.9757538
  45.3205338  33.1807213  67.3702011  35.5107079  11.2654390  43.7052345
  35.2342644  11.2451162  42.7890472  36.1910172  11.9381275  43.7352753
  26.7802849  15.4081373  75.2091217  25.9248829  15.5835238  74.8170090
  27.1023540  16.2690315  75.4762650  34.5360069  24.8509502   0.5381439
  35.1271095  25.4541206   0.9887192  34.0755539  25.3976746  -0.0984923
  33.0243797  41.3020439  78.7389374  33.7945633  40.7346306  78.7058716
  33.2719154  42.0072289  79.3369980  67.0168076  35.5032425  87.1314850
  67.8962936  35.8649483  87.0223923  66.4944839  35.9356995  86.4559250
  34.4250984  58.6643639  37.3202667  35.0826035  59.2534447  36.9502640
  33.7946014  59.2458344  37.7452354  30.2348537  10.8336315  64.7733383
  29.5196743  10.3618507  65.2001572  29.7981339  11.4839802  64.2232895
  13.7889318  58.1670723  23.6136627  12.9857779  57.6474762  23.6481953
  13.6502590  58.7743454  22.8868752   7.9666581   3.5029697  89.0347519
   7.7806697   4.4151368  88.8120651   8.1846142   3.0918589  88.1982651
  79.4919052  56.8973503   8.5397167  79.3682480  57.2216225   9.4317865
  80.4418335  56.8554993   8.4296093  33.0189247  41.5437469  84.1094284
  33.3661804  42.3789139  84.4226990  32.2462044  41.7825623  83.5974655
  63.9748268  31.8252640  46.5691414  63.8245735  31.1998615  47.2780342
  64.7476807  31.4905682  46.1142654  38.1961632   4.6324449  34.0110168
  38.3259315   5.4980502  34.3984680  38.4718361   4.0207019  34.6936607
  32.7902832  26.2164173  88.0257111  31.9817429  26.7055035  88.1783295
  32.4975815  25.3660908  87.6978378  40.0661087  44.1739960  18.2343597
  39.9466400  44.9904289  17.7491837  40.5867157  44.4231606  18.9979820
  78.0224915  58.5056725  82.4532547  77.0835037  58.6748848  82.5300674
  78.2485886  58.0399742  83.2583923  67.0895996  48.7180901  52.1922646
  66.1528397  48.5283585  52.1401291  67.1943359  49.1808739  53.0235863
  64.7964401  68.0642624  71.9161377  64.3028793  68.8392944  71.6479034
  64.1612320  67.5282822  72.3909760  -0.1823183  55.8642998  13.8404226
   0.3429635  56.6637344  13.8055353  -0.0945415  55.4817467  12.9673929
  33.0287247  62.3330040  76.5881348  33.3157387  61.8890953  75.7901382
  32.9057770  61.6277466  77.2235336  76.6857147  28.8413277  67.0871658
  76.7145538  27.9112206  66.8628845  77.3770447  28.9518528  67.7399139
   1.1186533  29.0435276  57.2726746   1.6930108  28.4316540  57.7330627
   0.2497100  28.6463032  57.3308258  80.1151199  33.1215935  41.8602943
  80.5857925  33.8449936  42.2742882  79.2589340  33.1168175  42.2882614
  57.5837631  44.8457336  19.4908581  56.6796303  44.5908852  19.3069286
  57.5314178  45.3411293  20.3082180  74.5035782   2.0810349  18.5679607
  74.4308701   2.2891128  17.6364841  74.5989151   2.9315515  18.9966373
  52.5870552  55.3341141  86.6828995  52.2791977  55.2157059  85.7843246
  52.7656593  54.4466019  86.9937973  14.2919626  25.6213264  11.7870770
  13.5876045  25.6554527  11.1398153  15.0503159  25.9918232  11.3355627
  65.3145981  30.4620190  76.7219238  65.4369278  29.5638294  77.0293655
  66.0325241  30.9521942  77.1226044  33.0541611  32.4669228   7.0695081
  32.6768913  31.6879635   7.4783134  33.5689926  32.1276474   6.3373408
  25.0900574  56.3008347   2.3847594  25.2124348  55.9953041   1.4859232
  25.4927979  57.1690598   2.3995323  83.7431030  63.5467300   4.0074072
  83.6506577  62.5965500   4.0770164  84.6273117  63.6768799   3.6646893
   0.1958656  32.7208939  83.1426468  -0.2605920  33.3546486  82.5892563
   0.7508996  33.2550468  83.7108459  68.6472626  38.3524590  46.3342247
  69.3367767  38.7157516  46.8899422  68.4069595  39.0714493  45.7498093
  83.7620468  58.7649040   6.5997977  84.3311234  58.2300797   6.0463123
  84.2875748  58.9463768   7.3789811  35.1946678  48.3606186  68.9133301
  35.9800377  48.2321663  69.4452362  35.4693222  48.1396294  68.0234146
  54.8473282  51.3097496  24.0685997  55.6473007  50.8564301  23.8025665
  54.6556168  50.9652939  24.9408550   3.0074921  68.8527679  35.9193344
   2.1432421  68.4696350  36.0693932   3.0939491  69.5220184  36.5981979
   2.1305046  16.1273918   8.4915972   2.3180549  15.6689253   7.6725345
   2.0683208  17.0491905   8.2412920  55.0482483  36.5960197  13.6618996
  54.9419823  35.7517014  13.2236481  55.4243050  37.1676598  12.9925394
  10.1224928  61.7091217  72.6530457  10.4728994  62.3917580  73.2252884
  10.8384447  61.0799942  72.5644989  16.8753147  22.3986664   6.2510753
  16.2551823  23.0318413   5.8894734  17.4342270  22.9154224   6.8314323
  15.5133896  46.4907646  14.3195314  15.4365273  47.4448395  14.3274012
  15.0490503  46.2195892  13.5276432  53.7190819  66.5758362  19.3451633
  52.9771805  67.1534500  19.1657906  54.0314941  66.8481445  20.2079964
  55.2235374  55.4620476  13.1168814  54.8513565  54.6739273  12.7211866
  55.2526817  56.0980453  12.4021149  25.4285126   6.3308697  60.2880898
  25.9848213   5.7175627  59.8078728  25.9073429   6.5044312  61.0985413
  75.0036621  71.1433029  52.0818443  74.2430191  71.7148209  51.9768524
  74.7720566  70.3463058  51.6049957  73.6071091  13.1980934  58.4342690
  73.6183853  14.1414051  58.5963402  74.3173981  12.8535614  58.9755859
  22.4094086  22.6447258  14.9101219  23.1585941  22.9946175  15.3923359
  21.8814697  22.2031307  15.5753326  29.5991917  55.5227509  41.6469154
  29.4225883  56.4026642  41.9797745  29.9154720  55.6632805  40.7544746
  68.0082779   3.4416173  10.1474600  68.3809280   3.0617261   9.3518171
  68.3226700   2.8761101  10.8528624   4.7265525  19.4749527  73.6378174
   4.1737165  19.4467087  74.4187164   4.1112247  19.5822334  72.9124908
  50.2198067   1.6097333  85.1553192  50.3143997   0.6625416  85.2558746
  49.4979210   1.8417057  85.7395325  83.4797363  11.0572672  77.2070465
  84.1841888  10.8426075  77.8185196  83.0538864  10.2188387  77.0283813
  39.5256500   6.2123933  45.8453026  38.9954491   6.5233884  46.5790596
  40.4268570   6.4099107  46.1003342  76.1096039  42.7151909  68.1844101
  76.2264328  43.0226479  67.2854919  76.8320312  43.1137543  68.6696701
  10.6893644  57.0291290   3.5484152  11.4507360  57.3327179   4.0427623
  10.4023075  57.7974396   3.0549288  78.1530457  19.3246384  52.9890594
  77.6603546  18.7916107  52.3650665  78.3377228  18.7315216  53.7173042
  73.4090195   3.4201963  62.1069794  73.3674698   3.6813328  63.0269318
  72.4941177   3.3125217  61.8470078  82.4987488   2.5931013  13.3691187
  83.0333710   3.2939115  13.7423143  81.9815521   3.0231688  12.6880999
  64.1213074  15.4710941  33.5804253  65.0783615  15.4857798  33.5884171
  63.8910789  15.3663063  32.6572533  46.5427780  16.0798111  25.9132900
  46.5792694  15.2010880  25.5354748  46.4896164  15.9324942  26.8575916
  43.2873230  69.5689316   2.0551045  43.5004387  70.4023743   1.6353581
  42.4850655  69.7463150   2.5461781  57.5958214  50.1303253  48.2405663
  57.8521957  50.8497505  47.6635628  57.1149483  50.5534897  48.9518509
  28.6562157  59.4371758  20.0663853  28.0810223  58.9885483  19.4466114
  29.1468506  60.0600090  19.5301113  73.9236145  29.5045109  61.9359360
  73.2358551  29.1618252  61.3651619  73.5613480  29.4300728  62.8188057
  80.5466690  46.8170929  23.9281120  80.5749512  47.6579247  23.4715614
  81.4655991  46.5706367  24.0332928  35.7870483   1.2716796  80.0916443
  36.6014023   0.7867260  79.9579239  35.9229507   1.7465661  80.9115448
  71.3145981  70.5837784   2.8385780  70.6094131  70.2259293   2.2992296
  71.8689270  71.0617599   2.2217467  81.5595627  66.0608749  57.6629524
  81.8647690  65.1623383  57.7883110  82.3607178  66.5724182  57.5502167
  68.4911423  32.9213638  52.8729401  68.7560577  33.1440926  51.9805069
  67.8530655  32.2161560  52.7644234  72.5213699  54.3127632  46.3416405
  71.8000488  53.7702179  46.0229492  72.8664932  53.8338737  47.0951576
  14.5224390  43.4005203  77.0441818  15.0603533  43.4578133  76.2545013
  13.9031563  44.1261253  76.9653015  67.0610657  65.5972824  54.4832497
  66.5013123  65.6397400  55.2585602  66.5185471  65.1719818  53.8191528
   2.3174529  19.5067158  57.3133278   2.7049124  19.2343197  56.4815178
   3.0668354  19.7363052  57.8628235  37.7430611  49.8658295  17.7321491
  37.1777725  49.0987358  17.8229465  37.4359741  50.4709091  18.4072857
   7.9855595  23.2934723  66.3434448   8.7628441  23.8293686  66.5011673
   7.2994194  23.9246845  66.1266174  69.0185928  28.1389179  42.3808250
  69.9644012  28.2317562  42.4950790  68.7858047  28.8189507  41.7486839
  44.3159561  29.6124401   1.4298168  44.3404007  28.6631126   1.3097655
  43.5164986  29.8899212   0.9824895  22.9784260  54.3385773  70.3161774
  22.2619610  54.9567642  70.1720963  23.1360836  54.3703613  71.2597656
  51.6076050  52.6485634   1.6272413  52.3051033  52.0173416   1.4503558
  51.0009003  52.5468597   0.8938951  80.6112518  36.4490128  48.4957581
  80.2014618  37.3109894  48.5685577  80.1929703  35.9264030  49.1799736
  66.4909439   1.1987046  30.3868523  65.6901321   1.6079870  30.0590973
  66.2432785   0.2897868  30.5564499  21.0918961  49.5798569  37.7736244
  20.4086266  49.7958870  38.4082184  20.9760094  50.2185478  37.0701523
  50.9984665  62.8334618  76.2048111  51.3288307  62.4493790  77.0169525
  51.0773392  62.1317520  75.5585785  48.8563080  57.5456886  86.7225266
  49.1168022  58.4453697  86.5251846  48.0005417  57.4471016  86.3051834
   1.3275441  52.0489731  86.5728531   1.0109025  52.2416344  87.4553833
   2.2450466  52.3215942  86.5827560  82.2056732  37.3419456  22.3711834
  82.6906357  36.5442352  22.1597652  82.5089951  37.9838905  21.7292042
  64.3195343  27.2876015  54.5352707  64.0039978  27.2671070  55.4387321
  65.2402725  27.0333672  54.5973167  68.1629486   0.1976774   1.6277195
  68.5705185   0.2686145   0.7645334  67.2580032   0.4770545   1.4889922
  12.2416105  49.6347466  11.8943624  11.6960268  50.4121971  12.0132818
  13.1232204  49.9800415  11.7537680  44.2428970  17.9972553  10.5384312
  43.9402428  18.6438713  11.1760216  43.4764061  17.4488373  10.3712006
  51.5538177  24.3707714  16.5291367  51.8421135  24.8584194  17.3007050
  50.7209930  23.9783840  16.7911797  20.1870689  49.7070198  67.1416397
  20.1730652  50.1015472  66.2696381  21.1171322  49.6258278  67.3528824
  87.0644684  25.0022469  57.3493156  86.6321487  24.3449421  56.8040810
  86.5167923  25.0619526  58.1320763  41.9293442  53.5061874   8.9842329
  41.3612633  53.0735016   8.3468208  41.3285675  53.8538094   9.6433678
  72.8782501  45.4127808  11.7931271  71.9779587  45.5164604  11.4849749
  73.3015747  44.8789902  11.1207447   2.9883082  60.1529694  81.5376205
   2.9356184  60.5647202  80.6751175   2.3937576  60.6661873  82.0847549
  10.8443365  57.6353951  14.7261171  10.4794407  57.7070770  13.8441048
  11.4356995  58.3842087  14.8022518   0.7059945  50.3128166  22.0363979
   0.2810550  49.4553604  22.0571346   0.6966867  50.5624542  21.1123695
  39.2083931  11.6028805  12.9638166  38.9182777  12.2270203  13.6290331
  38.4142227  11.1284599  12.7179461  40.1891441   1.7430984   2.8702254
  39.4786682   1.5138835   3.4693213  39.7509537   1.9337988   2.0408549
  66.1076965  59.8258705  56.6442642  67.0501862  59.6626663  56.6081772
  66.0182724  60.7580338  56.4460068  66.3251114  20.5662270  48.6970825
  66.8331375  20.4066505  49.4924927  66.6058731  21.4329185  48.4034042
   7.9630880  47.7141495  66.8839111   8.2156477  48.6359367  66.8314133
   8.7069578  47.2404289  66.5117874  66.5518799  65.8122559  49.7253265
  66.8657150  64.9079971  49.7175446  65.5978470  65.7346268  49.7307892
  53.1728592   5.6436887  31.0534382  52.5361366   6.2290368  31.4635391
  53.4466896   5.0563331  31.7578983  36.7521439  39.9149399  16.7650661
  36.4056816  40.5976753  16.1905537  36.4279976  39.0971413  16.3877449
   1.3238423  32.8866310  12.2788172   0.8444207  32.1236038  12.6015854
   2.2164195  32.5687485  12.1428375  21.0662155  59.7403870  28.8156834
  21.0763950  59.0127487  29.4375134  21.9833832  60.0036697  28.7400684
  30.3141556   1.0504702  43.3569374  29.7753696   1.6144079  43.9118347
  30.7638340   1.6547462  42.7662811  65.6364365  71.4930191  19.5763683
  64.7036514  71.7078400  19.5767288  65.7227783  70.8018265  18.9198418
  56.0245781  39.6740456  39.1746292  55.4550896  39.8860741  38.4350586
  56.6089821  38.9939804  38.8396454  21.7531643   5.8370733  70.9601288
  22.3220348   5.4455628  71.6229553  21.1868763   6.4320021  71.4516678
  72.8755722   3.6552167  23.7849236  72.0466461   4.0914450  23.9819469
  73.3727951   3.7057848  24.6012821  54.7014198  61.2834015  75.2012558
  53.7602386  61.2352753  75.0336456  55.0853081  60.6494789  74.5954514
   0.9529459  66.3861465  40.3874397   1.2344126  66.8398590  41.1818886
   0.0198299  66.2216873  40.5233765  85.9003601  56.1584473   9.8288536
  85.9832001  56.5287895  10.7076111  85.2940903  55.4252434   9.9341202
  81.9705658  21.2798233  59.7323151  82.8250198  21.3224430  59.3029861
  81.4467163  21.9478226  59.2900581  60.5080032   1.0694739  43.9648247
  59.5577354   1.1078879  43.8564491  60.6345558   0.7159624  44.8453064
  64.4758759   7.3980155  23.6345177  64.9037399   6.6686001  24.0829754
  64.4642639   8.1033163  24.2815475   1.1345108  44.3328285  57.3247719
   0.2935480  44.2374840  57.7718964   1.4138638  43.4349251  57.1459770
  48.7569084   1.2815964  32.1859703  47.9364166   1.6565586  31.8659286
  49.0594711   0.7218673  31.4708519  30.6712952  69.8212051  10.2669315
  30.4399338  70.5668640  10.8207350  31.6172752  69.8990936  10.1432858
  77.7788849  33.8946266  26.4579430  77.9490356  34.8209419  26.6288948
  78.6437988  33.4849510  26.4758701  41.1827126  49.9083862  81.6541901
  40.5597992  49.4906807  81.0594330  41.1283073  49.3927307  82.4587784
  61.4111938  52.3675079  67.2588806  61.7038612  51.7332878  66.6044006
  60.9551468  51.8410187  67.9154282  80.7415619  12.1963062  50.4319878
  80.0430527  12.6032085  49.9193993  80.4592438  11.2884903  50.5433273
  43.3815079  61.8041687  77.8888397  43.3272095  61.0132484  77.3524323
  44.0954056  61.6291809  78.5019913   3.8944635  40.2516899  27.5793953
   3.3162303  40.7889366  28.1209145   3.5406880  40.3365936  26.6940327
  36.3211479  35.0103989  33.6035042  35.4967804  35.4346886  33.3655357
  36.9916611  35.6668701  33.4145851  65.5549850  64.5781403  60.5216675
  65.5929794  63.6395416  60.3377609  65.7733612  64.9945984  59.6879387
   8.2994089  49.1395187  64.1064911   7.9359112  48.4907722  64.7091751
   7.6849079  49.1555824  63.3727570   0.9180544  30.4348011  69.5035019
   1.0117346  30.9982433  68.7353973   1.4052447  30.8863926  70.1926575
  32.0275803  20.0874691  82.3343964  32.3156548  20.3892078  81.4728851
  31.7756748  19.1743698  82.1964722  24.0520496  51.5433159  16.8727741
  23.4206886  51.8294792  16.2126789  24.5696507  50.8690300  16.4327030
  86.2225723   0.3120319  12.4934416  86.8791733  -0.3813423  12.4276247
  86.7098923   1.1196250  12.3305359  49.0824852  66.2037506  34.8370285
  48.8587418  66.7306366  35.6042099  49.0433464  65.2993011  35.1479340
  81.4600296  41.4156990  11.2583208  82.1285477  40.8661461  11.6673517
  80.6783371  40.8638039  11.2339306  51.0629044  49.7968445  50.4287720
  51.5872459  49.7285995  51.2266655  50.3435822  49.1794014  50.5613327
  80.4633942  66.4317474  39.1191521  80.5832901  67.3540802  38.8929482
  80.3702316  65.9884796  38.2759018  32.5107574  49.2450447  67.2889252
  31.8070889  48.6236076  67.4757309  32.8344994  48.9878693  66.4256210
   0.6096041  19.8283539  70.0752487   0.6114478  18.8736610  70.1444778
  -0.2048597  20.0336304  69.6161804  32.7784424  35.5580635  87.5607147
  31.8816738  35.3466034  87.8201752  32.7940025  36.5137787  87.5097885
  41.6824188  40.2541008  53.9943047  41.0412369  39.6297531  54.3338814
  42.5149231  39.9727402  54.3737793  29.4185638   5.1921768  11.6479769
  29.1434002   5.9148788  12.2120848  30.2387562   4.8854766  12.0345688
  21.8588409  67.4429779   9.0933762  22.7293034  67.2382660   8.7518768
  21.8842621  67.1509247  10.0045795  61.2851372  47.7579460  22.7294598
  62.1880417  48.0585480  22.6263275  60.9128189  47.8116150  21.8492737
  71.7042618  67.4888992  39.1141663  71.5887299  68.3359909  39.5446472
  70.9397659  66.9784088  39.3809586  69.4870377  28.4268379  30.1888714
  69.1975861  27.9685898  30.9778309  68.7354584  28.3839989  29.5976639
  24.9301414  68.4331589  21.7580070  24.6242294  69.1179962  22.3526878
  24.3511047  68.4991150  20.9986687  74.4054565  70.9005508  86.6809769
  75.2020874  71.3907852  86.4777985  74.6902008  70.2254791  87.2969589
  83.0548859  69.8627853  30.8332481  82.3883209  69.1946793  30.9931278
  83.0819473  69.9509430  29.8805008  11.5953426  38.4867401  25.1700306
  11.6576920  39.1916275  24.5254536  10.9220505  38.7817039  25.7831421
  34.0476837  69.4179459  39.8603096  33.4968758  68.8293686  39.3441544
  34.9156189  69.3430481  39.4636879   5.6078720  22.7851963  19.9182777
   5.3313365  22.0273914  19.4030209   6.3847013  22.4838982  20.3894329
  79.8484955  65.7745590  43.5973434  79.8930435  65.3800583  44.4683304
  78.9454651  66.0823441  43.5197220   3.2247338  49.9062538  18.1396503
   3.9730103  50.4432144  18.4003944   2.9990852  50.2191353  17.2636261
  45.3560524  11.7583427  48.4654808  46.2142296  12.1645918  48.5868263
  44.7334557  12.4176865  48.7718658  74.5751495  38.2700424  24.4757938
  74.0396576  37.4812050  24.5607986  74.1196976  38.9266281  25.0027580
  31.5930214   3.2184958   9.5181875  30.9341908   3.0404582   8.8470116
  31.8458557   4.1297092   9.3698740  64.3195267  43.8348694  80.2231598
  64.6302338  42.9492722  80.0349808  64.5921021  43.9974937  81.1262054
  27.0328712  52.4445419  61.7468987  26.2706299  52.0091133  61.3652992
  26.7632427  52.6607895  62.6395187  86.5091095  21.8811016  26.5288162
  86.8418808  22.7728615  26.4275513  86.9633255  21.5421085  27.3001804
  86.9672852  31.6761951  27.3698120  86.1513748  31.4226379  26.9382610
  86.9773407  32.6320686  27.3204155  69.7864761  42.6201668   9.6268358
  69.4678650  42.2270889  10.4393644  69.3702927  42.1078339   8.9336281
  18.3920746  20.6926289   9.7032642  18.0370750  21.5198822   9.3779068
  19.1245384  20.4996490   9.1180391  29.7105160  62.7701416  27.1937714
  30.3285217  62.9085388  26.4760342  30.1360035  62.1214485  27.7544746
  55.6782265  43.3971329  71.0990677  54.9882202  42.7337990  71.1098175
  56.0631828  43.3565102  71.9745026  69.8964539  65.8248672  82.0430222
  69.7427597  66.3092270  81.2318420  70.2613602  66.4741898  82.6442261
  83.5773849  61.4620514  29.6782990  83.0808868  60.7458305  30.0742054
  84.4705887  61.3410454  30.0004559  30.8099422  32.8425331  25.3486729
  30.2747231  33.4403305  25.8706055  30.2662125  32.0614090  25.2465096
  31.0270519  33.8841019   6.1625719  31.7824688  33.3168335   6.3168015
  30.7742634  33.7053604   5.2568231  35.2729912  59.4214325  22.2322025
  35.5597115  58.9563332  21.4462605  35.4522552  58.8131981  22.9492416
  78.1145020  21.8860073  10.2846136  78.3440170  21.0427475  10.6750813
  77.1594467  21.8693218  10.2228222  69.1558914  20.2398281  13.9953718
  68.2271271  20.4576073  14.0741158  69.2795410  20.0507317  13.0652180
  67.8681946  52.5533218  52.0842056  67.1747208  52.0095558  51.7105141
  68.5656433  52.5358391  51.4288559  33.0301399  14.3935556  88.6905594
  33.5100670  14.9873590  88.1132431  32.6959457  13.7113628  88.1081848
  79.6481781   4.8095312  40.5148430  78.9476547   4.1901388  40.3102684
  79.4002686   5.1803241  41.3617706  27.2087822   5.2932119  30.1530895
  28.0786400   5.3910179  30.5404053  26.6249905   5.1743770  30.9022865
  78.1908951  40.1721535  82.6832962  78.4968109  40.8697281  82.1036072
  78.8141861  39.4582825  82.5486755  73.5673218   6.2134662   3.2569602
  72.9121017   5.7965322   2.6974213  73.7245560   7.0646534   2.8483171
  12.4252529  60.2728577  21.7383289  11.7212172  60.3513069  21.0945816
  13.1933537  60.6377602  21.2988987   6.0906243  13.8223162  74.6431274
   6.7698088  13.1486540  74.6096573   6.5280766  14.6186399  74.3419037
  24.2347755  18.7998104  87.9116364  24.5923538  18.6724205  88.7903519
  25.0008564  18.9706078  87.3637466  65.8298645  49.6907196  36.8941307
  66.0460663  49.0104179  36.2564163  64.9470291  49.4693451  37.1904869
  48.8453636  54.9348145  46.1899757  48.3337784  55.4806976  46.7870712
  49.1965561  54.2378159  46.7441292  21.3398952  58.7856789  78.3754730
  22.1076736  58.8231049  78.9458618  21.6546860  59.1028824  77.5289993
  11.5160465  58.2974014  67.8743439  11.2418766  58.4542618  66.9707642
  10.8151026  58.6743088  68.4061890   2.5294061  57.1086922   7.3211961
   3.0568058  56.9669151   6.5350790   3.0479188  56.7270622   8.0295277
  83.1311035  41.3041611  30.9790993  83.3314362  40.4825821  30.5306549
  82.2282791  41.1991997  31.2793083  59.4151421  27.3959293  52.4931412
  60.3636322  27.2677574  52.5059776  59.2306824  27.7317657  51.6159744
   0.0329729   6.0485911  84.9002228  -0.6399427   6.6905684  84.6737671
   0.8064497   6.5742311  85.1043472  76.5238647  63.4322052   3.0255911
  77.0415649  62.6590538   3.2502050  77.1488266  64.0266113   2.6104612
  22.5552616  30.1082535   3.2731178  22.8058834  30.8910961   3.7636077
  21.9723396  30.4322281   2.5864792  64.0864868  22.8865280  75.1473846
  63.4682770  22.4385433  75.7247543  63.5343666  23.3984432  74.5563354
  62.9065018  62.1928215  71.6771240  63.0632095  63.0704079  71.3285370
  61.9920425  62.0093689  71.4618607  44.7623405  50.5791245  24.7484951
  44.3555412  49.9634476  24.1388321  44.0341835  51.1050529  25.0792809
  74.3395691  17.9710312  52.6659126  73.6470184  17.4235134  52.2959976
  74.8657608  18.2342892  51.9108963  57.4794312  17.1718941  44.8704338
  58.2780762  16.6477089  44.8102455  56.9149628  16.8287868  44.1776962
  31.7264481  39.1601486   0.8979380  31.8582191  38.2667122   1.2151783
  32.1685753  39.1805992   0.0492104  44.5213623  47.3064728   2.2665534
  44.1650925  47.4307442   3.1462469  45.3598404  46.8668327   2.4076231
  63.6273499  29.8492336   2.4007890  63.7046051  29.9794979   1.4556460
  64.5253830  29.6989422   2.6960459  69.3303757  64.4678345  46.9805450
  68.7587357  63.9010506  47.4984398  70.1384125  63.9648056  46.8792458
  18.6610317  41.3650208  20.0096779  18.8242741  40.7804031  20.7498169
  18.6788788  40.7918587  19.2432594   6.1065574  20.6308823  32.1051331
   5.8580217  20.1929531  31.2910805   5.7394323  21.5112610  32.0252342
  85.6654358  50.5583229  50.0461426  86.0551453  49.9642754  49.4046822
  86.3592072  51.1881180  50.2417831  80.6241913  43.9403458  83.4276962
  80.9844437  43.0985298  83.7066040  80.1409836  44.2585449  84.1902542
   3.9917278  18.6599102  55.2649117   4.1990304  19.1835918  54.4909554
   3.5752971  17.8717060  54.9162712  63.0034180   0.6449425  19.8514919
  62.0531273   0.5987433  19.9565849  63.1679459   1.5385838  19.5505466
  66.8860626  33.2741051  88.6244659  66.1592407  33.5674515  89.1739349
  67.0211792  33.9900932  88.0037079   4.1080847  31.8844604  51.3780251
   4.0499983  31.0485458  51.8407440   3.2064521  32.0803299  51.1232224
   7.3289118  52.4447784  67.2945099   6.7569981  51.7002869  67.1077347
   7.1013136  53.0944214  66.6293793  47.8061447  11.4203062  26.5088825
  48.3337288  10.6806583  26.2075367  48.0449066  11.5253506  27.4298553
  22.1000862  26.4218464  19.7254486  22.9740009  26.0731392  19.9012547
  21.6679344  25.7381725  19.2135239  30.0940685  39.5350647  13.1925116
  31.0235233  39.7627831  13.2146559  29.6767941  40.2744255  12.7504005
  68.3727570  30.7604752  57.4502983  68.5661240  30.7238312  58.3870468
  67.7524796  31.4841290  57.3619041  69.4238358   2.5525532  12.2712488
  69.3227081   1.8670182  12.9315872  69.5555725   3.3545725  12.7768602
  67.7364731  25.1456089  48.5109634  66.8268585  25.3136673  48.7570915
  68.2526093  25.5904560  49.1832352  60.5497398   3.6595988  62.5618706
  61.2505569   4.3015051  62.6760902  59.8127174   4.0192647  63.0555000
  28.4786263  12.5795212  10.5700207  29.4219379  12.6472187  10.7177057
  28.1729946  13.4864769  10.5540867  72.9286499  60.6363983  44.8394852
  72.0561829  60.5455246  44.4563713  73.4482117  61.0576630  44.1547775
  82.4676514  28.8609200  20.7699509  81.7494202  29.2376537  21.2783318
  82.0945969  28.7140865  19.9007549  82.6699982  68.3959274  45.7076530
  83.0153885  68.0665894  46.5373993  83.4478531  68.5943146  45.1862984
  45.4907570  27.1521378   4.7608643  46.1087074  27.7587261   5.1688104
  45.6896591  27.2004108   3.8258033   2.6582625  44.8955040  37.3361855
   1.9194440  45.4996338  37.2626495   2.3460860  44.0852165  36.9334297
   8.1766243  12.4585295  30.0836239   8.2836266  13.1687775  30.7163410
   8.9157696  12.5587730  29.4837513  70.9318771  11.6526651   2.2979333
  70.9641724  11.0905027   3.0719893  70.4354248  12.4207935   2.5803194
  81.0797882  28.0640678  52.8991432  80.9578400  27.2766018  52.3688049
  82.0282898  28.1898327  52.9265976  41.0183372  37.9285736  28.8946800
  40.2150383  38.4388924  28.7921162  41.5243835  38.1170654  28.1043510
  17.7706337  28.5394650  67.8890457  18.5016518  28.8797894  67.3732681
  17.9791775  28.7842312  68.7906113  45.0088196  64.3947144  35.9224739
  45.9187202  64.0976334  35.9155350  45.0356865  65.2381439  36.3742943
  62.7155151  68.9266891  66.2350388  61.9780502  68.3769989  65.9700546
  63.0180626  69.3300781  65.4214249   2.3768260   2.1085227  15.3383236
   2.0904231   1.3182263  14.8804626   3.1303210   2.4171066  14.8350811
  53.1426926  53.0970650  87.9047546  53.4795036  53.0745201  88.8004532
  53.5902596  52.3758240  87.4623413  55.3784599   4.8740940  51.8680954
  56.2143631   4.6857514  52.2947426  54.7269096   4.7707400  52.5616570
  18.3534718  48.4606819  39.0703392  18.3694305  47.6004295  38.6508865
  18.4967556  48.2771416  39.9987869  13.3173103  10.1630707  67.7504578
  12.9358358   9.7181368  68.5072556  13.0260668  11.0710049  67.8345032
  29.2427368  57.8593330  22.1862736  29.1033268  58.5619469  21.5513477
  28.3856468  57.4422951  22.2740498   3.0313957  62.9766960  76.9876633
   3.0338271  63.8464661  76.5880127   2.8260052  62.3821564  76.2661591
  -0.3473533  47.4405785  38.4090691   0.3303373  46.9723778  38.8966713
   0.0918230  48.2259293  38.0826035   5.0516682   7.8530960  65.2169952
   5.0927458   6.8977733  65.1733704   5.9419866   8.1209660  65.4446182
  82.0183182  19.6900215  47.5824661  82.2709045  20.3054752  48.2706909
  81.8372192  18.8727417  48.0466728  17.1331596  15.5261946  52.9413033
  17.6277943  14.8021545  52.5574646  16.3262215  15.5637856  52.4278145
   1.3994895  41.6472282   5.5973368   0.9899485  42.5106010   5.5416641
   2.2812622  41.7774582   5.2484107  37.5507851   9.6101179  84.5466080
  38.4810944   9.8172712  84.6351929  37.4553337   8.7537851  84.9635162
  17.4106083   9.4436293  73.5943298  18.2591152   9.4818344  73.1529617
  17.6208076   9.2052355  74.4972229  79.2889481   6.9224820  46.9380150
  79.7753220   6.2447896  46.4685440  78.4626846   6.5023575  47.1767960
  55.4272690  24.0493679   8.7241402  54.9533234  24.1092796   9.5536098
  56.0491791  24.7765274   8.7505732  13.3006535  16.5599785  14.2970743
  13.2950840  16.7790623  15.2288475  12.7149687  15.8063402  14.2247248
  59.2679329  46.2259827  60.7855988  59.5502472  46.8801079  61.4248581
  58.9480705  45.4957733  61.3154182   8.2418756  35.5904350  26.1760979
   7.3048401  35.7352791  26.3073082   8.5752249  35.3750916  27.0471535
  44.3310242   6.3431106  18.5252399  43.6714706   5.7961254  18.0985928
  43.9257851   6.6064086  19.3514881  78.1959839  42.4549294  85.1063995
  78.3420181  42.2094955  84.1927948  77.3641815  42.0405045  85.3357162
  20.3209743   2.0322709  41.9784431  20.3707428   1.4692985  41.2059059
  19.5604477   2.5911822  41.8189163  61.4520683  13.8224401  33.0125465
  61.7253571  14.7320662  33.1313934  60.9532738  13.8270016  32.1955872
  73.1827316  20.7283020  43.1532516  72.3043747  21.0015736  43.4178963
  73.7684021  21.3407669  43.5983505  75.8958588  32.9364967  70.4022751
  75.7871170  32.2517319  71.0622025  76.0548859  33.7334595  70.9080353
  11.2453413   8.9080114  11.5169888  11.2988653   9.6490736  12.1204748
  10.8788958   9.2788448  10.7142239  23.2594700  45.6719131  71.5908356
  22.8217068  45.0708313  72.1935730  22.6020241  45.8606949  70.9212341
  35.3445854  18.7450962  73.3113556  35.8749657  19.4603519  72.9601593
  34.4709167  19.1225796  73.4135284  44.0220871  33.9822578  72.6447983
  44.6189613  33.4584389  72.1103973  43.5868607  33.3455772  73.2117615
  72.7743835  37.5682640  36.4998741  72.1498566  36.8870888  36.7492638
  73.5904999  37.3143654  36.9308357   0.6160506  71.3579407  22.0477238
  -0.1365908  70.7716293  22.1251659   1.3491807  70.8546371  22.4018917
  50.5185242  68.1737213  68.0886765  50.7150002  67.8802795  67.1989975
  49.5743980  68.3313522  68.0858765  50.1794739   8.4120970  65.9911728
  49.6929207   7.9961963  65.2794647  50.4202881   7.6895151  66.5709229
  34.0111237  16.7609196  12.8797407  34.6581764  16.0629730  12.7776470
  34.0971184  17.2855587  12.0837564  23.5322590  45.1639214  62.5961037
  23.3929520  45.9221382  63.1634903  22.9991417  45.3431931  61.8215828
  75.7492752   6.3574562  64.0231857  76.0373077   5.4532623  63.8978767
  76.0258179   6.8095670  63.2260971   2.2023349  70.8667297  52.1555290
   2.1655211  69.9748230  52.5010338   1.8132229  71.4064102  52.8436928
  48.9132118  57.5885582  59.5976486  49.6163177  58.1121826  59.9819603
  48.1560440  57.7554588  60.1589584  68.5497360   7.8258476  88.5806046
  68.4768677   6.9280686  88.9045181  69.1095276   8.2664404  89.2199326
  12.7792587  52.3455429  14.3171873  13.4884100  52.9073334  14.6298027
  13.2199221  51.5560074  14.0030479  50.2278709  12.5052671   4.2288542
  49.5092087  12.2149210   4.7905087  50.1546364  13.4596233   4.2203121
  55.0256653  43.3541298  62.0955276  54.4266548  42.6468048  62.3344994
  54.5425682  43.8690033  61.4491844  44.9409676  13.3387842  72.7504807
  44.7271996  14.2714443  72.7765579  45.1150970  13.1587143  71.8266373
  64.2337112  12.6326208  58.9919014  63.6969185  13.2335300  59.5086174
  64.8084946  12.2137098  59.6325035  20.5801811  18.2694607  84.7236099
  20.5945492  18.3729992  85.6750870  19.8323364  17.6958828  84.5563660
  58.3340187  57.7191620  82.3703156  58.9850883  58.2804184  81.9492111
  57.8000221  57.3882637  81.6481018  25.5339222  25.2989941  53.2717323
  25.2081604  24.7570629  52.5531082  24.8202515  25.3052025  53.9095955
  63.8906288  67.8919067   6.1121969  64.2903442  67.5227280   5.3246884
  64.6287155  68.2292175   6.6198177  71.8862839  55.4946213  54.3767319
  72.4409103  54.9652863  54.9498215  71.4163284  56.0791779  54.9714317
  45.7606239   8.4975214   8.8594112  45.0344925   8.0619068   8.4130878
  45.4564133   9.3954077   8.9916553  30.8662262   5.3107395  77.4733963
  31.7443295   5.6849976  77.4019928  30.3720913   5.9543939  77.9811096
  12.6260223  54.8562202  67.2299805  11.6743450  54.9480209  67.2759781
  12.8170595  54.8086548  66.2932434  32.5413094  23.8672695  17.3117599
  32.9833488  23.9602470  16.4678478  31.8603230  24.5398560  17.3008251
  31.3511372  49.5265503  76.4592590  30.5324593  49.9804573  76.6591721
  31.6553707  49.9285622  75.6455841  21.6594944  32.1969795  81.3280869
  21.2973995  33.0536003  81.1015472  22.4171314  32.3951607  81.8784943
  17.5541973  15.4820795  19.0166378  17.8598576  16.2313023  18.5052948
  17.0421066  14.9622164  18.3971710  51.1014900  15.8172970  58.4794121
  50.6906700  15.3804445  57.7333450  50.3811455  16.2694550  58.9186020
  24.6025867  66.8602448  72.3793640  24.8193111  67.4872894  71.6893768
  23.7995777  67.2034531  72.7713013  69.3521347  37.0235748  86.6123581
  69.4597244  36.2384911  86.0754242  70.1652985  37.0841827  87.1136703
  77.7624359  38.3557816  45.6502876  77.2280350  38.3813934  44.8565674
  78.2204590  39.1962509  45.6578712  57.2940369  36.3088379  57.0547028
  58.0656738  36.4604530  57.6004295  57.2723427  35.3601990  56.9288292
   3.5972648   9.3298521  81.3043442   2.9944718   9.5585575  82.0118561
   4.0100632  10.1593132  81.0638809  41.4266891  10.3808107  27.0363750
  40.9783936  10.4167385  26.1914062  42.1007462   9.7109575  26.9215984
  72.7694244   9.6191654  20.2097569  72.3946991   9.3414288  19.3738880
  72.0194626   9.9297142  20.7170563  46.3514290  25.6507206  70.1658630
  46.4216728  26.4532509  70.6828156  47.2240257  25.5298672  69.7914276
  59.5209885   0.9850776  20.5516472  59.4952278   0.0512685  20.7603779
  60.0725937   1.3678681  21.2338734  85.1542053  28.6784439  57.3766823
  84.3883667  28.1400566  57.1770096  85.2755432  29.2207222  56.5972939
  29.3248177  42.1561699  11.8839130  29.7708893  42.0153656  11.0487938
  29.7246094  42.9505157  12.2380514  59.4270096  14.2573805  81.8623581
  58.7741814  14.7132063  81.3310699  58.9698830  13.4835348  82.1916428
  -0.0068108  52.7253647  50.8380318   0.2170771  53.4037666  50.2009506
   0.5495874  52.9135704  51.5938339  17.4036064  66.5848389  62.0940857
  17.2389278  67.3219604  62.6821060  16.7895565  66.7133484  61.3711357
  30.0298634  11.1943226  74.8040009  30.2754040  10.2694521  74.8276062
  29.6258450  11.3130064  73.9444046   9.3135147   5.0426960  20.5123425
   9.4137449   4.3649783  21.1808357   8.8331299   4.6122975  19.8050804
   3.2362883  11.5166407  43.0571671   2.8500290  12.0640240  43.7408371
   2.9987335  11.9524298  42.2387009  36.2654114  64.2402267  75.0371552
  37.0501060  64.3871841  75.5652618  36.1410217  65.0604172  74.5596237
  24.5267124  70.5006027  85.4026184  24.2078972  70.5843658  86.3012695
  25.1366081  69.7634735  85.4325790   7.9708819   1.6055077  38.8798485
   8.3015385   2.4764075  38.6597786   7.2099400   1.7717648  39.4362297
   7.3579102   4.3369908  39.1158981   6.4775882   4.4023027  39.4860306
   7.6576271   5.2436194  39.0493622  31.2696857  57.4658737  14.4150801
  31.6340332  56.6232567  14.1440067  32.0107765  57.9351425  14.7982273
   9.5092411  27.0860310  32.4733963   8.9243784  27.2227917  33.2186890
   9.9882660  26.2857342  32.6885490  27.6979942  61.7651443  61.8707161
  26.7867088  62.0133476  61.7151985  27.8043938  61.8268929  62.8199768
  81.2417450  25.8510876  51.1459961  82.0595322  25.8977852  50.6507378
  80.7493286  25.1439896  50.7291374  61.9741058  45.4286995  83.8129120
  61.3003006  45.9782944  83.4127121  61.4844780  44.7666397  84.3009491
  74.9416122  42.7162285  55.3147736  74.1797714  42.9733505  54.7954292
  75.1993790  41.8664818  54.9573898  14.2812529   2.3098419  51.6494827
  15.0893135   2.1162717  52.1246681  13.5834923   2.1236863  52.2777405
  58.0506821  63.1608658  27.9961815  58.4893837  63.6656456  28.6809959
  57.4451294  62.5905266  28.4697304  58.8518143  21.5530033  48.0254326
  58.3427200  20.9083977  48.5168953  58.3699188  22.3727665  48.1349640
  33.1477280  12.1925974  85.3780975  33.4477196  11.8731623  84.5270996
  33.4447365  11.5293961  86.0011368  86.4817276  52.4246063   0.0363736
  86.8227997  52.2318802   0.9097347  86.0397263  51.6188736  -0.2313175
  29.8510876   0.1877882  11.8154087  28.9097805   0.0179532  11.8518782
  29.9317627   0.9748620  11.2766714  34.4141273  42.5135345  15.9864874
  34.6650543  43.4319878  16.0850296  34.3741837  42.1787148  16.8823299
  64.7981110   4.1069798  67.2290192  64.7519150   3.5260310  67.9883652
  63.9268188   4.0569844  66.8358459  19.4855022  20.8743038  84.8823471
  19.8223400  20.0554371  84.5187149  19.1986542  21.3753262  84.1188507
  55.5611420  67.9475861   3.1752455  55.8048210  67.0269699   3.2717612
  54.7232780  68.0227203   3.6319368   2.9390500  16.3434505  20.1968708
   2.0504744  16.6968746  20.1549530   3.4174531  16.8168373  19.5162334
  33.2333183  64.5941162  54.1748199  33.2188644  64.4000473  55.1120300
  32.7748566  65.4307098  54.0963669  83.4022980  38.6781769  71.9900513
  82.8246918  37.9465065  71.7726440  83.6330032  38.5365753  72.9081802
  21.2222462  25.8858376  23.8518581  20.4708462  25.8344135  24.4426079
  20.8955402  26.3642330  23.0898647  79.3318329  58.1000061  51.9645004
  79.0330658  57.8368454  51.0940323  79.7987366  58.9228210  51.8188667
  16.1335163  49.7333984  58.6239929  16.4224091  48.8740654  58.9311066
  15.2081947  49.7753639  58.8653412  11.8896818   3.5170782  42.2478867
  12.5848684   4.1068215  41.9560852  11.1484985   3.7195783  41.6770363
  67.4148026  13.3527431  78.9235306  66.7504196  12.7101126  79.1722336
  68.1429138  12.8279743  78.5908203  17.3627052   1.3265378  71.8173447
  16.6305790   1.4327979  71.2099457  18.0255127   1.9416958  71.5034943
  15.9640741  53.6081581  78.9383545  15.6777563  54.5175629  79.0234299
  15.6808195  53.3489037  78.0615463  79.1173630  32.2369576  78.3234482
  78.6283340  32.4733887  79.1115952  78.6150055  31.5202732  77.9358521
  69.8687515  66.1135330  49.0697060  70.4692612  66.4535828  48.4063950
  69.7189407  65.2035828  48.8132172  44.8428612  19.7571278  20.3209705
  44.8084335  20.1849155  21.1765652  44.4493256  18.8969212  20.4672737
  11.3912544  12.8877611  82.9145432  11.2167521  12.2394876  82.2322540
  12.3445177  12.8937435  83.0010681  34.6417160  55.6145630  73.0261993
  35.5500603  55.3405838  72.8993912  34.5445061  56.3868790  72.4691467
  44.9630547  29.2938118   8.6322870  44.3878784  28.6664600   9.0702763
  44.3792725  29.9985752   8.3516827  17.2551823  65.7633286  86.2866440
  17.2183189  65.0125732  85.6939926  18.1631145  65.7854691  86.5889664
  10.5801249   6.6450772  80.6880035  10.0231056   6.6144452  81.4658356
  11.4574518   6.4437966  81.0136032  23.0089664   7.9974861  67.1369934
  23.7397900   7.5564008  67.5700912  23.4102478   8.4592934  66.4008331
   7.6284719  36.7250366  46.7566605   8.4966345  36.6362228  47.1498985
   7.0624127  36.9873657  47.4826050  27.8885098  42.0592766  75.4404984
  27.1870422  41.5586433  75.0239182  27.5463219  42.9515800  75.4947052
  51.8771896   9.4646053  54.7532387  51.9418755   9.9181461  55.5936813
  51.3580093  10.0516405  54.2036209  43.2594452  67.9611740   9.1669264
  42.8854446  67.2530441   8.6426144  42.7646904  68.7384033   8.9073849
   1.6626180  20.9927807  37.6329002   1.9010518  20.5083504  36.8425179
   0.7360030  21.2019844  37.5152130  80.2508469  30.3272610  10.5023718
  79.9854889  30.0662193  11.3842297  80.7767944  29.5938015  10.1835461
   5.6547451  48.6401711  43.7943039   4.8349018  48.9528618  44.1768150
   6.0625052  48.1247673  44.4902382  85.9022141   2.3174179   6.0360870
  85.5535278   1.4380814   6.1824412  85.6279373   2.5387766   5.1461406
  75.4172974  66.3696213  61.1918602  74.5117340  66.1232452  61.3802452
  75.3524399  66.9718246  60.4506607  11.2849998  20.9590130  34.1291122
  12.0909052  20.8448486  33.6254082  10.6169519  21.1526852  33.4715118
  76.3869858  36.2373238  20.2502003  75.8309631  36.9570427  20.5486546
  77.1234894  36.2342491  20.8615761  16.8088799  43.8801613  78.8023605
  16.1060810  43.4127998  78.3508301  16.9305668  44.6807747  78.2920303
   3.4329543  66.6315079  70.0925217   3.3161247  65.7176819  69.8326950
   4.0102763  66.9988785  69.4232178  53.0020142  44.3045349  35.9102516
  52.4427032  43.5359421  36.0228119  53.0125618  44.7213287  36.7718773
  38.2639503  57.9274254  45.4466095  38.1690559  57.3008385  44.7292404
  37.4636116  58.4514923  45.4143219  36.8954315   3.5722041  68.7520218
  36.8455315   4.4190135  69.1954803  36.8631859   3.7876792  67.8199539
  65.7948380  21.6123734  34.6644363  65.9023819  20.6742115  34.5078506
  65.4606628  21.9566784  33.8361816  85.7855072  54.9102974  68.3204269
  85.1902161  54.1675453  68.2195053  85.9384155  55.2178154  67.4269638
  54.5594635  55.5340385  68.5853729  54.2640457  54.7498398  68.1227798
  53.7612000  55.9056854  68.9607239   1.6212443  45.9868584  52.8312416
   1.0971880  46.3095474  53.5643616   2.1220186  45.2578773  53.1973572
  75.3782806  35.7088280  71.5609818  76.1528015  36.1048660  71.1615982
  74.7113876  35.7425423  70.8751602  80.2393265  31.5900574   0.3024524
  80.2103043  32.5301323   0.4803447  80.9235916  31.2573967   0.8832749
   6.9037590   6.6058412   2.1472940   7.5856271   7.0687628   2.6341119
   6.5935440   7.2435851   1.5044247   0.0992851  12.1244688  15.4613619
   0.4529191  11.4513855  14.8798695   0.8625785  12.6384401  15.7248936
   0.5676917  38.0107880  19.9858551   0.6081699  37.3320999  20.6596298
   0.1826161  38.7663460  20.4297943  64.6188507  40.9139328  79.6241837
  63.9202728  40.8145103  80.2709656  64.9427032  40.0243530  79.4827652
  20.7914486   5.9787340  22.2797928  21.4125881   5.9240103  23.0060329
  20.1516418   6.6329622  22.5606232  52.6110458  51.0960350  15.6470375
  53.1478615  51.8373947  15.3669510  51.8171082  51.1611748  15.1163273
  47.7533989  42.5875244   7.8975301  47.3195114  43.3177490   8.3388309
  47.6120148  41.8391533   8.4773436  80.0397263  12.6640949  77.4040833
  80.1264725  11.9127045  76.8174667  80.9011536  13.0811396  77.3880997
   8.1510077  52.7056313  72.0674057   8.5821600  51.8535042  72.0024490
   8.7403259  53.3075066  71.6127777  43.2622833   6.3454161  73.9510040
  42.3908157   5.9598842  74.0411987  43.8155479   5.8259239  74.5343246
  62.4673271  42.8391762  82.7903519  63.2042503  42.5952263  83.3504105
  62.5476303  43.7875404  82.6884155  16.5281887  70.0886536  72.8333359
  17.1070957  69.3539658  73.0366592  17.1174297  70.7842331  72.5414658
  74.5237732  36.8205338  54.8580589  74.2575226  36.0716248  54.3246956
  74.4057465  36.5255623  55.7609940  33.9540176  23.7041264  27.3985195
  33.8161926  23.6192818  28.3419380  33.2943687  23.1311626  27.0076122
  70.9325943   8.2381859  49.5808830  71.7602463   7.9581699  49.1899567
  70.2667618   7.7198706  49.1289406  60.3957520  52.9700050  12.1665306
  61.2086868  52.8800926  12.6638060  60.2682991  52.1133423  11.7589569
  39.6724777   3.2604144  73.8216934  38.7458267   3.1909814  73.5920639
  40.1099892   2.6355190  73.2434845  32.8935661   3.6815782  80.1341095
  31.9919319   3.3713126  80.2179184  33.2017517   3.3025491  79.3109512
  79.5106735  52.6182709  39.5650749  79.7855911  51.8090210  39.1340675
  80.0778198  53.2930222  39.1918564  63.7034111  37.8193855  42.5799942
  63.0119743  38.0066681  41.9451103  63.5935860  38.4865646  43.2575188
  28.5012665  15.4420471  27.9350567  28.3181210  14.5625896  27.6045341
  28.1015453  16.0276489  27.2919960  68.0101776  45.6320343  72.2718887
  67.0551987  45.6473083  72.3352356  68.2983551  45.2337456  73.0932007
  20.6002808   9.1916971  67.0881195  21.4446087   8.7535286  66.9815826
  20.6830788   9.9981937  66.5792618  43.2995758   8.0657053  29.1408882
  42.8278656   7.3979621  28.6430550  43.7674255   8.5730524  28.4776020
  23.5125275  42.6695633  69.9510117  24.1361752  41.9698715  70.1452560
  24.0584679  43.4119453  69.6920776  29.5955925  17.7210693  28.9665489
  29.2253895  16.8754520  28.7133465  29.1410503  17.9482918  29.7777176
  18.7934952  25.9820652  88.9428101  18.1001129  26.5796108  88.6628189
  19.3092632  25.8261814  88.1516647  40.9801979  34.4591179   3.9078124
  41.4677238  33.8281822   4.4374070  41.0724678  35.2880363   4.3775082
  26.7914619  56.0229034  66.4910812  26.3439293  56.3988571  67.2491074
  27.1331158  56.7797546  66.0149689  42.3329086  16.8558064   3.9802492
  42.1314430  16.6890087   3.0594764  43.1159554  17.4058857   3.9582603
  10.2551489  29.1316147  17.4811459  10.0420485  28.9488297  18.3962460
  11.2097311  29.2008724  17.4667435  47.0641632  64.1007309   4.5468483
  46.7663078  64.8609238   4.0472264  47.8260040  63.7803001   4.0639853
  57.8048592  18.4928799   4.8020816  57.3996086  19.3506165   4.6744366
  58.4843636  18.6443958   5.4590082  78.4190140  46.6182747  19.8900547
  78.5677490  46.6747475  18.9461689  79.1716995  46.1290627  20.2222786
  61.0641327  68.5886917  45.1606522  60.9131470  68.2300491  46.0351868
  60.1911583  68.6496964  44.7728043  73.0880966  15.9024048   4.9095964
  72.9994049  16.8539200   4.8549781  73.9772186  15.7630577   5.2356024
  48.9135590  12.3380203  33.0792122  49.1463356  11.7260656  32.3809586
  48.7971802  13.1770430  32.6334229  76.5502777   6.6534128  46.9370842
  75.7245255   6.6772761  46.4535675  76.5784607   7.4883590  47.4043121
   5.5381036  52.8271446  11.5034237   5.8667388  52.5838127  12.3688831
   6.2218451  52.5400772  10.8981791  70.5192947  23.1825447   2.9052687
  70.9833221  22.4548492   3.3192408  71.1161575  23.4901047   2.2230721
  32.7228737   5.3842068  64.5053177  32.5336571   5.5758743  63.5867882
  31.9713364   5.7352810  64.9829865  72.0213776  71.6356277  26.3247280
  71.3182449  71.0343018  26.0792942  72.6811218  71.5248718  25.6401100
  19.1746025  30.9290848  82.7385178  18.4569206  31.1785011  82.1563187
  19.6232700  30.2212696  82.2759933  11.8339424  17.7847061  74.3393707
  12.3706427  18.0748749  75.0769272  11.4529686  18.5898895  73.9889832
  24.7738514  51.2635651  60.4829559  24.3427505  51.5868912  59.6918564
  24.5046711  50.3470840  60.5448761  28.5858707  58.9702759  33.1240463
  28.8833580  59.2193260  32.2490005  28.2533417  58.0788269  33.0192757
  25.9797745  16.4153671  85.4482727  25.7894974  15.9792633  86.2788391
  26.9296589  16.3454056  85.3531265  58.8452492  69.4604492  85.2489090
  59.1537247  68.5794067  85.4606857  58.9597893  69.5330048  84.3013611
  70.7420578  42.0028305  77.1532822  70.4700165  41.5376434  77.9443741
  70.3128510  42.8559914  77.2175674  79.8762360  38.5293465  40.3706245
  79.2427444  38.1198883  39.7813377  79.8344955  39.4614449  40.1568947
  12.5756207  15.7678308  18.0942554  13.4891043  16.0528793  18.1171970
  12.0727558  16.5597324  18.2846565  20.5012150  25.4449387  72.1109085
  19.7855854  25.0957756  72.6421280  21.2812347  24.9935112  72.4334259
  12.9413347  66.1530609  19.4410801  12.5298605  66.8670654  19.9280262
  12.2364254  65.7926407  18.9030914  26.3933430  14.9480391   2.9248745
  26.1024914  14.6951036   2.0487120  26.1821003  15.8795185   2.9877591
  38.6098213   2.7143066  44.5094910  38.8854790   3.3749499  43.8740425
  39.3113823   2.7007678  45.1605377  78.6799850  23.7089977  13.4913216
  79.1108475  23.1254120  12.8668089  78.0105362  23.1644211  13.9054499
  20.5333805   4.4246993   6.0043964  19.9103661   3.8568783   5.5508957
  20.4110851   4.2219162   6.9318419  58.4224777  10.1362085  28.2326641
  58.0969086  10.9118881  27.7759857  57.6433029   9.5998850  28.3792038
  62.5941467  33.6389961  18.3425865  62.0519867  33.5270805  17.5617104
  62.4114189  34.5319099  18.6350746  11.8081074  22.9868374  82.5875702
  11.7848301  23.8257828  83.0478516  11.0047245  22.5425835  82.8585815
  28.4578342  34.3607216  17.4987030  28.9053421  33.5557442  17.7594337
  27.7155476  34.4274216  18.0993652  83.2567749  56.5567627  68.6223373
  84.0649109  57.0324287  68.4302826  83.3863907  56.2111511  69.5055008
  20.4871120  21.1210117  79.0331497  20.6602154  21.8785076  79.5921402
  20.3123150  20.4064007  79.6455307  56.7336349  19.4972382   7.8087502
  56.1667900  20.2335758   7.5791364  56.6819344  19.4436646   8.7630501
  44.5249863   3.6845541  43.3469315  44.4440956   4.6332669  43.4450760
  44.0481834   3.3248646  44.0949402  58.9510345  54.2756271   4.1530280
  58.1823006  53.7105255   4.2300830  59.4060822  54.1763306   4.9892712
  55.6611519  47.7219925  62.1422348  55.7735138  47.7577972  63.0921440
  54.8739929  47.1926994  62.0139465   0.9134346  50.6766014   9.9868736
   1.3821477  51.1441154  10.6782274   0.2720459  51.3088074   9.6625824
  41.6370697  60.7517738  24.7306385  41.8724403  61.3518333  24.0229912
  41.1799011  60.0334053  24.2934074  69.9583359  53.4209328  24.7246037
  69.2732086  53.4932632  25.3891354  70.6190872  54.0600967  24.9912643
  84.9775085  56.2941055  32.1891708  84.9494781  57.1828918  31.8349056
  85.9008331  56.1470566  32.3943291  35.3765030  71.5060196  71.0719757
  35.4156570  71.1600571  71.9636078  34.4551392  71.7309036  70.9425659
  70.3074875  15.1589994  85.3564529  70.7267227  15.8276730  85.8980713
  69.7984161  15.6547718  84.7151337  22.1786995  51.8304176   5.2031498
  23.1087894  52.0444527   5.2763133  22.1328259  50.8934975   5.3936930
  86.0369110   6.5597634  30.4180031  85.8262558   5.6323094  30.3099003
  85.2098312   7.0136609  30.2562733  39.6010132  50.5580635  26.2823505
  40.2374420  49.9280891  26.6204700  39.7627831  50.5791740  25.3391552
  80.2146835  70.5235977  62.6069717  80.3234024  69.5905533  62.7909317
  80.0434341  70.5638504  61.6660767  50.4839973  56.8004494  84.4636307
  50.9163628  57.6481514  84.3601990  50.1212463  56.8230629  85.3491440
  46.7708359  38.1446495  83.2778168  45.9622917  38.0758438  83.7855072
  46.6772041  38.9615936  82.7878418  82.7578049  38.1314659  61.9936676
  83.0860672  38.3351784  62.8694382  83.1687469  37.2958107  61.7722282
  54.5460930  11.3908606  39.6755524  53.7352180  11.8983221  39.7101479
  54.5906029  10.9522839  40.5251999  67.5620728  18.8368073  46.5591240
  66.9930420  19.4620075  46.1101723  67.5994339  19.1524658  47.4620056
  61.0805283  30.7576733  83.9663773  61.2982635  29.8833561  83.6432800
  60.9509964  31.2801304  83.1748581  80.5152969  64.3841248  66.3733063
  80.6881332  63.4628372  66.1794357  80.1805496  64.7431030  65.5515366
  19.2519035  69.0351181   2.2449608  20.1988811  68.9032745   2.2905972
  18.9973164  68.6544571   1.4044152  80.7163162  19.5592575  67.2549515
  80.7175980  19.8263607  68.1741257  81.3730240  18.8645496  67.2064896
  83.9269943   8.9814157  56.7552223  84.4866562   8.5431557  57.3962669
  84.4329300   8.9624128  55.9428825   0.2581704  17.8231335  31.4398537
  -0.1427160  16.9576702  31.3592625   1.2000372  17.6531429  31.4249554
  47.2058144   8.9928513  31.7093925  46.3701935   8.5845280  31.4830227
  47.7277870   8.2809458  32.0794868  79.9931259  19.9212418  39.1476822
  79.6276703  20.3647060  39.9131927  80.9351959  19.8923073  39.3147087
  62.3342857  14.1157398  15.4541693  61.8169746  14.9198408  15.4993706
  61.8339615  13.5413284  14.8745499  79.3945084  39.5289345   4.8058062
  80.0704422  38.8590050   4.9084816  79.8809662  40.3368416   4.6418633
  27.5839062   3.5428240  40.0536766  27.5368538   3.6756375  41.0004501
  28.3386574   2.9672985  39.9297714   4.6238694  57.2439957  32.2507973
   4.8662915  57.6105270  31.4004345   4.5818744  56.2994728  32.1013145
  49.8803978  47.9415550  23.8388500  50.7382774  48.3325958  24.0042648
  50.0768089  47.0813828  23.4676914  52.6668625  46.5800743  56.6818047
  52.1370010  45.8991928  57.0963898  53.0418701  47.0703964  57.4133682
  41.1252823  52.8717957  74.6297531  41.6453743  52.5401649  75.3617096
  41.4954910  53.7348557  74.4445190  73.1408234   6.5330091  48.3623734
  73.1403427   7.3494172  47.8626633  73.5356216   5.8911495  47.7721329
  86.2424927   7.8627834  50.0014114  86.2771378   8.7954168  50.2140770
  86.0736237   7.8380070  49.0595512  54.3088875  60.5355911  37.0449066
  54.3771286  59.7068214  37.5189552  54.4224548  60.2955513  36.1252785
  46.5931168  40.7863960  16.6915607  46.2442703  41.5450172  17.1595688
  47.5001945  40.7175636  16.9893932   6.5806823   0.4083504  80.8942413
   6.6914372   1.0558960  81.5904083   5.6478934   0.1943245  80.9123993
  56.4886513  56.1708031  66.2490921  55.8605385  55.4668922  66.4110031
  57.2564468  55.7281914  65.8874054  71.4684296  10.4708271  72.9006271
  71.9693680   9.7847281  72.4595337  70.5536652  10.2481203  72.7279053
   3.2624211  45.1324310  64.0887222   2.5200250  44.5915604  64.3580551
   3.8865604  45.0591507  64.8107376  77.8850937  67.6052017  75.4396286
  77.2446823  67.8327179  74.7655792  77.5050964  67.9374313  76.2529297
  66.4288177  54.9029388  78.2714310  66.5000229  55.3562584  77.4313889
  65.5972595  54.4317131  78.2195587  85.6737366  55.4682922  83.7902222
  86.5213165  55.9094887  83.8465729  85.7931519  54.6563263  84.2828522
  47.7305984  13.6532717  23.2826233  47.8771362  12.8797483  22.7381763
  47.2614403  13.3218470  24.0483112  80.7516327  39.4296494   8.8754969
  80.3887177  40.3027802   8.7266092  81.6929245  39.5347176   8.7371016
  14.2174988  27.4488850  15.3200932  13.5295801  27.0518990  14.7858639
  14.9480982  27.5750847  14.7146759  39.0556564  14.9158268  11.7775192
  39.1922493  15.6003418  11.1225271  38.3220596  15.2319345  12.3049126
   1.3883104  70.6377640  49.1651917   1.6409371  70.3906174  50.0547600
   0.5613323  70.1797256  49.0150681  72.6561890  31.0897255  10.7969580
  72.8094559  31.0771408  11.7417231  73.5239563  31.2220955  10.4152765
   2.9195943  57.8921623  15.2652779   3.7867358  57.5178146  15.4207163
   2.3236680  57.1447296  15.3147659  62.1175041  36.0334587  19.0569477
  62.1220970  36.8423042  18.5451088  61.4892731  36.1984940  19.7600250
  79.7405930   6.9491854  13.9402580  79.5744781   6.3003550  14.6241121
  80.6436462   7.2290506  14.0899057  73.6802216   1.2072743  58.8913002
  73.3428345   0.3775367  59.2288475  74.3069077   1.4982475  59.5537415
  47.5684662  19.9005642  19.4347897  47.7848816  20.8329449  19.4267082
  46.7093048  19.8577366  19.8545990  32.4385567  12.3679142  82.0355682
  31.4945564  12.2166414  82.0825653  32.7418213  11.7768536  81.3464355
  42.6899719   0.2917148  39.2487717  42.9272804   0.9592656  39.8924255
  43.2436104   0.4817245  38.4914017  53.2035599   0.7540478  85.3681793
  54.1020508   0.9289305  85.0882492  52.9420891  -0.0176440  84.8658295
  61.6253090   1.5573084  70.7185822  62.1962509   0.7891910  70.7345276
  61.2481422   1.5571668  69.8388290  46.6684570  24.8539104  81.0329514
  46.8761940  25.2310371  81.8878479  47.4701042  24.4021854  80.7692490
  67.4213409  45.0057259  80.6438904  66.7802124  44.7623215  81.3116760
  66.8953247  45.2172852  79.8726730  86.2399063  52.2434616  80.2795410
  86.2463837  51.2878571  80.3343506  86.7016068  52.5316658  81.0669479
  44.9322586  37.1356812   7.6133881  44.7575874  37.0818176   6.6738029
  45.2694931  38.0219498   7.7438908  28.0879383  54.5371628   9.6466751
  28.3629837  55.3573875   9.2370253  28.2884903  53.8650742   8.9952850
  78.1169128  68.7711563  24.9622765  78.4529572  69.6055450  25.2895412
  77.7297592  68.9852448  24.1134491  49.0957565   0.9670403  62.8971138
  49.6348991   0.8952335  62.1094589  49.6206131   0.5573393  63.5847931
  11.3618870  11.6913576   4.2726140  11.7512035  10.8341112   4.1000080
  11.3854218  12.1397009   3.4272344   2.5304680   5.4414172   6.1212168
   1.9978163   5.9687514   5.5258746   2.3752444   4.5381470   5.8450999
  53.3917542  53.3854027  84.3447037  54.0653343  53.0639000  84.9440002
  52.5648117  53.1467972  84.7635880  57.2657928   6.5960398  29.0534248
  57.9076004   6.6451077  29.7618790  56.8616524   5.7343788  29.1556187
  53.2539711  56.7853279  58.9271622  52.9437866  56.4171867  59.7544975
  52.9018860  56.1992416  58.2572556  85.9497299  18.2607117  51.1750107
  86.2073135  18.3642349  52.0910721  86.4221725  18.9536171  50.7135925
  70.7872925  43.4518738  81.7026062  71.7374191  43.3462944  81.6542587
  70.6483383  44.0290565  82.4534607  22.1955757   2.0219276   4.9128075
  22.6123810   2.6099567   5.5426693  21.3966618   1.7288758   5.3510866
  18.4188576  15.3190680  28.1049042  19.1325932  15.8599167  28.4429798
  18.8508148  14.5307388  27.7759953  30.9234753  71.0475235  79.5946121
  31.6989117  71.2340546  80.1238937  30.2747478  71.6881561  79.8861160
   0.3507056  60.1896324  20.2979584   0.1040720  60.6731491  19.5095310
   1.2812219  59.9984436  20.1804085   1.7302872  56.4903526  34.9809265
   0.8378780  56.7546577  35.2044907   1.7983987  55.5882912  35.2937813
  59.6449738  55.3400917  83.7581482  59.3030701  56.1244888  83.3291321
  60.5497284  55.5623398  83.9778366  68.7897873  62.5437431  41.0206718
  69.4634933  63.1212883  40.6617966  68.6946106  61.8513794  40.3666000
  68.7161865  48.0997047  46.6701164  68.1254501  47.9920731  47.4155579
  68.3492355  48.8340111  46.1777992  29.7964401  42.0881882   7.8561559
  29.4582500  42.9531326   8.0879459  29.7947540  41.6015778   8.6804371
  44.9171295  60.2790260  60.8959427  45.6870461  59.7659302  61.1412811
  44.2544518  60.0416222  61.5445824  68.6314392  53.0231438  39.2093124
  69.4484482  53.4514656  39.4647751  68.8235779  52.0871811  39.2666779
  19.1542244  59.3177834  16.2512016  19.8820839  59.9390869  16.2302876
  18.5640450  59.6169014  15.5594997  49.3067856  22.3299103  16.0917530
  49.5656624  22.4716702  15.1811943  48.5330086  22.8809757  16.2093353
  21.3484592  31.9179420  58.2264595  21.1610584  32.5226974  57.5085564
  21.8870144  32.4259644  58.8331795  86.8132324  24.0011311  19.2297459
  86.8372040  24.1254330  20.1785374  86.7315521  23.0544472  19.1142025
  40.8192406  55.0909729  69.5285263  41.4947205  54.4209862  69.6337738
  40.1503410  54.6735268  68.9858093   7.5809865   2.2016068  35.4776611
   7.9445734   2.1781318  36.3628082   7.5287733   1.2824256  35.2157249
  73.9922256  50.1024475   2.7325704  74.5713959  50.6294937   3.2830434
  73.2759247  49.8473282   3.3139942  84.5296326  44.2236938  50.1231003
  84.4487228  43.7452621  49.2980042  84.6296921  43.5412941  50.7868385
   7.3410573  71.1760025  73.4329071   8.1147375  71.6689835  73.7060699
   6.8238716  71.0795212  74.2325516  71.2480621  12.4595079  19.2889729
  70.9935989  11.5818386  19.5738869  70.5547256  13.0296383  19.6213379
  64.3430634  49.1703300  41.0493469  64.7146072  48.4304428  40.5689850
  65.0945511  49.5782166  41.4796143  10.6375637  39.6432571  51.7145119
  11.5941458  39.6106796  51.7034950  10.3649235  38.7823639  51.3970871
  71.6470108  58.2711830  49.1573906  71.0513153  57.5287361  49.0566292
  71.8296127  58.3060303  50.0963669  82.1020050   7.1769223  79.4555893
  81.9120941   6.8971543  78.5601044  81.3247070   7.6672139  79.7232742
  71.7992783  22.3121986  32.7837944  71.7542572  22.3230000  33.7398758
  72.7159653  22.1169739  32.5893669  82.9299240  63.7847061  28.4490013
  82.0224380  63.8042984  28.1451664  83.0472031  62.9004555  28.7962418
  45.0455284  44.2358932  22.8164902  45.0533333  43.5134544  23.4443855
  45.3000946  43.8340569  21.9858551  42.4127846  62.1737976   7.1042442
  43.1390991  62.6594887   6.7133489  42.6579971  61.2540321   7.0035582
  22.8873348  30.2302856   9.5505314  22.8844814  31.1243839   9.2087526
  22.9552269  30.3367863  10.4993620  66.0958939  47.4546700  43.7183952
  66.7976227  48.0470695  43.4484444  65.9459381  47.6652718  44.6400185
  60.2940025  61.3135452   1.8143029  60.8815422  60.8152847   2.3824313
  60.0126953  60.6844559   1.1499643  48.3058167  64.7195282  47.5700722
  48.4836922  63.9046974  48.0397949  48.6631737  65.4045944  48.1350670
  55.5972443  26.2991982  61.9738922  56.1680641  26.5225410  62.7090874
  55.3466148  25.3892136  62.1330910  52.5579948  48.8313904  24.0807667
  52.6520081  49.6750298  23.6384239  53.0554771  48.9298592  24.8925838
  23.9765453  50.3855705  41.3337822  24.8078861  50.0062675  41.0487671
  23.5853596  49.7133484  41.8917427  64.7543488   2.6604078  69.9962845
  63.8437500   2.4509494  70.2040634  64.7712936   3.6151326  69.9296188
  27.8147373  63.1892242  48.3519402  28.3124523  63.4082870  47.5642052
  26.9848118  62.8442154  48.0226593  35.6099968   4.9314628  59.3734512
  35.6647568   4.1959677  58.7633018  34.6885490   5.1899633  59.3548889
  56.3274040  34.0383339  60.0012016  56.6679153  33.1530151  60.1296501
  56.5897102  34.2688751  59.1099777  56.1138992  26.2053299  72.1839066
  56.0583267  25.3558311  72.6215134  56.6670723  26.7348614  72.7582092
  27.1974678  68.3353043  23.0357933  26.3768425  68.2463760  22.5511322
  26.9719925  68.0954590  23.9346085  50.1357460  52.1207008  46.8830605
  50.5977974  52.2467957  47.7118149  49.2281342  51.9545174  47.1377296
  56.1070175  57.5631561  87.5301895  55.5247955  56.9150848  87.9267426
  56.4145966  57.1476440  86.7245941  74.0359955  38.9165268  27.6060677
  73.3282700  39.3452492  27.1248684  73.9487610  39.2429695  28.5016460
  13.1750212  20.5516644  25.8990707  12.2798061  20.2922344  26.1170578
  13.7229910  19.8672600  26.2831993  48.6583176  66.4390488  60.2932587
  48.0428848  65.7078934  60.2394829  49.3250847  66.1456985  60.9142227
  59.9871674  35.2275963  83.9111252  60.9309006  35.1652145  83.7638092
  59.5998802  34.7088547  83.2060318  12.1608257  56.3552361  69.6318436
  12.6921473  55.8938217  68.9829788  11.6308613  56.9645424  69.1179276
  51.8799667  61.2029381  64.9932251  51.1557426  60.8087616  64.5070648
  52.1973686  61.9037743  64.4237442  80.6116562   4.2180281  54.9752655
  80.1494370   4.0545859  55.7973785  81.1663208   3.4472363  54.8550072
  53.0683327  18.5942020  15.6708527  52.3885651  18.7396641  16.3288708
  53.0199165  19.3628769  15.1025000  68.8547058  48.3519402  26.3245411
  68.2808304  47.7559471  25.8431969  69.3488541  47.7836266  26.9153633
   5.9252157  29.1521473  36.4030266   6.3900132  29.7881107  35.8592033
   5.1458874  28.9268017  35.8949928  12.0448542  68.9114151   8.1096096
  11.4233284  68.9051056   8.8375502  12.7286530  68.2956314   8.3731699
  20.7037868  12.3408365  12.0365162  20.3558636  11.8735819  12.7960253
  21.1370792  13.1100531  12.4063759  83.7394180  23.4255676  72.2340546
  83.9957809  23.3486328  73.1530685  84.4838257  23.0717506  71.7473221
  86.2446136  30.3994942  46.9525566  85.3922882  30.8154659  46.8231544
  86.8796539  31.0845909  46.7437630  -0.0451061  25.9936943   1.7278085
  -0.2266755  26.7387791   1.1549969   0.7339729  26.2537594   2.2193718
  37.2835388  13.1257715  25.1217804  36.4849930  13.4971943  25.4967461
  37.6500092  13.8326988  24.5905685  61.7711029  22.9723721  56.8452950
  61.4679298  22.7812653  55.9577179  62.6151924  23.4065266  56.7217979
  50.3352699  69.4557343  63.6742516  50.7106628  69.4453125  62.7937927
  50.6067429  70.2974396  64.0404129  51.6793060  27.2108536  88.5496445
  51.8469925  26.4734497  89.1364594  51.0116158  27.7282352  88.9999084
   9.0091610  40.0067368  19.1581650   8.9607449  39.3091316  19.8117943
   8.1320829  40.0382729  18.7761040   7.9098988  25.8172035  60.9913063
   8.8242550  25.5627117  60.8671379   7.6992879  26.3391342  60.2170563
  71.9539642  40.9601860  46.0011520  72.0544891  40.1393127  45.5191841
  72.7865295  41.4153862  45.8751907  67.7411804  30.0736256  20.7715492
  66.8557281  29.9902916  20.4176388  67.8254852  29.3404007  21.3810635
  18.2106590   7.1894164  35.0130920  18.1168232   6.7101731  34.1898346
  17.3891983   7.6722736  35.1041145  35.8056755  34.8313751  81.0326157
  34.9307060  34.6991997  81.3975601  35.7571449  34.4576683  80.1527176
  56.9717140  25.5847702  11.1931705  56.0348740  25.4434986  11.0567684
  57.0216217  26.0980377  11.9995813   2.2169762  50.4537659  33.2283630
   1.9071730  51.2448120  32.7873421   1.7417790  49.7403526  32.8023834
   8.9760275  15.5016365  27.8507843   9.3022060  16.1074753  28.5162163
   8.0406408  15.4216661  28.0375671  15.4290514   5.9956765  13.9158573
  15.0136414   6.8510146  13.8060236  16.0003681   6.1027670  14.6763573
  85.1456223  59.6938782  37.6497231  84.2891464  60.0482216  37.8887062
  85.0764236  58.7567291  37.8319168   5.5729880  69.0289917  59.9640923
   5.8839993  68.2813263  60.4744911   4.6523881  68.8334579  59.7894592
  18.3828487  62.5653610  60.6716805  17.6260605  62.5994911  60.0865860
  18.3969212  61.6637154  60.9927177  57.0695610  12.1419983  64.1006088
  56.7200928  11.6264763  64.8274765  56.7946053  13.0392208  64.2893448
  22.9566326  46.0891228  42.1045227  23.7638454  46.5397491  42.3526611
  22.8628368  46.2640114  41.1681213  69.4164429   1.9280988  60.3391876
  69.9951859   2.3039455  61.0025330  69.3986359   2.5808215  59.6392822
  50.0892830  10.0298214   7.1093144  49.6448593   9.3601103   7.6291285
  49.8506241   9.8282480   6.2045259  32.3608589  48.2090874  78.7905045
  32.1856384  48.4571724  77.8827744  32.2743340  47.2558479  78.7992477
  81.7716293   4.4305029  52.0012054  81.6008987   4.3261065  52.9372520
  82.7069244   4.2501073  51.9067535  71.9840469  69.2767181  22.9049797
  71.3928223  70.0164185  22.7652302  72.8578796  69.6363831  22.7523479
  79.0251617  68.9308777  82.7185593  78.6197357  68.5288391  81.9502945
  79.8856735  68.5161667  82.7798920  70.3830185  59.5230408   7.0239716
  69.9637299  59.1931114   6.2292538  69.8300629  59.2033615   7.7369051
  43.1115227  30.2108154  85.8421707  42.2317162  29.8338318  85.8496399
  43.0961533  30.8686085  86.5373688  44.0855789  13.6517582  77.5017166
  45.0366440  13.6097012  77.6014328  43.8471107  14.5144920  77.8409119
  59.0046043  38.7094727  51.7034569  58.6307449  38.3736305  52.5181198
  59.8173790  38.2163658  51.5917549  27.8938980  71.4743729  65.9821625
  27.8266830  70.9266357  66.7642746  27.2706184  72.1849823  66.1331253
  59.9357681  66.7492828  60.3465881  60.3862877  65.9180450  60.1972275
  59.6632233  67.0341110  59.4743385   2.6266701  39.4621048  36.0589142
   2.5478675  38.6071815  36.4821548   3.2849114  39.3316689  35.3763199
   3.9520321  44.1370049  19.4374027   4.2990122  43.2453918  19.4668446
   3.0352993  44.0290108  19.1840839  24.1122913   5.7344227  78.1401062
  24.1875591   6.4420414  77.4999237  23.2459469   5.3594117  77.9818573
  68.3673325  18.3117867  52.8221321  68.4248428  17.3900623  53.0738220
  67.4317627  18.5113106  52.8557129  32.7397461   7.5802031  55.8320351
  33.3161659   7.1146793  55.2260132  33.2787247   8.2926950  56.1756783
  78.3116455   4.5760579  34.9931793  78.7177200   5.1962366  34.3876076
  77.9826965   3.8738317  34.4320145  31.3435593  28.4839497  73.7719269
  31.9872150  28.6657867  74.4566727  30.6002197  29.0476780  73.9861526
  61.1460838  70.4549637  69.5552368  60.3365898  70.5793686  69.0597839
  60.8813210  70.5377655  70.4713516  45.7428169   8.7608299   2.5450397
  46.1370811   7.8956423   2.6556613  45.6935997   9.1168203   3.4322155
  34.9058800  65.0878143  65.6466141  34.2357864  64.9647751  66.3189697
  34.4270630  65.4275131  64.8905945  46.7645187  64.6498947  57.1744919
  46.1165848  65.3213043  56.9608955  46.7819519  64.6296539  58.1313210
  26.4117050  24.4599037   8.3615026  26.3331394  23.5376282   8.6053591
  26.6044617  24.9095955   9.1842136  85.8121948   4.1638246  35.0851440
  85.2704391   4.9079647  34.8224716  86.3065414   3.9375465  34.2973289
  13.4649239  64.5018387  15.5767221  12.6461010  64.1975632  15.9680977
  14.1058512  64.4417114  16.2851219  54.0305290   0.5933771  60.5009956
  54.4901466   1.4329209  60.4888153  54.0141487   0.3159790  59.5850182
  13.1689625  62.2905388   2.3649199  13.0018959  62.9883537   2.9984598
  13.9484110  62.5794640   1.8903520  47.8612480  50.5693054  36.9949875
  48.2471199  49.6934662  37.0105743  47.1767120  50.5413780  37.6634636
  35.6767540  70.9784164  83.0838470  35.5736656  71.5584106  83.8383102
  34.7812004  70.7691193  82.8185043  83.9523697  62.4341736  51.6842308
  83.6380234  61.7486000  51.0948219  83.2706146  62.5069199  52.3521767
  24.9224243  45.0073891  69.6961975  24.5284805  45.1374855  70.5588150
  25.7322731  45.5169334  69.7234192   6.6535401  68.4880219  86.5167847
   7.5763230  68.4671707  86.2632751   6.3672895  67.5767822  86.4541321
  31.6490955  20.5608177  76.8995972  32.3078194  20.1969948  76.3080368
  30.8125668  20.2822456  76.5269775  67.6641235  35.0105362   9.9923506
  66.7885971  34.7049332   9.7551107  67.8813324  35.6586380   9.3222628
   6.5169387  54.1944351  65.5442810   5.8129320  54.7479095  65.8823242
   7.0459094  54.7823792  65.0050812  24.6461964  58.2187424   4.9021225
  24.7737751  58.9979324   4.3609943  23.8315754  57.8336105   4.5791702
  51.8372536  14.9428568  83.4311523  51.5138016  14.0566912  83.5933914
  52.7828903  14.8373251  83.3269119  86.3906174  13.8139830  19.1862049
  87.0863190  13.9102221  18.5358429  86.6841278  13.0954342  19.7463589
  78.2708282  61.0911636  80.3986511  78.7136765  61.4362717  79.6233978
  78.9695358  60.6883774  80.9141998  60.9102478  21.8897629  84.9550018
  60.3442993  21.5446529  85.6455307  61.7990608  21.7508240  85.2820129
  38.5849533  67.8082962  39.3718643  39.4155159  68.2819290  39.3263283
  38.4458389  67.6580963  40.3069115  67.0288391  41.4434853   8.7437286
  67.1965942  42.2661018   9.2035027  66.0750656  41.3958893   8.6782513
  81.3443680   9.7574987  56.3321533  82.2376633   9.4150295  56.3631935
  80.8053360   9.0002155  56.1036758  39.0691299  39.8244476  28.9064369
  39.4665909  40.1012993  29.7320347  39.1173859  40.5988121  28.3458462
  77.6737976  30.5341396  35.8938675  77.4360657  31.0112171  36.6889229
  76.8988724  30.5978165  35.3355904  59.6687469   9.8593311  44.8593445
  60.2353401   9.7034254  44.1037674  59.6645737   9.0266666  45.3314514
  53.3800507  11.1977758  81.9378281  53.7681885  12.0495653  81.7377396
  53.1675720  10.8244991  81.0824051  47.7958298   2.5186758  12.9200716
  48.3471336   2.2782142  12.1754436  47.1628075   1.8040975  12.9900417
  80.0971756  38.5326500  82.0840073  80.8989563  38.7620010  81.6141434
  79.9203186  37.6273613  81.8282547  21.3666229  44.0975914  86.1833115
  21.6149960  43.1784325  86.2817764  20.5238209  44.0707512  85.7303314
   9.8240986  46.8044510  82.1617126   9.4325523  46.5766716  83.0049438
  10.6401033  46.3048630  82.1337814  19.4640884  70.9359589  22.8064079
  18.9159813  71.0683289  23.5798988  20.3421040  71.1926270  23.0882587
  43.6558685  62.1667137  52.7319145  44.3015251  62.5058250  53.3518829
  43.4949455  61.2685165  53.0210075  43.1355591  44.5197639  34.4660530
  43.3775177  43.5967789  34.3899994  42.7301483  44.5906639  35.3302574
   7.3403401   7.6063714  81.1700211   7.2980146   8.0033178  80.3000412
   7.5640011   8.3314657  81.7535019  18.1862049  51.2417717  14.7017450
  18.0838585  51.4580116  15.6285667  18.7515850  50.4694023  14.6970196
  73.7733459  40.6202736  84.0090485  74.2655563  39.8434677  83.7434692
  74.2518692  40.9601021  84.7651978  82.0386276  46.7450638  66.0017242
  82.7047806  46.1059303  66.2546692  82.5372467  47.5127602  65.7219849
  12.4299603  62.6715851  44.3209610  12.3186922  63.6021767  44.1264191
  13.3636942  62.5088959  44.1871490  12.8264103  26.1567841  87.7325439
  13.5100842  25.9988766  88.3836060  12.5649967  25.2827034  87.4429245
   5.1326380  30.1438007   0.6851693   5.4180026  30.8486710   0.1038285
   4.4829440  30.5529823   1.2567461  59.0959663  58.0915413  16.4487553
  59.3437614  57.6612015  17.2670670  59.4365044  58.9820671  16.5337887
  81.2134552   7.2622490  59.2664795  80.3925018   7.3469963  58.7816124
  81.8245163   6.8784013  58.6375961  65.4056549  70.6776505  79.9032288
  65.4457321  69.9989700  79.2294159  64.8557281  71.3618774  79.5215836
  78.1197510  53.1609268  51.1779823  79.0116119  53.1470451  50.8306656
  77.5857697  52.7775459  50.4822006  41.0900383   4.8243418  28.7760239
  41.6812706   4.2356162  29.2451515  40.2482071   4.7221155  29.2199802
  45.1856384  71.3226089  17.3873081  45.9984741  70.8295288  17.4986572
  44.7082596  70.8470840  16.7074432  57.5488014  20.1226330  22.4865665
  57.3723106  20.0684834  23.4257946  58.1605148  19.4064007  22.3161278
  11.5064106  24.8856049  23.6495056  12.0088196  24.5332966  24.3841457
  12.1493549  25.3664913  23.1283512  81.8725510  45.6929283   4.8940063
  82.2418289  46.4973373   5.2584176  80.9707794  45.6766624   5.2145915
  17.0790939  25.0497646  86.4137421  17.9178848  25.2504902  85.9985657
  16.9841118  25.7148266  87.0955811  26.5917416  37.2177238  81.7677917
  26.9061413  36.3160057  81.7022781  26.1327457  37.2509613  82.6071014
  83.9744720   1.4580268   1.9642445  83.0686798   1.5761504   2.2502801
  84.4682693   2.1147816   2.4552319  41.2852135  42.8479576   0.7979699
  40.4240379  42.5025635   1.0331626  41.7319183  42.1124763   0.3787400
  56.6106300  26.8020840   8.4693718  56.9597015  27.0419483   9.3277693
  56.0335846  27.5285969   8.2339373  33.4192734  13.1320057  75.8735123
  32.6103668  13.4845810  75.5025787  34.1113052  13.4739819  75.3074875
  31.6923122  55.5646362  84.4080429  31.5961514  55.1844749  83.5348511
  31.1484089  56.3520279  84.3876877   9.5674629   7.3717990  51.9160652
  10.2238159   7.6599169  51.2817001   9.6636934   6.4198785  51.9446869
   5.7437630  24.3829288  11.4773779   5.2231026  23.7889748  12.0180845
   5.1153460  25.0321541  11.1614151   8.0486917  63.8297234   6.2408886
   7.4739909  63.3239784   5.6662807   7.6185899  63.8007736   7.0955262
   4.7647424  37.5366707  73.5060043   4.2003942  38.2437744  73.1933517
   4.2625237  36.7386780  73.3410339  29.6151390  20.9726601  11.1873884
  29.7443542  21.0147057  10.2398825  30.5007954  20.9794025  11.5504303
  47.2981262  19.8671455  84.2478943  46.3590355  19.7618389  84.4003830
  47.6982651  19.7159023  85.1041870  18.8059902  23.7268639  70.2053375
  18.3579636  24.3648014  69.6498718  19.4328861  24.2461891  70.7088623
  11.3171473  48.8636971  18.6469898  11.1657877  47.9280243  18.7805576
  10.6185122  49.2923088  19.1413898  76.8758087  28.7118874  11.5309439
  77.6803741  28.9941044  11.9659815  76.3811035  28.2580738  12.2132607
  21.7263184  24.4405403  17.6734829  21.6955051  23.5529480  18.0305061
  22.6313019  24.5499630  17.3814812  56.7058640   5.8099542  55.8684578
  57.3610802   6.2771230  55.3501205  56.8832016   6.0726275  56.7716675
  40.3029747  69.0371780  20.1861820  40.3103447  68.2085266  19.7071056
  39.5054626  69.0014114  20.7143211  68.3839264  68.6535187  38.9259109
  69.1017227  68.0401611  39.0833740  67.6462936  68.0988770  38.6719589
  33.0743828   6.0803084  53.3350258  32.2081413   5.6734986  53.3159332
  33.1925278   6.4336715  52.4533157  49.6894913  26.8267002  20.4593887
  49.3724518  27.6793976  20.7570877  49.2653198  26.1967201  21.0419998
  84.7466202  15.9789724  80.5557251  84.2314377  16.0958271  81.3539505
  84.8658218  15.0319290  80.4840851  75.5194550   3.5172451  33.3864403
  75.7750549   4.4305620  33.2570152  75.2906036   3.4617465  34.3142242
  35.3954353  24.4181232   8.5232010  34.9913597  25.2446537   8.2590027
  34.8533058  24.1074982   9.2483473   4.8337755  17.0039520  26.1728630
   5.4387388  17.3355122  25.5092964   4.9784122  17.5684166  26.9322662
  80.1250076  37.1081619  45.6796417  79.2989502  37.5856094  45.6027908
  80.0867538  36.7011108  46.5451355  21.6820488  32.6761856  53.2267990
  21.3410530  32.8339424  54.1071777  21.3049755  33.3768959  52.6947746
  49.8643761  64.6181107  26.4570141  49.4074287  64.7310181  27.2904911
  49.4934158  65.2919388  25.8872948  74.1008072   1.7870389  65.9306259
  73.8531799   2.1391525  66.7855682  74.7087555   1.0755314  66.1315918
  81.3675919  27.6587791  43.5920181  82.0466385  27.1546154  44.0402908
  81.7984161  27.9950733  42.8061905  25.5005951  30.8428020  86.5067291
  26.2346935  30.9157524  85.8968048  25.4090328  29.9023876  86.6599274
  49.9785156  29.3569851  75.2870483  49.7349815  29.8859158  74.5273438
  50.1206245  29.9942799  75.9869690  53.3903046  48.7097855  13.9462175
  53.4022713  49.6114388  14.2673225  52.9635925  48.7656708  13.0912170
  15.1816006  56.5059738  77.6648941  16.1161556  56.4009132  77.4865723
  14.9647036  57.3667259  77.3067169  67.5499954  25.4941902  19.9835167
  67.8973160  25.8541088  19.1673908  67.2541885  26.2597256  20.4761505
  11.2971592  29.4819031  14.1445847  10.5187836  29.6666431  13.6190033
  11.9847946  30.0192070  13.7512760  46.8616524   3.9795282   0.8488787
  46.2938843   3.3793616   1.3322777  47.7484436   3.6668897   1.0280141
  68.2599869  52.0444832  17.4954681  67.7308273  51.4882126  16.9238167
  69.1594620  51.7518997  17.3486137   9.6547174  13.8235264  38.2820892
   9.9995451  12.9321814  38.2288857   9.4267893  13.9374847  39.2047462
  46.2596397  59.0925293  54.9189224  46.5132980  58.8903656  54.0183563
  46.5824966  58.3509941  55.4309006  21.4981289  26.4771671  80.4761047
  21.6466770  26.1965656  81.3791122  22.3026619  26.9347744  80.2320709
  43.5659981  50.6731644  62.8375053  44.3363075  50.9507179  63.3333054
  43.7521400  50.9390945  61.9370270  43.8903770  65.8799133  53.2484131
  44.2720146  66.6698685  52.8656006  44.2096519  65.1672211  52.6949081
  62.9367485  60.6708717  59.8907089  63.7717018  61.0484085  60.1673889
  62.4754028  60.4846306  60.7084541   1.3783406  58.6816711  71.2066269
   0.7854803  57.9668541  70.9747009   1.9824343  58.7414894  70.4665451
  57.9579735   2.5503902  13.2504807  58.1197014   1.7472736  12.7554264
  58.8172188   2.7986968  13.5914669  12.7944727  17.7532768   1.6145478
  13.3837175  18.1929283   2.2275150  12.1582403  18.4253502   1.3700942
  10.8483181   8.7479858  41.1220093  11.6932421   8.3061523  41.0376396
  10.3349152   8.1761189  41.6926384  86.3424606  56.7599411  70.5863190
  86.7025604  56.6160355  69.7111969  85.5223007  56.2664490  70.5919647
  64.5209045  13.4484806  20.7840233  65.3227310  13.0823631  21.1572018
  64.2670441  12.8250437  20.1035004  32.6000748  64.9923248   2.7795594
  33.2186775  65.0356445   3.5087264  32.6660309  64.0914993   2.4627059
  68.8166656   9.4551897  64.4176407  69.2227097   9.6928263  65.2512360
  69.3561630   8.7382507  64.0842056  29.7612038  48.4557419  19.1693039
  28.9244041  47.9911003  19.1590385  29.5816193  49.2824707  18.7215309
  39.6471405  54.5191917  19.9774227  40.2198753  55.2839394  20.0354404
  39.5093994  54.3937912  19.0385227  39.3743210  44.7054863  80.2275925
  38.4279633  44.6493797  80.3598557  39.6855316  43.8072891  80.3399658
  70.8768005  58.3473091  51.5674706  71.6062393  58.5757751  52.1436234
  70.2934494  57.8229103  52.1160469  82.0012436   1.5897596  49.7491684
  81.5522156   2.4301538  49.8404884  81.3475952   1.0102208  49.3578835
  79.5416260  27.1839924  82.8001404  78.6368713  27.0597687  83.0868835
  79.4898834  27.8699150  82.1345062  12.9557228  70.6043091  44.6809349
  12.4298000  71.3875427  44.5191269  12.7584543  70.3662872  45.5868378
  20.1615086   3.7068973   8.6187029  19.3416176   3.2391851   8.7776232
  20.8402252   3.1213875   8.9544907  38.7850838   4.4630122  56.2912064
  39.3236504   3.9173889  56.8643341  38.7304611   5.3046832  56.7437973
  73.0266953  46.7273521   6.5056372  72.9811325  45.7712517   6.4999504
  72.5794907  46.9836502   7.3122077   5.9212022  35.7151337  50.7080765
   6.5820408  35.0471573  50.5255089   5.3846512  35.3371048  51.4048119
  80.6609268  24.6498184  14.9101725  79.9641876  24.3959007  14.3049355
  81.4029846  24.8641491  14.3448009   9.7198105  41.4464149  50.0957680
  10.2060547  42.2507172  50.2771416  10.1536694  40.7791634  50.6275368
  71.9973831  61.1554451   1.7229453  72.2399750  62.0709648   1.8615134
  72.6757126  60.6564102   2.1779890  55.5499001  70.9259567  78.5277481
  54.8643913  70.6777191  77.9075165  55.5772858  71.8817902  78.4845581
  30.7401543  10.3134718  24.8990326  30.3856125  10.7884226  25.6506672
  30.6859112   9.3916101  25.1509476  12.8073654  40.5818214  63.5136642
  12.5404577  39.9913406  62.8091621  12.8980112  41.4351273  63.0895424
  30.0987816  48.4225540  22.0325890  30.1422577  48.5144005  21.0807972
  29.1720104  48.5381126  22.2422810  57.9166832  41.2157516  69.8482208
  56.9831390  41.0107460  69.7962418  58.0398750  41.9312477  69.2244263
  70.0962982   9.2971296  44.4675751  70.0321274   9.6493282  45.3553085
  70.9076767   8.7893076  44.4694405  57.1187859  57.7198029  68.1492233
  56.9377556  57.0853844  67.4557037  56.7495804  57.3236885  68.9385300
  33.4987526  58.9122581  12.7979870  33.4412537  59.7770767  12.3917713
  33.3251228  59.0713997  13.7257576  20.7337437  66.0713120  56.7448883
  20.0824642  66.6392441  56.3331566  20.2239113  65.3491898  57.1120911
  59.6194878  63.8175087  22.4944305  60.0151863  64.1606140  23.2956409
  60.0143738  62.9526253  22.3836365  61.3850136   1.9208376  33.3552437
  60.5307884   2.3088202  33.1655083  61.6338425   1.4803977  32.5426369
   5.8565302  22.1215382  81.7365952   5.2212310  22.5974369  82.2715225
   6.4373169  21.7017918  82.3712082  35.1661072  46.8177299  77.7047958
  34.3980522  46.3088989  77.4451447  35.6031609  47.0294914  76.8799515
  70.2275314  21.5567150  84.3167953  70.6527634  21.1092911  83.5852127
  70.8844223  21.5550365  85.0130157   3.0486193  27.9096985  58.7840614
   3.4631648  28.6048183  59.2951317   3.1533074  27.1234818  59.3199158
  10.8458004  30.5439587  33.2370682  11.4349518  30.8970413  32.5703888
  10.0380964  30.3467941  32.7627563  15.2363806  55.7833595  40.6421280
  16.0143185  56.2964249  40.4234734  15.2819700  55.6720924  41.5917435
  77.7088013  30.4079266   0.3682626  77.7766266  29.4550610   0.3076222
  78.6102829  30.7181473   0.2826175  79.0872574  33.2997665  71.7536392
  79.5289688  33.4374771  70.9156952  78.5528564  32.5174789  71.6169739
  41.7581062  16.1116772  77.7322311  42.6656609  16.1710262  78.0306473
  41.4212685  15.3171663  78.1463852  80.3746796  22.6808624  34.7993851
  80.4684982  22.5720367  35.7457390  79.4369888  22.8193378  34.6660118
  62.7537079  47.4551926   8.6966515  62.8787651  47.6327858   9.6288815
  61.9064064  47.8493042   8.4893103  46.0722275  31.3276443  15.8872452
  46.7327271  30.8062840  16.3434868  46.0915413  31.0037842  14.9867048
  70.2911148  44.3017883   0.6701052  70.1572495  43.5601044   1.2602055
  71.0909805  44.7200279   0.9887219  76.9531021  35.4868279  40.9264145
  76.8950348  34.5326424  40.9753304  77.1265030  35.7626839  41.8264503
  10.4559078   1.7064638  20.3747826  11.3806877   1.9532783  20.3650036
  10.2069206   1.7470841  21.2981377  69.4049911  28.6522770  36.3411942
  68.5471115  28.2676373  36.5209846  69.7810440  28.0921726  35.6621552
  74.1606903   4.0498996  70.0392532  73.6545029   4.6798525  70.5522537
  74.8124161   3.7102296  70.6525345  82.7493515   3.8160253  70.5168915
  83.0716400   2.9147143  70.5178833  82.9228058   4.1333861  71.4031372
  59.0190620  37.9620361  58.7163849  58.1471138  38.3078003  58.9071312
  59.6013794  38.4431190  59.3043480  67.7236938  58.9298668  35.9262772
  67.5693283  59.7917442  35.5395355  66.8927917  58.7022285  36.3434258
  49.7268944   1.7649670  17.7550125  49.0367317   1.3977919  18.3073635
  49.3479118   1.7796248  16.8761559  78.8406296  31.5722961  24.2356434
  78.7007904  31.3014965  25.1430283  79.4402008  32.3158989  24.2973042
  32.0360565   0.5021191  25.0661621  32.0278778   0.0687310  24.2127342
  32.8729706   0.9659939  25.0912113  80.0478668  30.6380177  58.0223389
  79.3509521  30.2341156  58.5394554  79.5870132  31.1445999  57.3535881
  66.6123734  63.7391624  17.9685974  66.5657425  63.1610718  18.7300873
  66.4486542  63.1642151  17.2210255  50.1812286   6.7801490  80.9460526
  50.8303337   6.0893574  81.0791092  49.6619720   6.7789903  81.7501678
  66.2498779  70.4916916  45.8498192  66.6257858  71.1597595  46.4230576
  65.4975967  70.1544647  46.3362160   9.9761600  43.7714653   4.0331287
  10.5309830  43.1157341   4.4555278   9.5168924  43.2894745   3.3453841
  69.7067490   4.3226848  58.4718170  69.8063889   4.8094296  57.6536598
  69.3616180   4.9648819  59.0920601  41.5754051  58.0237694  60.2472954
  40.6933022  57.7555199  59.9900627  41.4426918  58.8167763  60.7666779
   2.1239426  47.2776794  58.7699547   2.9399626  47.6731186  59.0765038
   2.3939154  46.4512711  58.3694687   5.6870131  46.7577667  62.5768814
   5.8118811  47.6877060  62.3875427   4.8744769  46.7231140  63.0816727
  13.6326818  11.4954100  26.4683876  13.7506065  12.4178905  26.2417736
  14.5209961  11.1398468  26.4949303  50.4252205  17.5374947  78.2075958
  50.2723961  17.7100353  79.1366272  49.5775681  17.6956367  77.7920151
  29.1058388  59.2145081  82.1488571  28.7307129  60.0058060  82.5353241
  28.4032669  58.5664711  82.2005463  57.5466728  68.8159866  41.8062096
  57.8138199  68.9960709  42.7075615  57.0908546  69.6104584  41.5282249
  83.4080200  39.2292862  67.0037918  83.4773026  40.1454926  66.7354736
  82.9907532  39.2627106  67.8646088   7.9782166  53.2113342  56.3133698
   8.5012455  53.7630081  56.8950310   7.0754490  53.4902992  56.4664040
  48.9141350  25.6819496  15.0898180  49.4387550  25.0068970  14.6593409
  48.9111137  26.4131393  14.4720926   2.2151256  64.2674637  57.7769051
   2.2013555  64.8190613  58.5590706   2.9640574  63.6857796  57.9071960
   8.9426041   2.7717593  81.8956985   9.4229631   2.7956316  82.7232971
   8.0619984   3.0716484  82.1211548  70.5310440  60.8783913  33.2401352
  71.0728455  61.2727432  32.5566406  71.1261368  60.2944870  33.7103996
  54.8012009  61.7666473  32.7593307  54.2691879  60.9773254  32.8601379
  54.6469460  62.2636681  33.5627022  49.3005180  58.0295258  25.7679939
  49.4200859  58.7456360  26.3917923  48.5952492  57.5013618  26.1419830
  12.1342115  34.5885849  31.4544659  13.0595627  34.8258400  31.3939018
  11.6712723  35.3266525  31.0580139  22.8785973  58.4237595  17.0957584
  22.5098267  57.6054077  16.7632751  23.3545856  58.1683617  17.8859749
  55.9739189  23.9896641  88.0187149  56.8680687  23.6578121  88.0999374
  55.4346924  23.3368893  88.4652023  60.3808594   9.5399342  29.9164963
  59.7565193   9.7910471  29.2357807  60.8700829   8.8106937  29.5355721
  83.9229813  42.1102409  68.3946686  84.2748642  42.7860680  68.9740295
  83.8789291  41.3255424  68.9410553  65.0473862  18.3391838  27.7476254
  65.0002060  17.9720612  26.8648872  65.7344284  17.8329659  28.1811543
   4.3028002  32.1093788  73.6850586   4.9856200  31.8128700  74.2867813
   4.6209188  32.9507027  73.3576355  82.8473892   4.5164585  61.1231842
  82.2465439   4.1659479  61.7807236  82.3402634   4.5168934  60.3113594
   5.7484694  21.9720402   6.4450684   6.6437221  21.7335548   6.2044873
   5.4357271  22.5002556   5.7106209  18.3217506  53.4929695   3.5624478
  18.3808784  54.4249573   3.7725148  18.5408230  53.4427986   2.6320062
   7.2076468  16.7066040  42.1136742   6.5031638  16.0927353  41.9060669
   7.7127018  16.7744942  41.3033981  76.5959778  43.0392342  45.3927879
  76.4941940  43.8803558  44.9473877  77.1983948  42.5451241  44.8367462
  27.0728550  47.3025856  70.9762115  26.6432037  47.9354706  71.5516129
  27.4842815  47.8371124  70.2970657  20.8459415  18.7314396  75.7407684
  20.1431141  18.5510063  75.1165009  21.2680569  19.5219116  75.4043045
  32.4128952  27.7366409  27.7693501  31.7428532  28.3588200  27.4862061
  31.9296131  26.9308624  27.9520874  19.5867672  70.9139175  11.1244688
  19.8212166  70.5011215  10.2932863  18.6422901  71.0567703  11.0629406
  27.4911308  49.2500267  22.3942394  27.6565781  50.0181160  21.8475246
  27.3426208  49.6068459  23.2699432  45.3479347   7.3094683  34.2514229
  46.2267647   7.0134439  34.4886055  45.4381409   7.6337962  33.3553696
  19.1638832   0.5459318  38.1164703  18.6657200   1.3616394  38.0646477
  18.4972210  -0.1389312  38.1689606  76.1473236  26.2968445   8.3021631
  75.3430862  25.7978954   8.4452934  76.0116119  27.1131134   8.7833281
  58.4870033  45.4387398  29.8520889  57.8735466  45.2122154  30.5510845
  59.1966553  44.8025246  29.9407349  26.8354950  51.1480408  58.3346214
  26.7971287  52.0855942  58.1455345  26.1153545  50.7719574  57.8284683
  58.0815048  54.8619804  77.2361298  58.7876167  55.4355354  77.5338974
  58.4989891  54.0084496  77.1202469  26.8678799  67.0762634  79.1982422
  27.3503685  67.6450043  79.7982254  27.4444275  66.9842453  78.4397202
  19.6625748  45.4391365  58.5287323  18.7798767  45.3837471  58.1626587
  19.5816059  45.0663757  59.4066391  14.3211985  50.3950310  71.5921783
  13.6672192  51.0840263  71.4745789  15.1203823  50.8623581  71.8353653
  16.9984856  64.9483261   7.0198746  16.2894096  65.1139755   7.6411686
  16.5919056  64.4308090   6.3248224  46.4493828   2.0818655  61.5383530
  46.5429230   1.8566440  60.6127396  47.3219528   1.9453588  61.9074326
   6.6898026  39.0838203   8.2465801   7.0363770  38.4203682   8.8431978
   7.3563199  39.7707901   8.2390575  33.2499428  16.3849220  75.2626801
  33.6599388  16.9616718  74.6180878  33.9822922  16.0299740  75.7665710
  82.3513107  46.2852554  48.2214088  82.4657364  47.0695534  47.6847382
  82.3595047  45.5624161  47.5939789  62.6885490   8.9903336   0.5804512
  62.6629639   8.5159006  -0.2505066  62.4157524   8.3453550   1.2329975
  34.6256981  28.4853039   5.4294424  34.7916908  28.3250065   4.5004735
  34.1713676  27.6985435   5.7308106  81.1528473  71.6317139  17.5519314
  81.2366409  70.6879272  17.4159966  80.3310776  71.7324829  18.0323200
  13.2132082  27.4980888  24.0701809  12.2659655  27.4624004  24.2031841
  13.3186655  27.8866940  23.2017937  47.7015076  51.5517387  47.6422272
  47.1039238  50.8288307  47.8333740  47.7607536  52.0374336  48.4649200
  72.9198608  28.4366112  13.3581009  72.5790253  28.4202499  14.2524137
  73.3413849  29.2922649  13.2780504  63.3800430  24.5079136  51.7308922
  64.3039551  24.6062241  51.9610138  63.3552437  23.7375469  51.1633072
  79.8205948   0.1317311  37.8747368  79.9514389   0.4195580  38.7782135
  79.8349304   0.9396005  37.3615379  47.4943848   9.8103266  49.7105942
  46.6838264   9.3801537  49.4382439  47.9496994  10.0041056  48.8912201
  76.2868652  18.1822128   0.5156059  75.3927460  18.5175819   0.5813348
  76.6300125  18.5711346  -0.2888946  61.0175743  65.8454742  66.8394775
  60.5219994  65.3383789  66.1964493  60.4150009  65.9533234  67.5753555
  84.9440918  56.8235092  46.2195244  84.1340408  56.4457588  46.5620918
  84.9608612  57.7135353  46.5713806   5.9989724  25.5866127  88.8527679
   6.1900916  25.0109787  88.1122665   5.0448651  25.6634083  88.8564224
  58.6892471   3.2590861  46.6409721  58.5219727   2.4072664  46.2376709
  59.5339279   3.1549504  47.0790405  65.5133896  47.0140114  17.7744503
  66.3783264  47.4222527  17.8126030  64.9000320  47.7468491  17.8289566
  15.7406836  29.1202755   8.4996939  16.0750275  29.7076035   9.1775513
  14.8461447  29.4218826   8.3413715  85.0041809  14.2591496  63.5835724
  85.6249161  14.9436054  63.3336983  84.3895874  14.6966543  64.1727295
  82.5938797  27.0824223  55.4027443  81.9667358  27.7544556  55.1357460
  82.1213303  26.5567055  56.0481491  70.8896179  32.1146965  43.6890373
  70.0685806  31.6330795  43.7899475  71.2011414  32.2472305  44.5843697
  82.3569870  26.5913200  73.2669525  81.9813690  26.1991444  74.0552063
  81.7649994  26.3272572  72.5626450  52.5075378   3.6219265  39.5602684
  51.8409195   4.3084931  39.5821228  53.1441956   3.8850050  40.2248688
  58.8421898  39.7197380   0.2761801  58.6154594  39.0037498   0.8696284
  59.7292137  39.5142784  -0.0191292   4.4854684  34.5031548  52.8774719
   4.0122857  33.6794930  52.7595329   4.8814673  34.4296684  53.7458153
  47.1155548  22.4517727  67.1375122  46.6653214  22.7383785  67.9321060
  47.5679893  23.2344818  66.8230286  33.1734047  47.1553955  74.1081009
  32.4499893  47.2088547  73.4835663  33.6024361  48.0091782  74.0513153
  77.6617355  36.4755478  70.2981110  78.2021332  36.5394783  71.0855865
  77.6694794  37.3590736  69.9299316  50.5870552   6.5317841  68.0319214
  49.8430977   6.6858521  68.6141739  50.5022774   5.6142807  67.7726288
  12.4045753  41.1108856   1.9337620  11.8887043  40.3050308   1.9603585
  13.3028536  40.8154411   1.7852973   7.4804907  13.2172594  56.4261055
   7.7426333  12.6005402  57.1096039   6.5703969  12.9904137  56.2350502
  25.4302197   2.4388199  16.7019997  25.6694183   3.2140212  16.1939850
  25.9240341   1.7255814  16.2974396  47.1668510  56.2798805  78.4613190
  47.4214287  56.5553894  79.3419571  47.7511139  55.5486603  78.2608490
  75.0044556  21.5387440  76.8977585  75.4873276  22.3077412  77.2005997
  75.6162796  20.8115005  77.0118713  26.3211956  11.9030056  73.9089203
  26.6597271  12.5928698  73.3382111  26.1101303  12.3516264  74.7277145
  65.4005356  46.9001961  67.7404938  65.6054993  47.2049179  66.8565445
  64.4718628  46.6709175  67.7054825  71.2994766  42.0171967  29.6631699
  70.7954865  42.6478043  29.1488152  71.9552917  42.5472450  30.1161423
  59.6181717  34.7857170   9.4794588  60.0910034  34.6241798   8.6630249
  58.8275642  34.2508354   9.4082203  52.0618172   0.0714566  74.5429840
  52.6773872   0.5011443  73.9491272  51.4924164   0.7772086  74.8494644
  44.4479675  48.4393768  71.4854965  44.0700912  49.1633224  71.9848404
  43.8769226  47.6946449  71.6739502  80.3870316  20.6721878  51.5126266
  79.6020432  20.4354916  52.0065842  80.1549606  20.5043850  50.5992737
  39.9097710  66.3237152  23.3500595  39.7046013  65.8333588  22.5540104
  40.4488029  67.0550308  23.0486526  75.5730362  14.9309845  51.2730789
  76.3661270  15.2029991  51.7348633  75.8934250  14.4851475  50.4889793
  69.8384247  23.3669872  69.9167404  70.3244171  24.0494747  69.4538651
  68.9860687  23.3430557  69.4818344  64.6895523  40.5575562  50.2607651
  64.6874390  41.1202126  49.4864006  64.9271545  39.6922836  49.9274712
   0.0846590  47.0980148   7.3755493  -0.6920132  46.5390091   7.3984637
   0.8044000  46.5183640   7.6249733  80.2388992  50.3285637  29.1963482
  79.5734940  49.7817116  28.7787037  80.0802078  51.2062492  28.8489056
  28.0569954   9.7794285   5.4436531  27.5710335  10.3010550   4.8049207
  27.4270573   9.6111584   6.1444349  59.5755730  24.4726124   4.3648376
  59.6567307  25.3261871   3.9393318  58.8196297  24.5649643   4.9447088
  27.3496933  60.1399345  10.9564409  27.3324375  59.3630219  11.5153141
  28.1693611  60.5795097  11.1826038  20.5872307  53.7239304  78.4305420
  20.8798847  52.8491516  78.6861649  19.7209473  53.8123398  78.8279953
  22.0449638   4.9962287  43.4398003  21.7839394   4.6845546  42.5732231
  21.3674812   4.6630878  44.0282440   9.5816526  50.1905403  20.3440208
   9.3587036  50.4722328  21.2312508   9.7456179  51.0048103  19.8682938
  50.0724144   0.2401627  24.2365265  50.0256424   0.6548578  23.3750916
  49.3518715   0.6316671  24.7302589  69.3970413  36.7779388  56.2349930
  70.1240082  36.2368698  56.5432129  68.8371964  36.1725502  55.7488747
  39.7908020  18.6441441  67.7114792  40.3519249  19.0106659  68.3948746
  39.8329544  17.6978035  67.8489380  21.2950382  12.7971611  22.3785572
  21.9612999  12.6236887  21.7135506  20.4898624  12.4317760  22.0119228
   7.3151984  10.8057346  46.5871811   6.6878519  10.7222242  47.3053017
   7.1528029  11.6777840  46.2274742  81.4872055  44.8876610  68.8490982
  81.1854095  45.7200356  69.2128372  81.7955170  44.3923950  69.6079712
  43.3314743  45.7549362  64.3519592  43.8750496  45.3302040  65.0155563
  42.6261292  46.1689682  64.8492508  14.0458164  44.7326469  44.5170708
  14.0717115  44.1291962  43.7745018  13.2054014  44.5561752  44.9399109
   3.7415180  20.2952461  16.5458279   3.9524226  19.4456196  16.1586800
   3.0658362  20.1013222  17.1955051  81.0039825  10.5931635  36.3516006
  80.9960861  10.5335636  35.3962898  81.8200302  11.0496426  36.5563622
  24.2066879  69.2579346  44.3262901  23.7513638  69.8490677  43.7267303
  24.0899220  69.6553879  45.1892128  64.5544357  17.4011021  76.9171295
  63.9612427  18.0682163  76.5717087  64.7055588  16.8099461  76.1796112
  16.6367760  29.2457371  26.3840218  16.2550201  29.9156876  25.8168716
  15.9362841  28.6041298  26.5018597  72.5209045  22.5859337  35.5857544
  72.4553909  23.5340710  35.4718437  72.9986801  22.4759178  36.4078636
  44.0248070  58.6563339  31.2988682  44.9699860  58.6909676  31.1516800
  43.9164429  58.0279541  32.0127487  50.3187065   8.4632959  46.9185104
  50.8707428   8.4560900  47.7004547  50.2552185   7.5433888  46.6616631
  71.8289719  39.6341896  20.8483734  70.9436798  39.2761345  20.7829494
  71.7450562  40.3715019  21.4529896  33.1148148  12.0828247  26.5944195
  33.4239388  11.6587925  27.3949642  32.2565804  12.4371166  26.8271008
  12.9031487  30.9477386  12.8953619  13.6776562  30.5922928  12.4594393
  13.2521610  31.5668068  13.5365925  55.5518112  40.4235382  64.7619476
  54.8296890  40.6238594  64.1664276  55.8557968  39.5584373  64.4873047
  83.3140717   0.7030138  73.5410461  84.0332794   0.3814965  74.0847321
  82.8297577  -0.0848359  73.2941208  41.9884491  35.6647224  23.3489494
  42.6147346  36.2924309  23.7094746  41.3540001  36.2037926  22.8766022
  47.1582756  29.9320354  88.9534073  46.6430969  30.7033081  88.7168503
  46.6993713  29.5591164  89.7061157  62.3002510  68.2770309  26.9522381
  61.9253159  69.1397858  27.1291637  63.0474167  68.4532547  26.3804703
  68.1446762  48.8574333  42.4916649  68.2356110  49.3522987  41.6773758
  68.4143982  47.9679947  42.2627945  68.5801849  28.7478027  62.5474167
  68.6028137  29.7020016  62.4751434  68.7339554  28.5742340  63.4761047
  28.2288208  70.6275482  26.1685734  27.6684227  70.8991165  26.8955097
  28.8058376  69.9636230  26.5460472  76.7162704  18.3925743  58.9386063
  75.9384155  18.6032600  58.4220963  77.2102280  19.2117672  58.9727325
  30.1350384  52.8509254  36.7524452  30.4135609  53.6049728  36.2327614
  29.1788616  52.8943710  36.7441826  12.4481773   1.1454060  12.0230198
  11.8295050   1.6517019  11.4965773  12.8437634   1.7881504  12.6117668
  43.0390739  60.8653870  29.5641098  43.8241119  61.3102798  29.2447128
  43.3710365  60.1839142  30.1485996  63.0775948  42.7228279  40.3764305
  62.7775917  42.4414253  39.5121155  63.1786346  43.6714249  40.2977676
  25.9385700  54.7734299  50.8138962  26.1383495  54.3780403  51.6624184
  26.7947083  54.9358444  50.4178162   4.2507143  15.0642376  34.0503845
   3.3953431  14.7045317  33.8154716   4.8793554  14.4224052  33.7200890
   1.0115951  52.6996498  77.6129074   1.0707576  53.6520729  77.5379257
   1.2272353  52.5175476  78.5275497  83.2307281  26.2115707  22.2176647
  83.2881165  26.9549618  21.6174068  83.0484695  25.4608650  21.6524620
  57.0875397  28.3162251  12.4273663  57.1565437  29.0225010  11.7849941
  56.2595329  27.8833485  12.2193756  70.5244598  63.3034325  82.7211990
  70.1109619  62.8155251  82.0090179  70.2485199  64.2094574  82.5826187
   0.4104444   0.4214534  64.7264709   1.1674581  -0.1545650  64.8330765
  -0.0827003   0.3220794  65.5408173  29.4084034  56.3207893  53.5019341
  28.8002605  56.5913239  52.8140335  29.6396389  57.1340714  53.9506340
  78.1800766  12.2188492  65.5681534  77.2732620  12.4192562  65.8000031
  78.6669846  12.3340406  66.3841705  71.5988998  44.5428162  42.0892944
  72.1507568  43.8299789  42.4110756  71.0396500  44.1334457  41.4290771
  53.0912819  44.2788429  67.3974686  53.9948845  44.0728416  67.1581039
  52.6784172  44.5379829  66.5736847  18.8245678   1.4391965  14.3171377
  19.2045441   2.2003338  14.7559071  18.1170521   1.1570286  14.8968220
   2.8644083  62.5517883  26.1625614   3.4044607  63.3360329  26.0648880
   3.1139469  61.9956970  25.4245090  50.2033691  24.7714558   3.9425392
  51.1360207  24.5991383   4.0717769  49.7692223  23.9687519   4.2313519
  68.7754898  41.6556244   1.7182933  68.4942551  42.5065308   1.3819939
  68.2346497  41.5145454   2.4953485  52.5572853  50.2513695  66.0579987
  52.9904404  50.7371178  66.7598953  52.4274521  49.3742180  66.4185257
  37.3305244  26.9601517  83.5132675  37.9928207  26.5322113  84.0559158
  36.8070793  26.2399826  83.1617126  81.2962799  19.5668087  61.6135559
  81.2043381  18.7589016  61.1085167  81.4985199  20.2361794  60.9598923
  70.1613617  29.2408218  68.1465454  69.8263550  28.3530197  68.2722778
  69.9489822  29.6946983  68.9620972  65.8211899  45.3699379  15.5288315
  65.4839096  45.9708099  16.1932316  66.6811981  45.7230759  15.3009796
  86.2560043   8.2744646  81.4728088  85.5013199   7.7080231  81.3121109
  86.1610947   8.5467072  82.3855515  64.7615814  20.7549038  30.4194927
  65.5749054  21.2479897  30.5272293  64.7627640  20.4889164  29.4999924
  81.8444214   1.8834159  55.0882034  82.1994934   1.7387996  55.9652672
  82.6021118   1.8098148  54.5079269  74.7026062  31.1371269  54.7867546
  75.2121811  31.0117588  55.5872841  75.3477707  31.4021416  54.1311951
  28.6417446  26.1295052  85.6731644  27.8052120  25.6698666  85.7451248
  28.9862919  26.1410141  86.5661316  63.1609573   0.2699187  78.7691116
  63.1099968   0.9716539  78.1201096  62.3647003  -0.2428852  78.6304169
   9.6007423  47.7125053   7.7562175   8.6573839  47.8746872   7.7542500
   9.8899517  47.9916801   8.6249247   6.3082800  41.0015373  37.5560303
   6.0190182  41.7327995  38.1017532   7.2268195  41.1928215  37.3664818
  46.7040825  13.9538174  77.7504578  46.7450752  14.4576435  78.5633011
  47.6196976  13.8007221  77.5171280  32.3051300  17.3158035  28.3073654
  32.0530128  16.4335175  28.5798416  31.4754677  17.7840881  28.2146187
  85.2463608  23.8840179  66.3664932  85.0631561  23.3186340  65.6161499
  84.9660645  23.3728161  67.1256638  68.1155472  35.2237625  49.0410728
  68.1871872  34.3919830  49.5093079  67.3981628  35.0890160  48.4218483
  80.4504089  29.5975170  35.1475906  80.6551666  30.2826405  34.5112686
  79.6192551  29.8714561  35.5353737   5.0597363  31.0742722  25.7008591
   5.7915864  31.2188473  26.3006306   5.2338467  31.6608524  24.9647617
  60.2589111  41.8961830  51.1411629  61.1507378  42.0271950  51.4632072
  60.2191086  40.9662628  50.9177933  72.3859482  17.4913712  13.5005589
  71.4757538  17.3375969  13.2473307  72.8217316  17.7434616  12.6864500
  43.7340584   9.9348459  55.6954651  43.3391876   9.1386328  55.3400040
  43.6920433  10.5648127  54.9760170  67.9302521  20.0337372  84.7386856
  68.4747162  20.8080273  84.5963058  67.7789078  20.0178452  85.6837158
  70.1436996  38.3799591  39.0580139  70.1490173  37.6888046  38.3958130
  70.0217972  37.9167213  39.8867378  33.7668533   1.6447396  67.8666306
  33.1049652   1.6791011  68.5572510  33.3606758   1.1275078  67.1711273
  81.9052658   8.9770346  10.0750771  82.0044556   8.9045095   9.1257963
  81.3098984   9.7164164  10.1978903  38.4711571  69.9389954   8.9137449
  38.0732994  70.2984009   9.7066927  37.7844543  70.0049438   8.2501783
  43.8606949  30.1509628  12.6744661  43.0396538  30.4856796  13.0351486
  44.5229568  30.7784920  12.9640274   9.0641985  55.5282135  77.0911179
   9.0197973  55.3657265  78.0333862   8.3320522  56.1191864  76.9152222
  62.7888565  54.4983864  81.4345627  62.2113762  55.2549438  81.5363998
  63.4848213  54.8048363  80.8532257   7.0479388  33.2586823  57.5428886
   7.9725518  33.4442177  57.7069016   6.6182642  34.1119766  57.6020660
  52.0444679  49.5969353   8.9619513  52.2362328  50.3702278   9.4924955
  51.1557503  49.7431870   8.6378860  81.3038940  65.2540741  73.4997787
  80.7120132  65.5824432  72.8229599  80.7316818  65.0479660  74.2389145
  73.7845917  66.4753571  66.2102127  73.8705215  65.5333939  66.0633774
  74.1890106  66.6223526  67.0652390   1.9237592  49.2482109  37.8778305
   2.7029674  48.8151283  38.2264061   2.2478385  49.7695045  37.1433525
  36.4788666   0.2331632  68.6898422  36.0565605   0.0815057  69.5353546
  36.1657104   1.0955456  68.4169617  32.7490997   0.2416568  22.4798317
  33.0460587   0.7832403  21.7485752  33.4094963   0.3744546  23.1598854
  69.2484207  53.2300529  69.5061340  69.4028778  53.3549500  68.5697708
  68.5377121  53.8364067  69.7146149   6.5379953  70.0152283   4.3722906
   5.9644179  70.2877808   3.6560795   7.4150524  70.2722931   4.0878258
  18.3546085  32.9915619  26.3102760  18.8827724  33.6754951  25.8985634
  18.8804035  32.1966820  26.2211876  60.1773109  10.6934595   8.4946575
  59.6082230  10.4398737   7.7679777  60.4285240   9.8647795   8.9025955
  73.2719193  24.0342007   4.6636901  73.9639053  23.4123688   4.8888712
  72.4967728  23.7050610   5.1187143  25.4895935  56.3491631  63.3474617
  25.2815971  55.9163513  64.1754990  26.0094299  55.7062492  62.8651161
  76.5819626  53.5002518  20.3462887  77.3031387  53.1875229  20.8924828
  76.2052841  54.2282028  20.8406944  75.4466248  44.7952576  76.2686462
  74.5126877  44.6122742  76.3711166  75.4931793  45.7438850  76.1496048
  52.1993790  67.4095459  83.6276703  51.9122620  68.3138046  83.7546082
  52.9755058  67.3247070  84.1814346  25.2022018  31.9987736  17.2625122
  25.8903103  31.8179073  17.9028435  24.3875713  31.7974052  17.7230129
  10.0821667  17.6471424  69.0674210  10.6219044  18.3769684  69.3711777
  10.6847792  17.0944786  68.5697708  78.6485214  45.9903870  67.8902664
  78.8722687  46.8883972  67.6458282  78.9939194  45.4546547  67.1761780
   7.3258209  54.5952530  51.1146202   7.2106833  53.7727737  51.5905418
   7.6164460  54.3286400  50.2424469  49.3697739  57.4976006  66.6704407
  50.1796074  57.1350136  67.0295105  48.7043724  56.8380966  66.8667145
  65.8942947  47.5818100  76.2867050  65.8852768  48.4760857  75.9455032
  66.7888718  47.2767372  76.1353912  41.5297203  56.5344505  80.2594376
  40.5902023  56.6186600  80.0968018  41.6358337  55.6444016  80.5952606
  77.4308090  56.8812599  56.6447563  76.5073395  57.0776558  56.4870682
  77.8964920  57.6610947  56.3427124  64.5210190  18.9780960  37.2313690
  64.2472382  19.7639122  37.7044067  64.4144897  18.2681198  37.8644676
  42.1398239  39.4933662  86.6745224  41.9687576  38.6744614  86.2093735
  41.9973602  40.1757088  86.0185089  13.2440052   4.0749512   9.8809862
  14.0859547   4.0335417   9.4275122  12.9890318   4.9961033   9.8290367
  24.5375671  56.8127060  69.6943436  24.8320370  56.0576477  70.2036667
  23.8411274  57.2016258  70.2234421  24.6537132  57.5644188  86.2545242
  24.9464512  57.0409622  85.5085144  24.1956577  56.9417191  86.8190231
  72.2905273  61.3480415   6.4268832  73.1812057  61.2123299   6.7501459
  71.8377075  60.5273132   6.6207657  52.7590370  57.0003815  17.7590427
  53.2612610  57.7289009  18.1240921  52.6565590  57.2203064  16.8331032
  74.2590942  32.7869644  45.4588013  73.3426743  32.6888046  45.7171898
  74.7468338  32.2822456  46.1096497  36.4267235  44.8192482  86.3330231
  36.0449333  45.6891785  86.4500198  36.6375542  44.5288925  87.2204208
   6.1566305  43.7435799  60.2542496   6.5989866  43.7347794  61.1030579
   6.8529797  43.5749817  59.6194992  63.6605949  39.1643448  28.8206692
  63.6824837  38.7412148  27.9623489  64.1830063  39.9586754  28.7095127
   7.4222441  22.8642044  22.2446461   8.3604193  23.0345364  22.3285847
   7.0568452  23.1123524  23.0938435  56.5173569  41.3003731  33.0730171
  55.8404160  41.8864517  33.4113884  56.0749512  40.7896271  32.3950424
  70.9456024  40.9950447  37.5509644  70.7555695  40.1763382  38.0090446
  71.6953201  40.7887306  36.9927597  79.0075073   0.4912431  19.4714069
  78.7326202   0.6312047  20.3775406  78.3349915  -0.0815845  19.1028614
  60.9814186   2.2871020  68.1890030  60.5287514   3.0817802  68.4715118
  60.5091057   2.0084722  67.4044571  14.9168444  71.4338531  15.7598362
  15.2048426  70.7263107  16.3366184  15.3305836  71.2405167  14.9186029
  69.2200241  59.5497704  67.3258591  68.3744431  59.4017982  67.7493362
  69.0319519  59.4928513  66.3890457  16.0897121  70.0252457  46.6384926
  15.8323469  69.2481079  46.1424599  16.3829060  69.6839066  47.4833374
  79.7905502  56.4900055  71.8766098  79.1460876  55.8928642  72.2565079
  80.5802231  56.3549500  72.4004440  28.8524609  62.7200890  20.3687744
  28.3186378  62.7252922  19.5742722  29.6346340  62.2233734  20.1285419
   6.2614856  43.5818634  17.8523712   6.9649234  44.1338844  17.5107861
   5.7866344  44.1481056  18.4607430  17.8448772   2.0479381   9.2777061
  16.9590912   1.8955350   8.9484844  17.7643394   1.9673085  10.2280979
  10.5128479  64.3375244  47.6338272  10.3156900  63.5704384  48.1713638
  10.5179825  64.0058746  46.7359352   3.7342894  61.4863815  30.9558697
   3.4139876  61.3887215  30.0591526   4.2397399  62.2991371  30.9424763
  27.1316624  11.4274769  20.1605835  27.3505630  11.9332008  19.3779240
  26.3168087  10.9785013  19.9354935  25.6765995  40.9647598  70.4887543
  26.4021378  41.4890137  70.8278503  26.0058136  40.6044388  69.6653366
  78.7894135  28.8048820  38.0559425  78.3309402  29.2694016  37.3557587
  79.1271820  28.0132675  37.6370277  56.0151215  10.7642927  35.7991714
  55.1356697  10.6807785  36.1677170  55.8693657  10.9885645  34.8801041
  46.8739471  56.3488998  39.8311577  47.2796898  56.8436852  39.1192589
  45.9361916  56.5142326  39.7336388  61.8083420  62.8317451  12.8421631
  61.0288963  62.5927811  13.3437538  61.6824188  62.4137726  11.9902964
  79.7833862  31.1788635  18.5866032  79.9240417  31.9343739  18.0159435
  79.5023804  30.4808445  17.9949665  28.3941307  59.5626373  30.2022610
  28.8195744  58.8243675  29.7661572  27.4612675  59.4391975  30.0268726
   3.2241139  17.3545589  31.2536545   3.1815686  17.4863644  32.2007828
   3.9513762  16.7447929  31.1291218  54.4053688   3.7294171   7.4507604
  53.8299446   3.0085714   7.1948318  54.3331528   4.3596168   6.7339168
  37.5223236  23.1634026  87.4173279  37.7699852  24.0833492  87.3246307
  38.3053436  22.6773376  87.1587753  57.6691284  65.0262985  85.9085236
  57.3313751  64.9417343  86.8001556  57.1949730  64.3617401  85.4087601
  60.8922806  20.4461250  27.3269138  61.3925896  21.2590656  27.2558384
  60.5295830  20.3107891  26.4514904  28.4870262  19.0799389   0.5561275
  28.9832878  19.5551243  -0.1103228  28.7947540  19.4416790   1.3871987
  70.2733917  29.3331375  47.1172409  70.2413177  28.9764347  48.0049133
  70.5038300  28.5848522  46.5666046  69.5830383  12.4278297  47.2310867
  70.1368561  11.6482430  47.2730370  69.9662018  12.9564447  46.5311012
  60.7822571  65.3132248   6.0679588  61.5087700  64.6955414   5.9850140
  60.2480583  64.9604950   6.7796130  55.8974571  18.3648567  65.3152313
  55.6556244  19.0004539  65.9888458  55.5292740  17.5369606  65.6238708
   5.6525631  31.1949234  87.5041046   5.2109799  31.3387985  86.6671219
   6.5699983  31.0546360  87.2698746  83.9043045  35.7775917  47.9399643
  83.0317459  35.5054359  47.6556854  84.1943741  36.3931503  47.2667847
  25.4993763  65.4368286  67.9372711  25.9382381  65.0404892  67.1845779
  24.7738686  64.8433609  68.1313477  38.0659637   3.9313371  65.6984558
  37.2605743   3.4241605  65.5967331  38.7541885   3.2722838  65.7891769
  39.3224831  22.1672020   7.1416764  38.6227303  22.5379562   6.6039801
  39.9265671  22.8958740   7.2843409  33.5040245  54.7556648  50.4604759
  33.0485725  54.9842148  51.2707596  33.7302361  55.5984116  50.0669785
  27.7281551  32.8495865  20.1596203  27.0138721  33.4194221  19.8744488
  27.8719902  32.2579384  19.4210434  26.1510067  65.4909134  28.5122051
  26.3485012  64.7750320  29.1161404  26.7542992  65.3604050  27.7806053
  41.5053940  32.6700287   6.5509033  40.8218613  32.0197411   6.7125940
  41.0829124  33.5105820   6.7275629  58.0135498   2.7540610   4.5698242
  58.6486931   3.2673941   4.0705118  58.2858810   2.8573966   5.4816298
  81.7336426  55.5814323  18.0174484  81.3730087  55.1705818  18.8031807
  81.9029846  56.4870872  18.2769508  25.9416351  22.3717613  70.2308350
  25.0912151  21.9863720  70.0199051  26.5788498  21.7770882  69.8351669
  58.2107162   3.5196443  73.1504974  58.1199799   4.4548321  72.9676819
  57.9439125   3.0897641  72.3379440   6.5379276  10.3095350  30.2246513
   5.9266448  10.9310398  30.6199951   7.3614912  10.7928381  30.1583672
  42.8723984   0.2845208  73.3456192  43.5419807  -0.3028526  72.9950714
  43.3327103   0.8081414  74.0014954  68.4557571  23.4487953  55.6419830
  68.4245911  23.1733627  54.7257996  69.0313187  22.8111553  56.0643349
   8.6058979  67.9252853   9.2575159   7.8162074  68.0456924   8.7301416
   9.0445232  67.1713333   8.8633041  60.3266068  67.3508911   9.3001928
  59.8206139  67.8064499   9.9730024  60.7934952  68.0475998   8.8388357
  10.6197243  64.3470078  32.4374390   9.9924536  63.9595490  33.0478821
  10.9501324  65.1213684  32.8928947  64.3174210  40.3488197   8.9285049
  63.8835526  39.9440994   9.6796293  63.6110954  40.7804565   8.4478598
  32.3401756  54.6846008  14.2109394  32.6956978  53.8093872  14.3653469
  32.0244293  54.6589317  13.3076782  36.8638611  60.6623917  25.7796440
  36.6957664  60.1954613  24.9611397  37.7801781  60.4717789  25.9802990
  38.7465668  71.1898727  61.4985771  38.1248665  70.4831314  61.6724586
  39.5448875  70.7428284  61.2173920  46.7184029  13.6900902  17.2579727
  47.2423325  13.4800682  18.0310326  45.8517723  13.9002447  17.6058483
  16.2121239  51.5334129  20.2318630  16.7822304  51.1109352  20.8742981
  15.3368225  51.2033615  20.4347095  80.3402863  49.6582184  54.4303436
  81.2566833  49.8388100  54.2209740  80.3417664  48.7578201  54.7551727
  34.8082733   1.5993775  84.8785934  34.1791039   2.0211842  84.2933960
  34.6802139   2.0343621  85.7215729  52.6216087  13.0837774  46.3917923
  52.8864861  12.1965933  46.1489410  53.0058060  13.2198191  47.2578850
  39.8173866  36.4899826  17.0994968  39.0088120  36.5514603  17.6080856
  39.5983963  36.8803139  16.2533798  55.8890953   1.9874530  50.0053406
  55.9505806   1.4277364  49.2312813  56.5067139   1.6038636  50.6279488
  35.3859863  50.9050941  59.7998466  35.1211548  50.0205269  60.0521164
  36.2507362  50.7927895  59.4050903  52.3241081  26.5642967  85.5376816
  52.8666458  26.9458275  86.2278366  51.4514198  26.9262466  85.6914291
  69.6072693  62.9049187  88.1995239  69.9940948  62.3595276  88.8844681
  70.3521271  63.1865540  87.6683960  11.3085508  13.1991377   1.7541358
  11.0781603  14.1065054   1.9537243  11.1799679  13.1217699   0.8087721
  69.4044647   2.0550587   7.8743110  68.8926773   1.4829018   7.3025198
  70.2243500   1.5815907   8.0151901  41.5718460  52.7564812  16.2685242
  41.2326012  53.0911446  15.4383793  41.1091728  53.2613525  16.9373055
  84.9941559  47.0603638  69.6530457  84.9386368  47.4732971  68.7912827
  85.6239624  47.5961494  70.1352386  73.2054367  43.9821243  48.2280807
  72.9789352  43.1376076  47.8385696  72.5015869  44.1538429  48.8536491
  27.2845592  17.4755077  26.7327023  26.9500771  18.3290596  27.0080299
  26.9120369  17.3420773  25.8611202  60.4235725  17.9011440  46.7494545
  60.2429276  17.2406883  46.0805779  59.5873489  18.3496418  46.8751984
  61.9529724  10.4465570  21.0223236  62.2234001  10.7286949  20.1485386
  62.7689095  10.3930092  21.5199318  39.2854195  14.6521187  36.6198387
  38.8845177  15.1263704  35.8914185  38.6464920  13.9762754  36.8462029
  37.7573662  68.6064301  21.6768475  37.2385025  68.4722061  20.8837547
  37.2654762  68.1566467  22.3638496  51.0783119  12.5526180  15.9328461
  51.4068794  12.3313847  15.0614510  50.1523170  12.7527113  15.7959852
  47.5225525  17.4671364  17.8853226  47.0400696  16.8299160  18.4120045
  47.5580711  18.2519760  18.4321289  67.9381943  15.3961926  11.6372967
  67.0365753  15.0919342  11.5336065  68.4734268  14.6201315  11.4715061
  40.7043953  55.1425438  54.5401993  41.4533844  55.2631912  53.9565125
  40.0136871  55.6843681  54.1586533  60.0284004  64.7778854  64.4970322
  60.3295937  64.1166000  63.8739624  59.3606071  65.2702103  64.0196533
  85.9466248  31.9063206   9.3660736  86.5723877  32.6115952   9.5311136
  85.2481537  32.3197289   8.8586655  68.2329483  16.9464417  35.1136055
  69.0929260  17.2646027  34.8389359  67.9574432  17.5591679  35.7954369
  58.3379135  63.3643036  18.2654514  58.1436119  64.0986099  18.8479252
  59.2879524  63.2606621  18.3194256  35.9563942  30.7711086  12.6673412
  35.9918251  30.2114906  13.4431009  36.4923782  31.5307083  12.8952904
  38.3606377  67.7840652  68.0416183  38.0138931  66.9906158  67.6336517
  39.2901421  67.5983200  68.1748352  81.8245850  56.1357994  43.4376297
  81.5482178  56.9875488  43.0994301  81.3196030  55.5010033  42.9294395
  53.9093666   9.5905294  64.3264923  53.9540596  10.1780233  65.0808716
  53.2254868   9.9651661  63.7713432  11.7740650  38.5446472  87.0760193
  12.6437168  38.5438576  87.4759445  11.1795168  38.3313179  87.7952118
  46.9104156  27.5651035  72.1785355  47.6243553  27.0987854  72.6133575
  46.3685150  27.8953037  72.8951492  65.4873047  40.5839615  43.5015717
  65.9004059  41.3209801  43.0516968  64.5507812  40.7795639  43.4716568
  61.6455269  45.9604111  14.4734545  61.0557899  46.5050850  14.9947681
  61.3248024  45.0679398  14.6033220  34.0891151  64.0008240  24.3961048
  34.5259438  64.3983917  25.1493320  34.8029213  63.6547966  23.8604050
  84.2686310  66.6184311  31.7407608  85.0752869  66.5337524  32.2490692
  84.0405884  65.7199936  31.5019531  67.6292572  53.2162704  26.8729324
  66.8227844  52.9049416  27.2839260  67.3485260  53.5605850  26.0250702
  13.5261202  35.4287453  22.6595287  14.3615408  35.4897957  23.1227512
  12.9925489  34.8492012  23.2032795  14.2975836  71.2233124  88.7970657
  13.8887730  72.0368500  89.0924606  14.5455027  71.3958817  87.8887787
  68.9398575  23.2061691  80.1987228  69.8732452  22.9981384  80.1569366
  68.6913528  23.3757267  79.2900238  57.5630379  35.1014900  14.5303078
  58.2824364  35.7321739  14.4996872  56.8234711  35.5623474  14.1342154
   3.0559614  48.0239830  71.5712280   2.4301448  47.3453331  71.8242569
   2.5757229  48.8449211  71.6792297  11.8220806  69.1607132  59.9880791
  12.6417446  68.7652130  59.6914940  11.9653006  70.1030502  59.9002762
  39.7925262  57.1570015  52.5844345  39.1826859  57.6720848  52.0562134
  40.4710045  57.7806282  52.8432617   1.7753221  67.6386642  29.7223854
   2.1486201  68.5119934  29.8414288   0.8406638  67.7521439  29.8949184
  17.7252808  29.3997707  64.5842743  17.3640175  30.2587833  64.8029480
  18.3680019  29.2279911  65.2724838  32.1360092   9.9091148  86.9145355
  31.9035072   9.8320580  85.9892044  31.3715744   9.5729427  87.3823624
   0.1853498  40.6060295  29.9040985   0.4436567  39.9557304  29.2509346
   0.6928741  40.3778915  30.6829453  43.2312622  49.2806740  22.5209885
  43.1571617  49.4096603  21.5754185  43.6337357  48.4172096  22.6141205
  38.7717094  36.6040077  85.5033035  38.4381905  35.7329216  85.7182693
  39.7002144  36.4655647  85.3163757  80.0910263  49.1685295  72.6763611
  81.0426178  49.0834007  72.6174850  79.7671280  48.8135490  71.8485260
  11.9420338  52.2938766  36.0754128  11.5494356  52.5940514  36.8951645
  11.3938360  51.5581551  35.8026009   4.8127866  13.1980400  51.4361916
   5.2700915  13.8862076  51.9194412   3.8881123  13.3343983  51.6426277
   3.7846384  45.6157036  57.1065903   4.5710726  45.0873680  56.9701653
   3.0755069  44.9764214  57.1750069  43.0132484  46.1603317  70.4445877
  43.1611290  46.5936089  69.6039734  42.3532600  45.4928551  70.2571716
  63.0485077  31.6903667  57.9938164  62.9198036  31.0009422  58.6452484
  62.1656113  31.8997650  57.6890602  81.0975723  37.9595413  25.9698677
  82.0330658  37.9992104  26.1686401  81.0347366  38.2388420  25.0564823
  18.5205956   6.1899819   0.5243149  17.8460503   5.9615183  -0.1152348
  18.0323486   6.5005012   1.2868263  77.5333939  39.4807205   6.9512167
  77.0719070  38.6466179   7.0379996  78.0771484  39.3735352   6.1707850
  59.3925705  43.1019554  65.4635391  59.1580467  42.1781387  65.5518188
  59.0246429  43.3628502  64.6192703  82.8682327  62.2939491  16.5731106
  83.5765991  62.8544617  16.8897762  83.2126389  61.9034538  15.7699080
  11.4653702  71.2697220  55.3019104  12.2354746  71.6600494  55.7152061
  10.8050804  71.9623947  55.3233566   3.5993767   1.7568920  12.5632591
   4.1394658   2.3973229  13.0262747   4.2232809   1.1078875  12.2380381
  17.3905964  19.7132301  86.4296265  17.9488125  20.1205444  87.0919876
  17.7183743  20.0543385  85.5974960  43.8256302  59.4539528   8.4495010
  43.2082176  59.0667915   7.8289051  44.6019630  58.8967476   8.3941927
  45.8364182  66.3959732  87.5965805  45.2569466  65.6694565  87.8259506
  45.6917419  67.0444641  88.2856064  64.2909851  54.4076538  60.7968979
  63.4808350  54.3856812  60.2875824  64.9836807  54.4911613  60.1415863
  27.2214470  46.8514748  67.5424118  27.5452480  47.6705322  67.9172897
  28.0108814  46.3382454  67.3703156  73.2522583  47.9890823  45.9561882
  73.7231445  47.2137260  46.2616692  73.7230835  48.7248878  46.3475227
  52.6568336   7.8551702  37.3515587  52.2333374   7.2961922  38.0030365
  51.9411316   8.3647165  36.9716034   7.0629883  48.9096870  16.3931332
   7.3954639  49.3297768  17.1863651   7.6002965  49.2704201  15.6878643
  86.7521515  60.6587563  54.5178528  87.4871292  61.2561798  54.6561279
  86.1925201  60.7861862  55.2838860  66.5119629  60.5714073   8.0941629
  66.3107147  59.9438438   7.3999791  67.1210556  61.1890411   7.6894817
   9.3650293  15.0732346  56.7063370   9.9682093  15.0345955  55.9640999
   8.7715950  14.3344078  56.5714188  52.2674141  18.1874847  21.0938988
  51.4522362  18.6890945  21.0836334  52.1061897  17.4562244  20.4976616
  17.2996655  49.4935989   6.0849919  18.1788292  49.5234871   6.4623632
  17.4196148  49.0784035   5.2309093  65.5126877  67.2408142  12.2491226
  64.9905701  66.4385910  12.2406588  64.8766785  67.9388733  12.4054680
  68.8640823  55.2528915  30.2254257  68.1710358  54.7752647  30.6812744
  69.6444931  54.7108421  30.3410416   5.0088091  67.2346344  67.9930267
   5.5875959  67.9260483  68.3142395   5.5341711  66.7638397  67.3460541
  53.4160233  32.0875015   2.6998394  52.8851891  32.8577538   2.4969566
  54.2459145  32.2430229   2.2489276  66.2117767   9.1229038  28.4387302
  66.7282028   9.6511307  27.8300323  65.9385681   9.7391253  29.1183319
  44.7319298   6.8539171  38.1566772  44.5464439   6.6523271  39.0738411
  45.1005478   6.0442986  37.8033066  41.7299042  64.3085098  87.7508545
  41.1282120  63.5900536  87.5558701  42.6010666  63.9211197  87.6657944
  58.4949493  46.9866562  79.1259308  58.8438911  46.1153793  78.9379272
  58.1690788  47.3012390  78.2826767  72.3078308  62.1913719  70.3490906
  72.2963409  63.1385498  70.2114029  73.0236206  62.0480080  70.9682159
  53.2606277  60.8303223  52.3463860  52.6510048  60.0923920  52.3532295
  54.1260796  60.4266357  52.4116783  71.4942474   3.0041032  67.3998566
  70.5667725   2.7786019  67.3279648  71.8446045   2.3778129  68.0332947
  38.0723801   8.1825867  28.7422543  38.4433098   7.7237625  29.4959927
  37.8913918   9.0655107  29.0646210  17.1408920   5.8076472  66.3154297
  16.6259632   5.1020427  66.7068405  16.5446587   6.5561843  66.2947235
   0.3904684  15.0742626  51.1199036   0.5950401  15.4180231  50.2502975
   0.3287736  15.8508873  51.6760330  63.0410767  64.4738388  27.2982998
  63.1976280  64.9907227  26.5080147  62.1939316  64.7807770  27.6213436
  36.8524666   9.9121933  71.8646774  37.4706573   9.9627905  72.5937271
  37.0350075   9.0670156  71.4540863  70.8768311  20.6276131  44.5468292
  71.3399506  19.9072380  44.9743996  70.4623184  20.2261086  43.7831535
  54.9540863  35.2460365  82.7839737  55.2953987  35.4600639  83.6522598
  55.6309433  35.5496063  82.1790390  60.8437462  51.3368797  15.0929070
  60.2768631  51.9413376  15.5719738  61.4699707  51.9027481  14.6413898
  50.8213654  61.8696289  85.8586349  50.3106575  62.0703392  85.0743332
  51.1483116  62.7189102  86.1553879  57.5628204  33.5847282  24.2092056
  57.1044960  32.7514839  24.1002426  58.3430290  33.5024338  23.6608162
  59.8721733  31.6051769  57.1004562  59.8421364  32.2721405  56.4145355
  59.2318573  31.8990078  57.7484436  13.5424843  28.4808693  21.5590076
  14.1830721  29.0800991  21.1758633  12.6944284  28.8278847  21.2822189
  65.0809402  48.5693283  46.2154999  64.4833832  47.9906998  46.6891479
  65.4896622  49.1019478  46.8977737  77.8333511  44.0132179  25.5951614
  78.0082550  44.7049522  26.2332382  77.5267258  44.4776802  24.8163891
  62.3795815  69.3212051  40.4214821  62.3296318  69.8932037  39.6556129
  61.7990723  69.7295990  41.0637054  80.9798050  43.7563362  13.1327963
  80.0372849  43.6607475  12.9958668  81.3714218  43.0734673  12.5882215
  43.8662643  69.8543549  27.0913258  44.1313820  68.9620895  26.8681602
  42.9969940  69.7558594  27.4797821  84.8620224  43.4520454  77.5953827
  84.0725174  43.2784386  77.0827713  85.0746307  44.3658562  77.4056854
  51.9145203  42.1868439   8.2794199  51.9380531  41.3597565   8.7606697
  51.6204567  42.8306351   8.9238510  67.8231812  31.5471535  34.8787270
  67.3798904  32.3955154  34.8758125  68.7506790  31.7612057  34.7779007
  56.4429893  54.9491043  37.9173431  56.6999130  54.1392021  38.3581161
  55.5421104  55.1016464  38.2026100  78.0147171  68.3406296  55.4649239
  78.0449905  68.6494904  56.3704185  77.0817642  68.2339401  55.2793159
  67.8067245  22.7582226  20.1219006  68.7497559  22.8011780  19.9635296
  67.5017090  23.6568871  19.9970188  79.4510193   7.1594830   1.5590217
  80.0722885   7.8388929   1.2969908  79.6794815   6.4041772   1.0172164
  21.5680408  68.0051498  88.7573700  22.2316284  67.8324890  88.0894775
  20.8076878  67.4958420  88.4768372  45.3513145  41.3351135  84.9422989
  44.9478493  41.7819748  84.1981430  46.2510986  41.6612511  84.9583740
  14.4676867  47.7055244  21.1991463  13.6452303  48.1946716  21.2222233
  14.9729834  48.0517387  21.9347019  54.5116425  15.6358824  46.3788071
  55.3729057  15.2517385  46.2148170  53.8929100  14.9949732  46.0286140
  36.4182129  23.3093967  35.0536842  36.1462288  24.2199898  35.1680260
  36.8867836  23.0962505  35.8606796  72.7433701   9.0665073  82.5464096
  72.8742142   8.1746807  82.2242889  73.6275101   9.3927317  82.7140732
  83.0538406  33.0566216  60.6901474  83.8011322  32.6480255  60.2532959
  82.4265060  33.2226677  59.9865074  62.6194153  53.2546120  43.0432625
  62.8838539  53.2946625  42.1241875  63.1262932  52.5286179  43.4069099
  41.5222435  44.5757179  20.3247452  41.4707108  45.0943336  21.1276207
  42.4042587  44.7387276  19.9905148  35.3493919  62.7459145   2.2638216
  34.4400673  62.6022682   2.5259769  35.5939369  61.9456596   1.7990390
  74.6379318  65.6075211  29.2946472  74.7569122  64.9439163  28.6151600
  75.3079605  66.2649384  29.1073246  53.7133026  62.0011749  27.3980598
  54.3518333  61.3050270  27.5526314  53.1450310  61.6563339  26.7093029
  83.8157272  31.4945946  11.9608908  84.6472397  31.1400928  11.6460180
  83.2283630  31.4326687  11.2076254  32.4076653   0.4916050  33.1090202
  31.8701916   1.1511922  33.5475388  32.5091133  -0.2047218  33.7579193
  79.5725555  68.5662918  71.7632141  79.5129089  68.9925995  72.6181641
  80.3344650  68.9695435  71.3471375  81.2373734  21.0378933  24.2082787
  81.4964218  20.2917881  23.6674919  82.0141068  21.5967159  24.2333126
  40.7481194  57.7883606  27.1136417  41.5977249  57.5275993  27.4691792
  40.5376129  58.6032715  27.5695324  54.5399399  26.9529572  18.6799908
  54.7902794  26.0292206  18.6635189  55.3717270  27.4266167  18.6771832
   1.6723706  41.0983505  67.2633820   2.4001765  41.6974983  67.0974045
   1.2143134  41.0398521  66.4249344  64.7627182  28.7051334  37.8841553
  65.0276337  28.1669884  37.1381989  64.9896927  29.5988693  37.6273422
  37.4266815  11.5025377   7.0628972  37.8911018  10.7129917   6.7851114
  37.4201508  12.0622511   6.2864242  82.7171173  33.8083153  75.6305161
  82.8010788  32.9469757  76.0395203  83.4190445  33.8341179  74.9802322
  52.0714798  52.0065041  19.7731285  51.8792686  52.4435043  20.6027775
  52.6922836  51.3156357  20.0045204  29.1227016  14.1221762  79.2897797
  29.0706730  13.7226877  78.4214859  29.6953773  14.8798952  79.1708908
  21.3774662  59.6308746  40.2190742  20.9591446  60.2508202  39.6216621
  21.4020500  60.0878258  41.0598030  49.0151901  16.2771130  72.6432266
  49.7083549  15.9592934  72.0646515  48.9185410  15.5890799  73.3016357
   5.6819940  21.6131783  65.9362259   5.0897255  21.8171291  65.2124481
   6.2769423  22.3619099  65.9771194   3.5329165  17.6740589  34.2361565
   4.3547654  18.1518555  34.3479919   3.7965729  16.7562962  34.1696014
  21.0265923  39.3891869  72.1917648  21.1083050  38.4622040  72.4159393
  21.5396786  39.4877777  71.3897324  63.7131805  49.5807114  23.8390007
  64.3773651  50.2230453  24.0890045  62.9763145  49.7581863  24.4236012
   0.2451608  51.9755936   2.9062254  -0.6315368  52.0352249   3.2858007
   0.7456240  51.4605293   3.5390573  49.1976242  30.4634857  80.2317734
  49.2806892  29.8413296  80.9544449  48.2981377  30.7847633  80.2945099
  44.9954643   4.5567303  35.7803993  45.3093796   4.4601822  36.6794930
  45.2810822   5.4323425  35.5197144  54.9247398   6.1877260  38.2915115
  54.4763603   6.9983268  38.0504417  55.3993683   5.9322023  37.5005188
  16.8843403  59.8252029  81.7665176  17.3586121  59.0061226  81.6236954
  16.5676632  60.0731964  80.8979263  43.8248520  38.3158455  79.0625610
  43.6978798  38.6497116  79.9506149  42.9543915  38.3526535  78.6661072
  33.9317284  65.4089355  34.2820587  33.9391403  66.3660965  34.2770767
  33.0033531  65.1765137  34.2639198  76.6248627   2.8719552  12.3075542
  76.9625549   3.7671371  12.3366566  77.3458786   2.3555696  11.9473972
  28.0350533   4.9615946  54.3134270  27.7447510   4.0640349  54.4757347
  28.6329231   5.1542587  55.0356903  67.4547577  47.4215279  65.2799377
  67.9162827  48.1706123  65.6568985  68.1491928  46.8068352  65.0430145
  13.9059277   0.6027786  76.9836197  13.5119953   0.9552169  76.1856003
  14.6310310   0.0603506  76.6734085  76.4905243  57.8433113  79.7842560
  76.3852386  58.4744225  80.4961853  76.8503571  57.0634308  80.2067871
  11.0099525  41.0337105  33.8327026  11.9290981  41.2750435  33.9474220
  10.6121073  41.1920166  34.6887932  36.7340431  65.6591873  59.8981705
  37.6023750  65.4520493  60.2436028  36.6403313  65.0941620  59.1312332
  78.0597153  18.0905457  20.4937344  77.2290726  17.7054348  20.2145214
  78.4171600  17.4609222  21.1198654  51.6614952  16.2541428  85.9594574
  51.0291824  15.9935017  86.6291428  51.9017677  15.4355555  85.5253906
  39.1532745  64.2298660  51.9619789  39.9079819  64.7840042  52.1609192
  38.3944702  64.7840805  52.1444550  80.0232468  37.5021095  76.6383057
  79.9496841  37.1190262  77.5124130  79.3223190  37.0874557  76.1353149
  51.4697189   6.3513546  25.9258823  51.4374580   5.6425662  25.2833805
  50.5613480   6.6418209  26.0078869  55.4270325  66.5286789  83.0000153
  55.7689896  65.6595230  82.7905731  55.0299034  66.8328629  82.1839294
   2.6679122  68.3358765  16.3049183   3.5344582  68.2235947  15.9141226
   2.3083787  67.4498520  16.3489151  14.8112650  65.0037766  80.7680130
  15.3476372  64.3107605  80.3829498  13.9256668  64.8247910  80.4519196
  55.6580658   2.2560096  58.4316826  55.8803482   2.5428457  57.5459366
  56.1167068   1.4222990  58.5356331   1.0878843  16.8428173  41.4927292
   1.4401394  16.8528290  40.6027603   1.6801691  17.4058990  41.9911003
  81.9300079  71.0535583  87.1503906  82.7269287  71.4982529  87.4391708
  81.9273071  71.1605606  86.1991882   1.5236079  64.6487503  38.3111687
   1.0853124  65.2825699  38.8789749   1.1272695  63.8080292  38.5399246
  35.7466583   1.2584727   2.2587473  35.3108826   1.1503034   3.1041048
  35.8294449   2.2060328   2.1514707   3.6769853  12.3273840  13.7571516
   3.1747205  12.3685036  12.9433517   3.6339209  13.2159967  14.1103458
   6.5442567  50.3332443   1.8282541   6.4980578  50.7774506   0.9816263
   6.9649668  49.4951477   1.6363580  59.1995392  33.2036171  22.2666702
  59.4180412  32.2742958  22.1969967  58.9323082  33.4537888  21.3822308
  61.6587524  15.6539688  38.4217453  61.4043694  14.7317886  38.3884964
  61.2237625  15.9943838  39.2034912  76.5760880  65.8741837   5.5138941
  76.0176010  65.2046814   5.9089808  76.2304764  65.9820099   4.6278009
  52.3997917  31.4874706   6.4015946  52.7709312  30.6389027   6.1598983
  51.5603867  31.5211926   5.9427938  21.1467609  64.1847153  37.1456223
  21.3761711  64.5173416  38.0133553  21.7295704  63.4368896  37.0139923
  39.7010880   7.0262890  63.5260506  40.0567932   6.5197110  64.2561798
  40.2578049   6.7971840  62.7818680  12.8953190  33.5045013  78.8556824
  13.0149488  34.4540443  78.8386612  12.0544519  33.3612099  78.4213486
   8.4531498  52.1139145  41.6833267   9.0829954  51.4027176  41.8004913
   7.6070161  51.7227478  41.9007568  34.7839317  17.3247528  68.9447250
  34.0062637  17.8707180  68.8290405  34.5901718  16.7923012  69.7162018
  62.8816566  19.1434097  88.5757370  61.9385719  19.2122688  88.7243271
  63.0176315  19.5365448  87.7136536  15.9375448  43.8607903  46.4365463
  15.5197439  44.4003410  47.1077805  15.3204393  43.8682823  45.7048645
  53.7040367  36.9958992   0.7838331  52.8863945  37.2210999   1.2276516
  54.2448006  37.7815437   0.8648616  22.0428619  44.3720512  74.0247726
  22.0138359  43.4192848  73.9374542  22.8974857  44.5506821  74.4171219
  17.2947636  50.5105972  68.5594864  18.1296577  50.3132668  68.1349335
  17.1673737  49.7945404  69.1817932  68.0336304  20.6995335  24.7621384
  68.5509262  20.4283485  24.0037880  68.6187134  20.5725174  25.5089817
  72.8765717   9.6629248  68.1160660  73.0769882  10.5291529  67.7614975
  73.5776215   9.4936819  68.7454453  60.1036530  32.5667076  35.0027771
  59.4666519  31.8562984  34.9267426  60.6371002  32.3299026  35.7614517
  73.5393372  65.7560043   8.0565424  73.5018082  66.3988266   7.3483057
  73.8740463  64.9612350   7.6411514   8.7279081   1.3333708  69.6709518
   9.0549068   1.1781082  70.5570602   9.1447554   2.1519306  69.4018173
  57.7457733  13.0648842  51.6357193  57.6240196  13.8979378  51.1802750
  57.2526474  13.1629200  52.4502411  84.1888580  63.4116096  23.4366436
  83.3733597  63.3988991  23.9376717  84.0024719  63.9810066  22.6901340
  48.1055527  16.5580425  77.0616379  48.3420448  15.8547077  77.6663055
  48.1545601  16.1551857  76.1947327  14.4128227   4.4066052  75.3404007
  13.9285946   3.5936618  75.1959152  14.4603233   4.8140430  74.4755478
  40.5598221  44.9107971  10.3250713  40.4800873  44.1134758   9.8014755
  39.6818924  45.2920952  10.3159924  82.5956116   2.1764522   9.8410854
  82.8948135   2.2321289  10.7486143  83.3547897   2.4416428   9.3218994
  12.7791929  17.8075180  80.7212677  13.1884022  17.4587021  79.9293671
  12.0282335  18.3080387  80.4022522  45.2235069  22.0244808   0.7899232
  45.6788292  21.5826130   0.0732198  44.8206215  21.3153896   1.2910268
  53.7532845   8.9774599   7.6861830  53.2293701   9.7486782   7.4694610
  54.6253090   9.1768503   7.3455148  64.0504837  67.0894623  48.0934372
  63.4364624  66.5646896  47.5798073  64.7339172  67.3364563  47.4704247
  19.5128880  22.4380741  19.9417915  18.8641796  22.6195736  20.6218414
  19.1363983  21.7163906  19.4381428  66.3720856  71.6744766  71.7203293
  66.3679199  70.8840332  72.2601624  65.5770187  71.6075745  71.1915436
   9.7636795  18.3467655   4.7989211  10.1236906  19.1887360   4.5201559
  10.2306976  18.1430759   5.6092525  39.1785965   9.0590906   2.9743466
  38.5742416   9.3110065   3.6725743  39.9077988   8.6376686   3.4292128
  15.1757393  48.4951935  34.3709869  15.8287334  48.4405823  33.6732407
  15.5886612  49.0367699  35.0436096  20.6142101   4.6053629   1.7005366
  21.2846279   5.2480073   1.4686313  19.8294315   4.9007220   1.2388902
  80.5792999   0.7842802  59.1537323  79.6423340   0.9674832  59.2227707
  80.6542511   0.2007290  58.3986969  82.0806580   6.7254882  11.5719090
  82.1045685   7.1817088  10.7307653  81.6887131   7.3565130  12.1755800
  20.6307316  56.7105522  36.5462532  19.9822521  57.4077110  36.6446114
  21.2851086  57.0745125  35.9499702  58.0030518  45.2351990  53.0353394
  57.1393089  45.4891319  53.3604507  57.9047470  44.3160439  52.7869034
  68.5172195  62.6946297  13.7975588  68.9719543  61.8945770  14.0609217
  69.1037979  63.4024200  14.0643749  14.2432585  64.1383209  83.5494690
  13.3129559  64.2885590  83.7173920  14.4456215  64.7009125  82.8019638
  25.3745861  34.7367821  83.9980392  24.7987442  34.4373093  84.7015686
  25.4150333  35.6865997  84.1095886  40.2805824  45.0303383  74.3508301
  40.8445587  44.7119827  73.6459808  40.0526962  44.2450485  74.8484421
  57.1484375  13.3808279  43.5557671  56.9252434  12.4590530  43.6851730
  57.9679375  13.4985580  44.0361748   1.1358590  13.0436382  58.4734726
   0.2807690  12.6240444  58.3786354   1.7399797  12.3206711  58.6425552
  82.8374405  41.0116806   1.2657727  83.3495178  41.3346481   0.5243559
  83.4734726  40.9227562   1.9755495  73.5646057  45.4720840  88.2627335
  74.3186188  44.9107666  88.0821304  73.5576782  45.5646820  89.2154160
  46.5708656  70.0355911  85.4833221  46.8866272  70.5546951  86.2229614
  45.6192627  70.0261383  85.5862503  23.9210815  64.3920898  55.8899994
  23.0947914  64.8114777  55.6500130  24.3783779  65.0477295  56.4165459
  86.3979721  45.0273132  15.2362785  87.1605911  44.9640121  15.8112888
  86.7639771  45.0243530  14.3518219  68.2718735  62.5485611  44.5516624
  68.4717484  63.4551506  44.3184662  69.0886536  62.0750313  44.3939438
  70.8625793  55.5199242  81.3635788  71.6525116  55.7277451  80.8645325
  70.2456055  55.1914673  80.7096024  29.3076363  65.0417709  61.3511810
  29.7175655  64.1882782  61.4917068  29.2650433  65.4335556  62.2234917
  31.4724998  54.1233749  32.4036903  31.4448986  54.7396393  31.6717815
  31.4195366  54.6754990  33.1838074  73.7374573   9.5014439  49.3621407
  73.0824738  10.1439219  49.6349945  74.2362366   9.3152685  50.1576195
   3.5623345  54.2472649  35.0654945   3.4803498  53.3306465  35.3287811
   4.3992987  54.5286560  35.4350090  55.2975922  63.6345329  76.7174683
  54.8895111  63.0223808  76.1051178  55.6086388  64.3528214  76.1665192
  74.1538773  23.6256371  21.1250095  73.4602585  24.1089020  21.5739880
  74.5861359  24.2807198  20.5770531  27.7301521  56.3867302  32.9331398
  27.3890171  56.0479660  33.7608452  27.5378284  55.6992226  32.2955055
  45.7167778  20.6168842  22.7751446  45.2848854  21.0499134  23.5114765
  45.9323158  19.7439995  23.1035442  28.5065498   9.5709867  79.2569962
  27.6783638   9.9443121  78.9553833  29.1159286  10.3091526  79.2575150
  21.4528217   4.7111158  85.9072189  21.7940083   5.2446356  86.6249771
  21.7837181   5.1350708  85.1153870  12.0641966  57.4848213  76.3647614
  11.2754230  58.0227699  76.4331512  12.0321312  56.9140320  77.1324921
   7.5610456  37.9796104  65.8050842   7.4209938  38.1139946  64.8677750
   8.3863564  38.4275856  65.9905930  16.3267937  56.8843765  33.2243004
  15.9359245  56.3533249  32.5304451  16.2779980  56.3323135  34.0047340
  52.5579910   1.6429765  31.7521954  53.3687744   1.2241836  31.4632759
  52.2194901   2.0757928  30.9684105  25.7330093  17.1580372  49.4602585
  24.9808941  17.7500935  49.4554939  26.4638996  17.7016582  49.7543831
  86.3577728  49.8854561   7.2149601  86.4433212  48.9385109   7.1044507
  86.7472153  50.0628242   8.0711775   0.5898095  10.6881523  64.0638123
   1.3187695  11.2875843  64.2235947   0.8020106   9.9101706  64.5795135
  47.6555214  57.8088799  43.6287537  48.2739601  57.1274033  43.3654022
  46.7960205  57.4515381  43.4056015  45.5609627  43.8063469  77.7449875
  45.5024796  44.5094299  77.0980835  44.6664467  43.4737320  77.8187561
  47.1955719  64.7073517  39.7165184  47.7798729  64.0032730  39.4352913
  46.6200104  64.2974243  40.3622093  68.4261932  39.1339722  54.9272041
  68.5098801  39.1379852  53.9736748  69.1008606  38.5233994  55.2242775
  79.0961838  29.1735649  80.9129486  79.4255676  29.0632858  80.0209961
  78.1916885  29.4656849  80.7998505  69.0457382  10.6851473  58.5842209
  69.9019012  10.7290802  59.0099983  68.7522202  11.5952587  58.5420723
  11.9578362   5.6652308  20.1223907  11.1276617   5.1894464  20.1482868
  11.8786077   6.3229361  20.8133183  55.7051201   3.3892679  23.0493584
  55.3634796   4.2107248  23.4025173  56.6220322   3.5775585  22.8492298
  61.5153770   7.8239498  20.8287716  60.8910866   7.7150388  20.1113911
  61.5252686   8.7662554  20.9966831  67.1289749  15.9379196  77.5895615
  66.9419861  15.0129719  77.7499924  66.5147476  16.4077930  78.1536331
  56.4025002  20.8850594   3.9094877  55.7082443  20.5357380   3.3507228
  56.7286835  21.6503716   3.4360600  17.8162403  52.4783478  74.9190826
  18.5075626  51.9816856  74.4813309  18.2780876  53.1846581  75.3708115
  20.3731804  49.1529198  14.3072977  19.5323277  48.7164497  14.4440269
  20.9116192  48.8727417  15.0474434   2.2215195  55.5609932  42.6598206
   2.8332636  56.1335258  43.1226463   1.6234844  56.1604156  42.2134171
  77.7529526  63.4511414   9.2122269  78.4975815  63.5334740   8.6164227
  77.9443130  62.6677628   9.7279186  40.2309227  59.3161430  81.5904007
  39.6214600  58.7571487  82.0723877  40.6940613  59.8067665  82.2693863
  11.3167810  54.0500069  31.8430939  12.2671528  54.0362282  31.7297993
  10.9687500  54.0071564  30.9524364  49.0510406  58.4706535  46.1260376
  48.4171562  58.2054138  45.4596519  49.2752380  57.6583824  46.5801163
  36.6591949  35.2103119   6.6494503  36.7892799  35.7689285   7.4157763
  37.0282135  34.3646126   6.9041176  17.0501442  54.2590218  44.3718529
  17.5879211  54.8519058  44.8967476  16.6690979  53.6543007  45.0085220
  19.8763714  70.3008423  80.0740814  20.2329636  69.4373169  79.8657455
  20.5217590  70.9166107  79.7268982  34.6436920  46.2174873  62.4451256
  34.3230133  45.6932564  61.7112427  35.1326027  45.5977745  62.9865608
  52.8248749  49.9991646  72.9554520  53.4842148  49.3161163  73.0777206
  52.2575493  49.9245262  73.7227859   7.7936001   5.8905187  66.8420715
   7.5322523   5.8874078  65.9212494   8.7097673   6.1675129  66.8300858
  68.4044266  43.3267479  68.3311920  68.7284470  43.5508499  67.4588318
  68.7649155  44.0051689  68.9021759  30.7372532  14.4485588  26.5307713
  30.7092075  15.2824068  26.0615788  30.8664722  14.6935253  27.4470272
  50.0369759  52.2972145  54.0172424  50.4519081  52.2647705  54.8792229
  49.6790085  51.4185638  53.8905144  13.8252287  23.2517490   1.7558860
  14.6007195  22.7637424   1.4789424  14.0434647  23.5715446   2.6312919
   2.0824242   6.4235125  49.4345245   1.5409296   6.0129313  48.7604027
   1.8930913   7.3586063  49.3571663  70.7533569  55.0363808  20.4040070
  71.2882614  54.2739830  20.6250648  70.4103622  54.8434410  19.5314484
  38.7345505  40.4977531   5.7305818  38.3012466  39.7185097   5.3823543
  39.6006508  40.1906357   5.9985008   3.3925149  32.0476379  82.1047134
   2.7204401  32.2265091  82.7623978   3.0468750  32.4310684  81.2986450
  18.1261654  68.2975769  88.5084381  18.1319370  69.2266541  88.2782059
  18.4703922  67.8562546  87.7319183  10.7653913  37.6176720  30.5428715
  10.5220699  38.5181236  30.7578354  11.6029053  37.6983337  30.0864792
  70.3563766  10.4429121  21.3169937  70.5107574  11.2846375  21.7458248
  69.7248993   9.9982738  21.8824673   0.2259907  62.1019478  41.3498650
   1.1535988  62.3171310  41.4471855   0.1177742  61.2837486  41.8347054
  15.7762136  12.7001143  17.4001236  15.1053495  12.2583418  16.8795376
  15.7585640  13.6068134  17.0938282  67.7231750  29.8769875   8.6301517
  67.2194595  30.2379818   9.3596640  68.6190338  29.8203335   8.9624977
  21.8066578  61.2578278  68.5168152  22.3944149  62.0052681  68.6268463
  21.9820251  60.7014771  69.2757339  38.4671631  56.8354988  17.4036922
  37.8110237  56.6643181  16.7281132  38.7222023  57.7475014  17.2642574
  85.3517914  58.2767258  43.7801514  84.6400223  58.1183548  43.1600380
  85.1362000  57.7312737  44.5366135  17.9981194  40.4037590  10.1519270
  18.5651894  40.0509491  10.8376312  17.1323624  40.0466270  10.3498049
   6.4629989  45.1971169   2.2692521   5.6594133  45.0620537   2.7714882
   6.3542566  44.6497269   1.4915802  30.8358994  47.1674232  64.7407913
  30.9878273  46.2258072  64.8214722  31.7104740  47.5434647  64.6410751
  52.5806313  69.3887634  58.3269768  53.4799652  69.4465256  58.0043335
  52.6562119  68.9366531  59.1672821  50.6276932  16.3177090  14.1710987
  50.6688499  16.8525867  13.3783541  50.2651978  16.9028358  14.8362713
  27.8363514  43.9552460  81.8368835  28.0371323  44.0475273  80.9055405
  27.1133022  43.3286362  81.8650818  26.5863590  55.8002129  28.3017635
  25.7742710  55.3698273  28.5691833  26.8779411  55.3064842  27.5353165
  20.7848015  15.7972364  10.5555506  21.7373257  15.8785219  10.6037312
  20.6134205  14.8742552  10.7425413  84.1100235   5.9350581   3.8208728
  84.3463364   6.7270947   3.3381042  83.2083435   6.0871181   4.1038632
  57.4254684  22.0328884  25.1397018  57.4738083  21.0814571  25.0465755
  57.0146599  22.3323669  24.3286648  83.3648376  29.4519901  68.3151703
  82.9529724  28.6350002  68.5964661  82.9400024  29.6602879  67.4830933
  65.5487061  69.1662903   0.5814379  65.6177216  68.2655945   0.2648818
  64.8229370  69.5407028   0.0821337  12.5183887  10.3507481  51.5874367
  12.9892035   9.9321709  52.3081017  13.1938248  10.8273373  51.1048584
  31.4407196  16.9913025  48.3452644  31.8098774  16.8046017  49.2084541
  30.6875782  17.5545177  48.5235825  57.3587265   1.4388870  68.4255981
  57.4153099   1.4395837  67.4700699  57.7762604   0.6190287  68.6896515
  83.2582779  53.5639381   1.7162673  83.2655334  53.1260109   0.8651511
  83.5912704  54.4430809   1.5361222  68.6809464  50.2327995  44.6908035
  68.6618652  49.8983612  43.7941322  69.5758057  50.5515556  44.8085518
  52.2401810  48.1243362  48.8742218  51.6582565  48.6562080  49.4170914
  52.5285683  48.7171555  48.1802292  82.3668747  42.0555344  66.0366516
  81.4890213  41.8535919  66.3604202  82.8085327  42.4643135  66.7810135
  59.9975128  22.3294754  22.7248783  59.6806221  22.1814632  21.8338661
  59.7441521  21.5401440  23.2034130  48.9834290  55.2195587   6.1530070
  48.4145851  55.2438049   6.9224625  48.5917587  55.8472786   5.5457211
   8.6830616  67.0749130  53.6280708   9.0570984  67.6370239  54.3065681
   7.7952399  67.4098053  53.5021629  15.9023933  24.5606556  58.5182953
  15.9731369  23.8064384  57.9331627  15.5664606  25.2640800  57.9628029
  54.5323563  54.8607864  40.9739723  54.1435699  54.6076660  40.1367111
  53.9403458  55.5281525  41.3209343  15.1889219  22.3300037  21.6609211
  15.9033155  22.9666920  21.6385593  14.8011169  22.4355640  22.5296535
  49.4596443  12.5537338  46.1443405  50.4059677  12.6063814  46.2782555
  49.3337021  12.7963066  45.2269897   2.8251047  42.1841278  22.1122589
   2.7043645  41.5665932  21.3909397   1.9368101  42.4447212  22.3556862
  19.5857716  15.8840570  81.6366653  18.8580151  16.1682129  81.0836258
  19.5164642  16.4274616  82.4216156  11.5577765  52.0816154  25.0511646
  11.4007673  52.3721199  24.1527290  11.6817360  51.1352501  24.9786758
  78.2377014  11.4541998  82.1970978  78.0060959  11.5118675  83.1240616
  79.1420593  11.7651854  82.1563797   1.1823258  48.9547005  83.1045761
   0.2961945  48.6967087  83.3584366   1.7530806  48.4682846  83.6994476
  17.8827991   3.9136133  36.0199623  17.7129478   4.8344846  35.8215218
  17.9810925   3.8878846  36.9717560  46.6489944  36.5617828  23.6795025
  46.9605446  35.7652092  24.1091976  45.8846359  36.2796440  23.1771221
  57.4899025  46.4379120  27.4894390  57.7110023  46.1893349  28.3869667
  56.5681992  46.1977272  27.3945389  51.8796806  38.5210381  23.7027836
  52.0079575  39.4673576  23.7679691  52.7388611  38.1486397  23.9011860
  80.7036285  63.7795219  41.4974747  80.4354630  64.5921707  41.9263344
  81.6235733  63.9194069  41.2730598  84.4242783  26.9887257  40.8846359
  84.4875793  26.2152424  41.4449463  85.3089066  27.1068821  40.5386467
   5.3984952  50.2467346  22.7773666   6.1130185  49.8697166  22.2639999
   4.7869463  49.5215721  22.9053364   4.2486839  65.1162415  64.2988739
   5.1477389  64.8122025  64.4233398   3.7158833  64.3243103  64.3710175
   8.3354893  51.4322701  30.3433361   7.9070902  52.2479057  30.6030293
   8.3368063  50.8988304  31.1381130   7.4041400  12.7784395  34.5685158
   7.1539793  13.5736914  35.0388603   8.3226900  12.9159966  34.3370514
  72.0052872  22.4155712  49.8962593  71.7149582  22.5940456  50.7907333
  72.9260406  22.1704655  49.9877167  10.4176226  11.2311630  42.6605186
   9.9953785  10.4031448  42.4317665  10.3302164  11.7698622  41.8741379
   9.2727947  31.4435444  38.2058334   8.5294914  31.5993061  37.6231918
   9.9546280  32.0352325  37.8876534  63.5955353  36.0646629  45.9100037
  63.7697411  36.9073257  45.4907150  63.1148720  35.5639763  45.2508278
  40.3114243  70.5501022  42.0098038  40.0515938  71.4342499  41.7509346
  40.8440285  70.2336731  41.2801208  18.1684513  21.1748161  59.5737877
  17.2640762  21.1895809  59.2605438  18.6743488  21.5698853  58.8637047
  62.5668373  54.3445663  26.1227684  62.9373131  54.9658928  25.4959259
  61.6913757  54.1563797  25.7845631  51.7492790   5.6727505  85.9845123
  51.8493309   5.2289653  86.8266907  51.3302765   5.0232825  85.4198303
  53.8651505  40.9490814  79.2359619  54.6873627  40.6704063  79.6391220
  53.3266411  41.2448349  79.9699707   1.3348812   6.4859743  54.5799408
   2.1647973   6.9533205  54.4847641   1.5505227   5.5733681  54.3878975
   4.2224679  31.8674774  65.2933044   3.3524909  31.9475517  65.6844025
   4.5772057  32.7562714  65.3142319  41.6588211  15.0956135  28.9309959
  41.2303314  15.3475685  28.1129818  41.3524590  14.2041168  29.0971508
  77.3455505  15.2235432  27.9380817  76.7704315  14.4672003  28.0539188
  78.0837708  15.0549994  28.5236187   8.6485052  22.7136765  60.2118378
   9.1574450  22.7411308  61.0220604   7.8130736  23.1214809  60.4398346
  72.3804321   5.0330153  85.6437149  71.7745209   4.9480791  86.3798447
  72.4832001   5.9773521  85.5258255  27.5708675  43.9940186   4.9557676
  27.0775661  43.3174782   5.4196386  28.2629871  43.5154190   4.4995408
  83.6315460  47.0818863  84.5579758  83.0019302  46.8065529  83.8916321
  83.7745514  48.0119514  84.3825989  51.2488098  47.8239746  19.5523701
  50.5809402  48.5041504  19.6391773  50.7988091  47.1007919  19.1156292
  80.0036850  69.7752533  35.3711433  80.0377274  68.9409637  34.9031334
  79.5099945  69.5827332  36.1682854  30.8954906   2.0125172  34.8751411
  30.9908638   2.9003520  35.2199402  30.5288143   1.5109080  35.6032677
  58.6312866  60.9795952  88.0518951  58.4693871  61.6054497  88.7578201
  58.3224220  60.1424942  88.3984451  12.0473862   2.5246558  33.2260361
  11.4006157   3.1021857  32.8205986  11.6395187   1.6588719  33.2088699
   7.5903177  14.8059807  60.0607758   8.4988050  15.0761499  60.1945343
   7.2915201  14.5327425  60.9281235  55.8004112  21.8007793  54.8498421
  55.2551003  21.2465458  54.2915459  55.3758736  22.6582909  54.8238754
  18.9184780   3.7716956  17.1758499  18.2025948   4.1760898  17.6659603
  19.6324062   3.7006724  17.8094845  79.3790817  27.5272636  73.8022003
  79.8777618  27.0096111  74.4343262  79.0087357  26.8802433  73.2018356
  25.9581680   6.6309977  81.8723755  25.1494884   6.6714430  81.3618546
  25.6658344   6.4963775  82.7738495  46.1039619  40.1561890   8.6460514
  46.2736397  39.9216614   9.5584316  46.8728409  39.8412132   8.1708183
  55.1503105  43.4376755  39.9530945  55.3371506  42.7880325  40.6308022
  55.1094704  42.9320412  39.1413689  72.2109528  35.4504776  43.4044609
  71.7386169  34.6717987  43.1098633  72.7868042  35.6724205  42.6727715
  75.0010147  40.3824272  75.7703247  75.8025894  40.5792809  75.2856064
  74.3168411  40.3565865  75.1013947   8.8520794  20.1140118  18.4971638
   8.8726015  21.0683517  18.5682068   9.0189161  19.8039341  19.3872490
   6.7905188  65.2167358  46.5308228   6.1937327  64.9740448  45.8228798
   6.9987965  64.3884506  46.9630280  71.0169678  23.1896496  26.0129414
  70.3074799  23.8321953  26.0122623  70.6252213  22.4006920  26.3875294
  68.8940277  17.1399403  83.7442627  68.6727219  18.0665989  83.6517487
  69.3012619  16.9065075  82.9100571  75.0125427  32.3060684  31.4813499
  74.2955093  31.9239731  30.9752941  75.7544937  32.3146210  30.8766460
  79.2565842  44.7176132   5.7604332  78.7518234  45.2099266   6.4077954
  79.8064194  44.1316719   6.2806087  48.0564194  34.2752495  50.7677994
  47.1237068  34.3739815  50.9589348  48.3946800  35.1706200  50.7565002
  44.8581581  27.5001202  16.4049702  45.4613724  28.1300621  16.0105877
  44.3010635  28.0278511  16.9771385  46.8722610  12.3544712  29.8076801
  46.0396271  12.2369061  30.2649841  47.5088310  12.5100822  30.5053883
  43.5056152  65.6798096  43.2949677  44.0058060  64.9536438  42.9225197
  43.6779976  66.4155807  42.7074661  60.2874107  43.3703232  84.8720627
  60.1056862  42.4308701  84.8468857  60.8732147  43.4809761  85.6209412
  61.5443764   3.4733722  84.4711533  60.9109344   3.2557321  85.1549759
  62.1980400   2.7757816  84.5193710   1.9790524  38.1964951  63.8701401
   2.4562769  37.9365768  64.6581345   2.4802582  37.8144951  63.1496544
  54.6339035  40.0054588  87.8809204  53.8956909  40.0168839  88.4901428
  54.2486153  40.2285042  87.0335541  86.4701309  29.3729382   5.7318864
  86.3501587  28.5884418   5.1967173  87.2315826  29.8093624   5.3498330
   4.7082601  61.4045219  69.6654282   5.5148039  61.8532028  69.4116516
   4.8567028  60.4902153  69.4240952   1.1256686  39.7385483  40.0006866
   1.8702247  40.2158432  39.6345482   1.3686533  38.8163338  39.9187698
  82.7908859  13.6107817  40.0947571  83.6333847  13.6369019  39.6411629
  83.0199509  13.5484772  41.0220566  48.2699242  57.8542328  37.6481171
  49.2261276  57.8893394  37.6222000  48.0145187  57.6214523  36.7554703
  75.7155380  67.1743469  82.4985275  75.4906998  66.4759750  83.1133118
  75.8872147  67.9354630  83.0530167  18.0555000  13.1697111  56.6555176
  19.0104656  13.1278706  56.7057610  17.7533474  12.5490732  57.3186493
  56.7373123  11.5604792  26.2714977  57.0225716  11.6164417  25.3595085
  55.8535614  11.1958265  26.2240791  18.3368073  43.1607590  46.2848816
  17.4774914  43.5748596  46.3644295  18.1630497  42.3324547  45.8377228
  22.1379375  52.2582397  67.2246704  22.5438919  51.4229851  66.9927521
  22.8584213  52.7882195  67.5656357  39.3949356  67.2049332  77.6891632
  38.5676346  67.6085129  77.9516983  39.6618690  66.6891022  78.4500198
   2.2324007  47.3449516  62.5468712   2.3091669  46.5770607  63.1131592
   2.2451398  46.9894447  61.6582298  18.4511280  46.6999054   8.0284777
  19.0992374  46.0411949   8.2780523  18.9606323  47.3857193   7.5968561
   4.6081820  53.0519753  17.2591877   5.0574031  52.5170898  17.9136562
   5.3137412  53.4387970  16.7407417  25.4664612  18.8933315  73.0700684
  24.6155243  19.3007240  72.9082870  26.0263290  19.6143456  73.3580170
   4.1294479  23.6624737  37.0058937   4.8481970  24.2432003  36.7561188
   3.4820349  23.7692261  36.3089790  78.4736252   1.5400587   3.9206319
  78.9306488   0.9842432   3.2894206  78.2198639   0.9438093   4.6251345
  49.2067337  20.5129623  77.5357285  48.4541779  19.9214611  77.5314026
  49.5509377  20.4561100  78.4270935  37.0314903   1.8389317  25.5961170
  37.4511490   2.6094706  25.9787254  37.4287033   1.0978916  26.0536232
  44.4742050  58.2505341  50.2136192  44.7664299  57.3626823  50.4199104
  43.6337814  58.1294670  49.7717400  34.4693565  56.7187805  85.5099258
  34.6030960  57.5607948  85.0747833  33.6853561  56.3573532  85.0964737
  73.0843582  43.3507080  74.6920395  73.8351669  43.0812721  74.1629562
  72.8405075  44.2079086  74.3427887  18.0901375  12.6564226  30.8795815
  19.0325260  12.7302418  31.0301914  18.0013657  11.9211121  30.2732220
  17.3894215  16.6655769  80.4328766  16.4468288  16.7793827  80.3112259
  17.7683849  16.8781471  79.5799789  40.5520248  29.8578987   0.0982803
  40.6859550  29.0224266   0.5458053  39.8384972  30.2760677   0.5801997
  80.8009720  47.0395203  33.4470367  80.5913086  47.7965508  33.9940109
  79.9495239  46.7005043  33.1707344  34.4588966  39.6582642  85.7196808
  34.1012154  40.2326851  85.0426712  35.2365608  39.2704124  85.3183746
  84.3690720   6.3273869  89.0766754  83.9884644   6.7250957  89.8597488
  83.6146393   6.0938015  88.5358505  69.5478210   5.2176671  56.0260696
  69.9581375   5.3998451  55.1806831  68.8724594   5.8902178  56.1143990
  46.5143661  10.4147720  71.9686737  47.3740501  10.1622438  71.6319122
  45.9609146   9.6500835  71.8100204  79.8407822  12.8967505  86.5503998
  80.5876694  13.4950190  86.5720901  79.6344604  12.7377157  87.4714737
  56.1603470  70.4202271  36.6782455  55.7627525  70.7849197  37.4689064
  56.3011818  69.4963531  36.8852386  35.0835533  47.1933174   8.2169771
  34.9426422  47.4880905   7.3172641  35.1014061  47.9992790   8.7330542
  76.0042801  69.8583755   3.9411337  75.0935974  69.5837936   4.0483065
  76.0148926  70.3339081   3.1104763  11.1875658  70.7087555  12.9284582
  11.5075016  70.4809570  13.8013716  11.7743120  71.4046707  12.6323805
  30.0507717  29.0187492   9.3697701  29.1347332  29.1987934   9.5811682
  30.1644192  28.0894737   9.5691776  55.0489655  47.5348969  20.8841820
  54.8547821  47.1399651  20.0341511  55.6870995  46.9433022  21.2829723
  56.0618439  27.5285625  78.3955612  55.3471680  27.8829498  78.9245987
  56.6426048  28.2747841  78.2468796  53.1463852  69.9697189  13.2547712
  53.6717377  69.1841583  13.1026583  52.3159218  69.7916489  12.8133440
  34.7437973   0.6964520   4.7020707  34.3571472  -0.1787891   4.7282934
  35.0638199   0.8436822   5.5920925  61.6825790   7.8835659  16.8169632
  61.7488022   8.8316545  16.7030544  62.1430740   7.5187907  16.0612411
  63.0510712  32.3063393  51.8624954  63.2636528  31.8696156  52.6873055
  62.4927177  31.6826897  51.3982353  29.4239845  26.0414696  83.0655975
  29.5958824  25.8562431  83.9888382  28.5976410  26.5245647  83.0680542
  75.5385208  28.7228317   9.2798243  74.7690430  29.2871494   9.3551979
  76.0507889  28.9100056  10.0664511  18.3162575  10.3334856  24.6042786
  19.2654114  10.3487606  24.7271786  18.1613598  10.9182272  23.8624458
   3.0428298  63.6515274  88.1414948   3.6324878  63.3380814  87.4557190
   3.6175582  64.0872803  88.7708130   5.4447856  57.1199379  15.9992132
   5.6555996  56.5002594  16.6976299   5.9771371  56.8342400  15.2567778
  62.1729431  21.1116352  43.9031563  62.4800568  21.1104946  42.9965630
  62.1909637  20.1906414  44.1632996  45.1298752  46.9080200  25.9233170
  45.3500748  47.7711563  26.2736588  45.9240952  46.6232796  25.4712429
  35.5690155  69.1141510  80.4841537  36.4588814  69.3799820  80.7158966
  35.5326004  68.1829834  80.7028351  39.5319214  56.8451805  29.7089081
  40.3707123  57.3050156  29.7437000  39.4784660  56.5118904  28.8132019
  15.6579456   4.6845074  84.7257080  14.8865461   5.2480197  84.6654663
  15.6757669   4.2130260  83.8928680  13.9322147  67.5973969   9.9735785
  13.8218546  67.7798080  10.9067345  13.7734499  66.6569061   9.8929596
  68.2110214  15.7927427   1.2469944  67.4477386  15.5496321   1.7709475
  68.1968384  15.1856518   0.5070815  48.3475647  48.5222473  65.5132523
  48.9305687  48.2672043  64.7982101  48.3588562  47.7739182  66.1100006
  31.6997147  60.2381821  23.8691463  31.0261898  59.5625725  23.9475422
  32.4715080  59.8566513  24.2874832  49.8009109  61.9150085  26.0607681
  49.6531868  62.7826080  26.4371681  49.2170563  61.3378334  26.5529232
  67.6263733  17.0157909  56.6280632  66.7483902  17.3112049  56.3870087
  68.1989136  17.7436066  56.3857498  33.2569962  10.8763494  23.9305210
  33.5912819  11.3292694  24.7046986  32.4018402  10.5410490  24.1998005
  82.9996262  61.5118065  48.7296791  82.5680008  62.3142776  49.0228844
  82.4301910  61.1720657  48.0393524  71.9948959  58.9429512  34.3638611
  72.5371246  58.6772156  35.1065598  72.2774734  58.3762131  33.6460953
   0.6696246   8.3390732  75.7596436   0.2212588   7.9380183  76.5041885
   0.5798546   7.6995015  75.0531540  68.3895874  56.8805885  57.7070274
  69.1272278  56.5073242  58.1895065  68.1499329  56.2034264  57.0743713
   7.1610799  24.0117455  84.2128448   6.7100954  24.7881546  84.5445557
   7.2352161  24.1621494  83.2704468  74.9702225  30.7034016  23.3180351
  75.4022827  31.5232315  23.5576820  75.6137619  30.2417355  22.7804890
  58.6470985  38.3268814  30.2642117  57.8925476  38.6117935  30.7796822
  58.2670212  37.9588051  29.4665337  58.9104385  10.6698723  51.2168007
  59.8008804  10.7978086  51.5438690  58.4891281  11.5219383  51.3295631
  81.7900391  55.3793831   5.5632949  82.7154160  55.3970718   5.3191791
  81.7282715  54.6837463   6.2178969  55.5903969   1.1273687  39.2426605
  56.5327568   1.1878966  39.3992844  55.2477455   1.9798785  39.5110779
  28.8852901   7.0647955   9.4467897  28.7825279   6.2692871   9.9691296
  28.0338135   7.4986873   9.5011711  56.4002228  53.6224823  10.2735538
  55.9312210  53.2951584   9.5060053  57.0245361  54.2563438   9.9204531
  47.0525818  68.6924210  65.3267365  46.1647758  68.9931870  65.1328888
  46.9602814  67.7506485  65.4709015  71.6259689  49.4160194  37.3514900
  71.7789841  50.3315277  37.5852928  70.6736145  49.3209953  37.3662834
  62.8766975  15.1980028   6.5984640  62.4620018  15.2231483   5.7361259
  62.3030586  14.6402731   7.1239219  43.5502548  67.2054901  84.7306824
  44.0260468  66.5928955  84.1698074  43.1361046  67.8162537  84.1210175
  65.5526047  33.2206001  80.0281067  65.4583130  33.2658463  80.9795761
  64.6803436  33.4249229  79.6909943  69.9906235   4.0333185  76.7921906
  69.4763641   4.5833540  76.2012405  69.5219116   4.0738959  77.6257935
  66.2960663   5.7244530  11.1523714  66.9401016   5.0471301  10.9457550
  65.8464737   5.8883209  10.3233719   4.5462618  27.9292469  56.1647072
   4.1347280  27.7902145  57.0176659   5.0699325  28.7224655  56.2778778
  77.5302353  14.8299437  24.7751961  76.7752686  14.4758568  25.2451763
  77.2002563  15.6247568  24.3561306  72.0708466  24.8985729  57.5243340
  72.8552017  25.0231113  58.0586624  71.4496841  24.4636307  58.1084709
  17.6208439   0.4203760  29.5815678  18.5326328   0.4333663  29.2905254
  17.6712780   0.2332352  30.5189400  52.1860085  59.2506180  84.7526932
  51.9314995  60.0934753  84.3771286  52.9877090  59.0130844  84.2867737
  22.9130211  49.4987259  52.2497406  23.7616787  49.9033089  52.0699463
  22.3216095  50.2372017  52.3950653  80.3588943  43.8025169   8.3925667
  79.9355621  42.9574585   8.2412548  80.0983963  44.0452194   9.2810860
  10.2453070  54.6768494  71.0128250  10.6386681  54.0078011  70.4525757
  10.9067020  55.3670311  71.0622025  82.6280670   3.8974125   0.4337483
  83.3247910   3.4745829  -0.0682686  82.6390457   3.4519174   1.2808877
  39.0604019  32.3932991  80.2879105  39.5276489  32.7474442  79.5312805
  38.3876190  31.8267441  79.9102707  52.9603500  40.5227928  85.3269501
  52.0139236  40.5039215  85.4689026  53.1715851  39.6468925  85.0038223
  20.2568779   7.1489744  16.1647015  20.8594246   7.8871408  16.2557011
  19.7761288   7.3303757  15.3571091  67.1977997   6.5082803  55.9130516
  66.5052338   6.8312836  55.3366394  66.7421799   6.2532344  56.7152977
  42.7988777  66.6080170  70.0999832  42.9508286  65.6797867  70.2775650
  41.8548164  66.7215118  70.2099762   2.7520275   5.2261157  32.6352959
   2.5425899   5.8793640  31.9677391   2.4309127   5.6073074  33.4524956
  71.4044113  16.0752506   0.5358732  70.8901138  16.2360668   1.3269904
  72.2442017  15.7482824   0.8584850  57.5368881  24.6369267   6.4703035
  57.2260513  23.7799301   6.7621427  57.0615845  25.2628880   7.0166450
  16.1237087  58.6653137  37.7153740  15.4491405  58.3753319  37.1012878
  16.0276947  58.0831451  38.4690933  50.4517822  65.9373322  81.1278305
  51.0600281  66.6493835  81.3259354  49.8526154  65.9195557  81.8740921
  75.4801254  24.5373363  48.9556923  74.7413025  25.1252403  48.7983856
  75.1068573  23.8124599  49.4571457  45.2593193  50.3353958  54.1192131
  45.8126030  50.3618736  53.3385658  45.7872963  50.7506065  54.8011742
  25.4413166  58.6978683  39.9072113  24.9590416  57.9120483  39.6500587
  25.7677784  59.0589638  39.0830345  58.2011986  64.5706177  56.5607681
  58.4159889  64.6738358  55.6337051  58.6162148  63.7455826  56.8123665
  67.8000336   1.6158173  69.7067490  67.1341171   1.1591939  69.1926651
  67.6583099   1.3143084  70.6041031  83.0211334  32.9397621  81.4220963
  82.2687302  33.1403351  80.8654099  83.4242249  33.7904282  81.5956192
  51.8478813  21.8529282  31.6422653  51.0243759  22.1583557  32.0227737
  52.0655289  22.5112534  30.9823666  57.6629257  39.2621918  43.7650642
  58.0928230  40.1075897  43.6357231  57.1142273  39.1512337  42.9886322
  20.4333038   6.7609725  62.6157303  20.5200100   7.2114110  61.7756004
  21.1217213   6.0960250  62.6031532  34.1851807  27.0486870  37.0496635
  34.9757652  27.2453747  36.5471458  34.2702866  26.1228790  37.2774086
  41.7715530  10.1791573  53.5129013  41.5009079  10.2006512  52.5950127
  41.6955833   9.2584753  53.7635117  75.5430756  71.7822342  23.8328857
  75.5953979  72.1307068  24.7228622  75.9412613  70.9137878  23.8919163
  71.3208923  16.4726734  17.5691757  70.8510361  16.1408615  16.8040829
  71.9557800  17.0925312  17.2101059  74.6664810  19.4960842  74.4949951
  74.0131683  18.9533615  74.0535583  74.2309265  20.3388062  74.6228638
  76.9626236   6.7249494  75.6723404  76.3244400   6.8709445  74.9740219
  77.1042252   7.5919333  76.0524979  62.9977875   9.5583382  44.9338684
  63.7211189   9.9357929  44.4333153  62.3762245   9.2609653  44.2694435
  33.6648064  59.4574280  62.1128426  33.7564888  59.5579338  61.1653595
  34.4591751  59.8513336  62.4734612  31.2530746  66.3311310  82.5152740
  31.7091255  67.1726990  82.5175858  31.7492332  65.7915268  81.8997345
  86.0059509  32.8152618  24.7086430  86.9306259  33.0141068  24.5614548
  85.5910645  33.6711578  24.8160973  39.6509323  22.0335159  86.3633347
  39.3531837  21.3031845  86.9057312  39.8871346  21.6306076  85.5278091
  34.1005516  44.3288879  60.2263336  34.8653412  44.1681938  59.6736069
  33.5694771  44.9485512  59.7261276  23.3947945  61.8426590  31.7095451
  23.3102551  61.6385994  30.7781792  23.2872849  62.7926025  31.7573280
  39.5116959  60.9011421  54.4219017  40.1097488  61.6484566  54.4126091
  39.3341064  60.7480278  55.3499374  17.5792027  29.1931839  71.2746964
  17.3829269  28.8799229  72.1576385  18.4794827  29.5137863  71.3289185
  23.3095684  10.0116968  27.9201126  23.6381321  10.5218477  27.1798267
  22.7873535   9.3168640  27.5192013  35.2123680   9.0449305  55.2617416
  35.7862663   9.6419067  55.7418365  34.7599602   9.6038866  54.6299744
  23.3438835  52.9399490  62.0654144  23.8489952  52.2603264  61.6190872
  23.3606510  52.6840973  62.9876366  18.5655441  62.9395676  88.9236832
  18.5978127  63.3402519  89.7923813  18.2642536  63.6417122  88.3470993
  24.1768055  45.4748726  10.0606918  23.3421764  45.9392204   9.9973907
  24.4589691  45.6116028  10.9650812  63.4959984  49.9831963  68.7386703
  63.9889297  49.5170746  68.0634079  62.5997391  49.6598129  68.6471481
  35.6983452   9.6042194  58.5172043  35.0602379   9.8423500  57.8446388
  36.5483208   9.7183838  58.0920753  17.0919762  54.7593384  17.8407612
  17.1189384  55.0835838  16.9405575  16.3087482  55.1611443  18.2167091
   1.7638308  45.0651360  13.2325954   2.1613572  44.2195663  13.4404697
   1.5843978  45.0210228  12.2933998  11.8215332  63.2522278  61.4639282
  11.7780952  62.3990822  61.8957710  12.6355915  63.6412964  61.7835617
  29.2127857  65.7060089  63.8824158  29.2863903  65.2248917  64.7066345
  29.5371284  66.5829849  64.0872116  84.6672440   8.5440044  74.2491684
  84.3856201   7.9398274  74.9361115  84.8704910   7.9801598  73.5028458
  34.6112328  70.0825119  64.8710480  35.4865189  69.8678436  65.1935730
  34.3485603  69.3153305  64.3624496  74.8117905  49.5703354  16.8689938
  73.9595490  49.4472733  16.4509220  75.1846161  50.3360100  16.4319859
  15.6742239  65.1473236  52.1253510  15.5803385  65.7984467  52.8206635
  15.2558155  65.5483856  51.3635635  76.8356628  44.1289673  51.1770706
  77.0201492  44.5753365  50.3506622  76.7503586  44.8355827  51.8171082
  60.1159019  43.3275337  15.2962227  59.6416588  42.7113991  15.8545284
  61.0201569  43.0138016  15.3074646  56.8073769  51.7662010   6.3768106
  56.0423698  51.2353363   6.5985742  56.5127831  52.6698799   6.4900031
  69.7316284  17.3385639  12.5360899  69.4563217  17.9202919  11.8275509
  69.2873993  16.5107727  12.3526325  11.6131897  53.1815414  49.9104996
  11.9674578  52.3106041  50.0899200  12.2371902  53.7824669  50.3176155
  58.2531967   8.5190458  87.3203278  58.5073471   8.2088423  88.1894760
  59.0757141   8.7906170  86.9129639  67.4098434  36.4884148  31.1866245
  67.9129410  35.9847946  31.8265457  66.5401077  36.0888252  31.1976547
   8.7912359  32.5310326  76.9414902   8.9754925  33.2240677  77.5755157
   7.9123373  32.7294807  76.6184006  78.4113846  16.7252388  57.5877304
  78.0156479  17.4690495  58.0420113  78.0955811  15.9577303  58.0646248
  75.1233673  32.9555244  41.3470421  75.4424820  32.0536232  41.3782654
  74.5395050  32.9768867  40.5888367  59.6024132   0.2624908  41.0813065
  59.8046265   0.5331441  41.9769020  58.8363037   0.7835309  40.8408394
   3.6472688  43.4195709  33.0174217   2.7246315  43.3380928  33.2589417
   4.0943666  43.6129837  33.8413887  67.7032700  39.8320274  64.0531311
  66.9238434  40.3852654  64.0016785  68.4355698  40.4483528  64.0426178
  31.1342506  10.3942623  51.9134712  30.8120174   9.6022530  51.4832153
  30.5335388  11.0828953  51.6285820  79.5084686   2.2642879  84.3049011
  80.0102768   2.3353913  83.4928970  79.3102951   1.3310939  84.3830566
  30.2956314  61.8281479  74.6837692  29.4923172  61.7226067  75.1934509
  30.9036655  61.1921120  75.0605698  67.8490906  40.1103210  44.4120178
  66.9843597  40.3303299  44.0655136  68.4502869  40.2946014  43.6903229
  24.0711174  59.4605598  83.7996140  24.8453636  59.0087967  84.1353073
  23.5314617  59.6187286  84.5742035   3.0158060  56.2818031  12.6143608
   2.4804218  57.0262146  12.8890400   2.3899822  55.6620064  12.2396259
  30.2248020   5.9514837  71.5129242  30.0042801   5.2422662  72.1167526
  30.8374939   6.5006700  72.0020447  87.0080490  16.8825302  11.7168369
  86.1066055  16.6151428  11.5375872  86.9295502  17.5433464  12.4048719
  70.0990982   6.7289166  60.4096222  70.6343384   6.3914647  61.1278687
  69.8611526   7.6145854  60.6838531   0.2117518  45.8225708  55.3006248
  -0.6143537  46.0837440  55.7075272   0.6359960  45.2673874  55.9548607
  51.1736565  41.5441475   5.4740195  50.5439644  42.2258530   5.2394967
  51.5734215  41.8563690   6.2857680  74.8375244  69.2298355  49.1468697
  75.7557983  69.3262024  48.8944511  74.7683258  68.3275833  49.4589348
  37.4223671  63.8946609  57.2652206  38.0816650  64.5696259  57.4264030
  37.9077072  63.0707359  57.3078651  34.5870743   6.6364503  42.4888000
  34.3229599   6.8683958  41.5984764  33.8614845   6.1100216  42.8244019
  23.0494537  14.7117386  77.1047440  22.5493736  14.0805445  76.5873032
  22.6055870  14.7315836  77.9525757  28.2990837  20.8873882  25.5800800
  27.8147259  20.3414097  24.9607773  27.6219234  21.2992229  26.1168079
  77.5519104  40.9379082  48.6939812  78.2815247  40.8237762  49.3029785
  76.8887482  40.3170815  48.9956779  41.2871819  39.1981964  25.9875107
  40.4645920  39.2429466  25.5000916  41.3402710  40.0371513  26.4452953
  12.7412863  43.0073700  81.4004669  13.1051683  42.5775414  80.6264725
  13.3842106  43.6798706  81.6254654  73.7897110  15.0588732  53.4640961
  74.3663330  14.8225126  52.7375488  73.5507736  14.2218714  53.8623047
  20.9527225  43.3522491   5.9249220  21.7310696  43.8240891   5.6286521
  21.2806854  42.4940720   6.1936197  54.9003258  43.4687233  53.0706291
  54.3115158  44.1904640  53.2911453  54.6105385  42.7449760  53.6260071
  49.7180061   0.7139356  81.4496002  50.1023636   1.3721898  80.8706360
  50.4467506   0.4216649  81.9970856  73.8327789  65.5498581  80.5969620
  74.0659256  66.2472076  81.2098007  73.1228256  65.9196777  80.0721436
  30.8408718  58.6653748  27.5976772  30.9954224  58.8037682  26.6632290
  30.4068012  59.4668732  27.8899326  78.1135254   8.3021660  17.8144302
  78.9202194   8.2116289  18.3216496  77.8383865   9.2070913  17.9615440
  34.9535103  22.2716789  15.0651159  34.1168900  21.8411808  14.8891459
  35.5347748  21.5624256  15.3395691   7.3113770  38.5261269   0.9873211
   6.4402590  38.9199600   0.9395877   7.9046907  39.2220993   0.7047719
  81.0715942  55.0140877  68.2959900  81.7366943  55.6921387  68.4148331
  81.4419479  54.2387581  68.7178116  67.3635635  37.6590271   4.5263448
  67.2394409  38.5333786   4.8955736  68.1341248  37.7433472   3.9647858
  64.7175064  17.5357265  25.0645027  64.4735336  18.4582462  24.9892101
  65.5791702  17.4813538  24.6512070  35.1595726  70.9148712  23.8711395
  35.1315689  71.8615036  24.0101757  35.4488945  70.5579147  24.7108459
  62.0847015  71.8958435  27.3798695  61.5363503  71.5165558  26.6930771
  62.1333656  71.2149353  28.0508633  77.8930664  62.6688042  77.6905975
  77.1803894  63.2559128  77.9428635  77.7075119  62.4449272  76.7786331
  51.2968674  24.8964329  19.5193005  50.6311188  25.5383072  19.7662983
  51.9755249  24.9856853  20.1883965  29.2694378   7.4567256  41.1173134
  29.4984493   6.9462366  41.8939629  28.3926086   7.7933531  41.3019371
  56.1932869  52.4799385   3.7956448  55.4591026  53.0941086   3.7948027
  56.2274895  52.1487694   4.6930790  12.7417841  10.2538710   0.3428622
  13.3913355  10.6941843   0.8909848  13.2335072   9.9646082  -0.4257512
  19.2450695   5.2383046  51.9751549  18.5236797   5.4780126  51.3934593
  19.7601967   4.6085258  51.4709167  24.0314980  10.8084097  85.6467438
  23.7532406  10.6221027  84.7500305  24.4090824  11.6868877  85.6027222
  16.4680290  33.2515221  87.1815262  16.4072666  32.8481026  86.3156204
  17.1324768  33.9333153  87.0820160   1.0720952  29.3313942  38.5218163
   1.9681287  29.3182125  38.8582420   0.7967358  30.2439289  38.6095009
  10.7236013  11.4120913  33.6704826  11.1787453  12.2083569  33.9444084
  10.6396980  10.8962526  34.4724197  71.5702744  24.9573555  18.8203049
  71.8284378  25.6621513  19.4143124  71.0496902  25.3920479  18.1448345
  22.5059071  29.9815979  71.1775131  21.7161484  29.4864616  70.9599075
  22.2124825  30.8914337  71.2257843  74.5891495  13.2590828  86.0556488
  74.9717331  13.2851028  85.1786194  74.1019516  14.0797558  86.1288757
  40.7261620  64.8242264  47.9581680  40.8577995  65.5091171  48.6137848
  41.2541237  65.1038971  47.2103195  53.6017761  58.8570518  13.8005705
  54.5088310  58.5599136  13.7284832  53.1213036  58.0877228  14.1063700
  81.7320938  13.5876932  17.3266068  81.3813629  14.4490070  17.5532303
  82.6647110  13.6467485  17.5338783  64.8824615  34.4662056  63.8656998
  65.6055298  34.3802185  63.2444077  65.3063278  34.6659508  64.7003632
  72.1024780   5.1478705  -0.0181543  73.0049133   4.8320041   0.0273909
  71.7665558   5.0422769   0.8719210   4.8477221  64.6720505  26.6439800
   4.8759789  65.3222961  25.9421139   4.7217364  65.1859436  27.4416485
  12.9216757   1.7437515  74.1825562  13.3810892   1.4079163  73.4128876
  12.1310501   2.1523910  73.8301926  34.9450531  68.2658310  34.1196823
  34.2424202  68.9028397  34.2491341  35.7461548  68.7478561  34.3249245
  65.1818542  43.3927994   4.8105235  64.3559036  43.2268486   4.3561096
  64.9306412  43.8857231   5.5916429  41.1438141  49.9377060  89.1150818
  41.8510361  49.6122551  88.5581665  40.7160339  49.1476173  89.4452209
  71.9155579  18.4951897  39.0267982  72.5711823  19.0144081  39.4924126
  71.0766754  18.8162994  39.3575516  53.8430519  13.4533386  10.0542755
  52.8940849  13.3634720   9.9669809  54.2002068  12.9298916   9.3368664
  85.3459702  35.9066849  71.9095459  85.6413498  36.6765900  72.3955765
  84.9636230  36.2620926  71.1072235  82.9796143  31.6417465  57.1047401
  82.0853043  31.5379505  57.4297943  83.3869858  30.7873917  57.2474136
  85.0292358  10.6868410  89.5381012  84.4641647  11.1828213  88.9457092
  85.4542847  10.0384102  88.9767532   4.3808336   3.5695398  38.2418785
   4.4307203   4.0297437  39.0797081   3.5433183   3.8431687  37.8678093
  13.7683620  10.4553251  29.9385948  13.0496159  10.2076674  29.3569584
  13.6331091  11.3886395  30.1024952  40.0137672  55.9710655  63.3205185
  39.6093597  55.4141579  62.6552811  40.1982994  55.3783722  64.0491486
  22.7475948  36.6135712  76.3096542  22.5592937  37.5257950  76.5301437
  23.6785984  36.5072136  76.5049820  81.4026108  63.1463242  81.3279724
  80.8355026  62.5415344  81.8063507  81.3314362  62.8695450  80.4144287
  13.7329664  10.3931675   3.6242752  14.0540094  11.1804333   3.1845300
  14.4890251   9.8065939   3.6474667  28.6288242  59.9267502  46.2465019
  27.9646511  60.2599487  45.6431084  28.4330750  58.9931946  46.3264046
  16.3921509  15.7037935  48.8441353  16.1124611  15.9496555  49.7259293
  16.2435608  14.7592106  48.8003807  19.6187153   0.5949968   7.5597086
  19.8991108  -0.2801077   7.8276682  18.8439255   0.4430242   7.0185633
  60.1906128  48.3245621   8.4087820  59.7178116  47.5080872   8.5702162
  59.7347145  48.7227440   7.6672707   8.7894917  26.9714355  35.0700302
   9.2050514  26.1459694  35.3193207   8.8111935  27.5008430  35.8672066
  18.8195076  53.8161697  53.3425064  18.8819866  52.9917870  53.8249207
  17.8898792  53.8995895  53.1302261  18.5475140  20.9105358  76.8418808
  19.1137295  21.1080647  77.5879440  19.0849705  21.1072178  76.0746155
  20.1077805  13.1902637  59.3291550  20.0010605  14.1382608  59.4075508
  19.2445869  12.8338833  59.5392075  70.1185379  66.8604736  23.4972839
  70.7641830  67.5315781  23.7186146  70.5435638  66.0341644  23.7270718
  40.5159721  10.7728825   7.6310983  40.9970474  11.4801798   8.0606670
  40.4806023  11.0320253   6.7103238   7.7641482  55.5903664  17.8360538
   8.4993591  56.0921478  17.4840412   7.8498316  55.6741447  18.7857227
  48.8406982  64.7884064  45.0066566  48.5122108  64.6021957  45.8862343
  48.3007393  65.5161972  44.6984367  49.8134956  21.4400463  51.9671936
  50.6492920  21.0192604  52.1687355  49.8313560  22.2581863  52.4637413
  16.8088779   4.9090099  60.6366463  17.3672523   5.6802654  60.5385971
  17.1136074   4.4937019  61.4434242  19.5669651  53.6164780  65.6334534
  18.8849163  53.5801544  66.3040695  20.3878422  53.5964661  66.1253815
  78.2293854  25.4358616  72.5140610  78.0720139  25.0158978  71.6684265
  78.6481476  24.7576466  73.0440598  61.7279854  58.7098503   8.9373808
  60.8354111  58.6209183   9.2714911  62.2820930  58.6501465   9.7156057
  19.4053230  56.9692001  14.3669815  18.4644489  56.8822899  14.5200615
  19.7093525  57.5476685  15.0663891  77.8874969  53.8096466  36.8712769
  78.6586380  54.2884216  37.1751785  77.9118958  52.9842339  37.3553505
  60.3973923  33.6234474  46.3411446  60.6112251  32.7499008  46.6688995
  59.4663086  33.7308960  46.5354843  52.9755249  65.5458679   7.9223065
  52.1876068  66.0830307   8.0052509  53.1308594  65.2105713   8.8052998
  69.2418365  19.6773338  67.6817322  69.2013245  19.9523773  68.5976715
  70.0469284  19.1631031  67.6214600  78.0940247  41.3008270   2.4252088
  78.9299850  40.8951149   2.6549716  78.2366028  42.2373619   2.5623617
  70.0855637   0.1653798  42.0696411  69.5222778  -0.1059061  42.7944450
  69.5482559   0.7751727  41.5639915  32.4357452  70.3978653  28.6096420
  33.2689171  69.9860458  28.3805981  32.1063957  69.8797913  29.3440514
  50.1607437  58.8149834  19.1382179  50.4353104  59.3969727  18.4296055
  50.8440742  58.9070663  19.8021545  17.8032246  56.7868423  67.0007095
  18.7466812  56.6794052  67.1214447  17.5521812  56.0664787  66.4225311
  16.1139393   4.7939477   4.7458897  16.2332783   4.0283966   5.3079586
  15.7777100   4.4373436   3.9236884  36.5742455  58.6903381  33.6995125
  37.4828758  58.7627563  33.9917068  36.5484390  57.8760872  33.1969566
  12.0716448  23.5774784   5.1705489  11.6719141  23.5307121   4.3020678
  12.2588015  22.6665840   5.3974357  69.6839523  31.2952690  66.7711716
  70.0483322  30.5340748  67.2228775  70.1711044  31.3414726  65.9485092
  61.4784050   1.4604000   4.9464068  61.7616615   1.6886420   5.8317900
  60.7309608   0.8768761   5.0770192  48.2703629  10.1710777  47.0192375
  48.7560043   9.3948698  46.7401581  48.8679848  10.9000931  46.8530579
  75.4145889  58.3119011  82.4856567  74.7468491  58.8686218  82.8861847
  75.3799591  57.4975319  82.9874878  85.1554337  59.1387520  59.0004616
  84.7054062  59.1004410  58.1565208  84.9011230  59.9846191  59.3693314
  14.5887575  64.1340637   0.7509430  14.4181433  64.1181335  -0.1907943
  14.2391901  64.9757538   1.0434862  61.4021988  67.8423843   5.4880247
  61.0997391  66.9418564   5.6055212  62.3048515  67.8353424   5.8064528
  49.7006035  21.1884232  74.7607574  48.9009590  20.7962074  74.4100876
  49.6035690  21.1214981  75.7106705  75.9655762  40.0680504  57.6638374
  75.9136353  40.7893066  58.2909889  75.3365021  40.2991600  56.9803963
  59.3662872  11.4681606  47.3513565  59.5753517  11.0069790  46.5390511
  59.2219238  10.7716513  47.9918747  86.3443985   5.6105180  56.3851318
  85.5456238   5.5471754  55.8615074  86.9756241   6.0403538  55.8080482
   5.3797584   8.3328428  61.8959846   4.7867556   8.1316700  62.6199379
   5.0173740   7.8552809  61.1497650  76.9503098   8.7320099  66.9930954
  77.8934097   8.8903685  66.9516144  76.8521500   8.0402842  67.6473999
  29.6363430  13.9861259  88.3438263  29.7375202  13.4241734  87.5755768
  30.0914249  13.5185595  89.0441895  44.5969276  63.8746529  32.2103958
  44.7397804  63.8914795  33.1567268  44.7997093  62.9751434  31.9535141
  33.3192825   4.1158667  84.2071838  33.9491043   4.8069530  84.0023499
  32.5144730   4.3866482  83.7653885   3.1268477   7.1977229  43.4516029
   2.4503181   7.8187590  43.1816902   3.6096284   7.6540103  44.1407738
  46.1405220  37.8823433  88.5606461  47.0552635  37.6792336  88.7561569
  45.7160797  37.9244194  89.4175644  84.8759537  58.3142776  12.4920111
  84.2092209  57.8063736  12.0297041  84.3985367  59.0583267  12.8590136
  18.2050991   7.4088817  23.1009521  17.4934750   8.0047684  22.8669777
  17.8042126   6.5397911  23.0866776  61.4332352  46.2345695  28.9448490
  60.5023994  46.0255165  29.0227547  61.6688652  46.5998802  29.7976437
  19.2937927  46.8017387   0.9537194  19.0534782  45.8765984   0.9027448
  19.0582314  47.0616684   1.8443259  17.9877892  62.8268166  75.1724930
  17.3190594  62.2206192  75.4911728  18.1582317  63.4070396  75.9144669
  59.6387711  51.9328270  22.3630524  59.9472198  52.2237740  23.2212124
  59.7959480  52.6801987  21.7860203  60.9560165   2.6747057  54.5835609
  61.1798019   2.8715768  55.4931717  60.4136734   3.4126909  54.3052216
   9.4763813  70.9856873  25.2041187   9.9034071  70.3756409  25.8055515
   9.0835056  71.6475220  25.7731972   8.6627655  51.1264153  15.1534767
   9.3253345  50.4567719  15.3232279   9.0237617  51.9240417  15.5403929
   3.3528817  25.6996460  12.8766422   2.4707863  25.9795151  13.1212101
   3.4649284  26.0167580  11.9804745  75.3530350  60.1733131  26.3282814
  75.9905777  60.8529739  26.5469723  75.8297806  59.5733414  25.7547169
  60.4370689  35.8143044  48.8675804  60.1420288  36.4308357  48.1974525
  61.1239090  35.3043518  48.4381294  58.0576935  61.4491844  25.6396255
  57.1252899  61.4571228  25.4233036  58.1288567  62.0083847  26.4132290
  15.9279089  32.1437225  78.9583206  15.4514122  31.3952065  78.5992813
  15.3378687  32.8866272  78.8311386  71.7194138  46.7877769  54.5048752
  71.8615417  46.5959511  55.4318275  72.2488403  46.1384087  54.0419922
  64.3644867  11.8290319  13.0340967  64.4754333  11.3954649  12.1879625
  63.4166756  11.9144888  13.1369820  15.5283947  28.2835712   5.8231921
  16.2622757  28.4312859   5.2266769  15.7926884  28.7101383   6.6383123
   3.9321861  28.2681408  87.3107147   4.5445352  28.9934235  87.4341049
   3.3013771  28.3632221  88.0243454  16.6099224  68.2689438  48.9145088
  17.3767548  67.7200165  48.7505569  15.9222689  67.6515045  49.1637878
   4.1278205  47.5423660  38.5087357   4.9012394  47.3838654  37.9675064
   4.4777694  47.7056541  39.3845825   8.1539526   9.3974133  87.7274780
   8.8563290   8.8190851  88.0248566   8.5878315  10.2336311  87.5579987
  86.1387405   0.9417745  32.8036652  86.1169891   0.5051493  33.6552048
  85.9739914   0.2421626  32.1715012  46.0237846  35.9351921   9.6817274
  45.5359306  36.1533966   8.8876104  46.1876945  36.7795601  10.1017389
  79.0462265  12.1824522  46.4213219  78.8561172  12.6108713  47.2559128
  79.2206345  11.2706003  46.6544266  59.4208794  69.3536072  55.4396858
  58.6805573  69.9554291  55.5168953  59.6029167  69.3170624  54.5006676
  14.4265337   6.5959854   2.0060122  13.9519520   6.8655629   2.7923529
  14.9468746   7.3626132   1.7656807  16.7105789   9.6430979   3.7610543
  17.5240822  10.1440296   3.7017860  16.9952564   8.7331495   3.8458169
  76.2449341  42.5192184  82.8301926  76.8206253  43.1129875  82.3482666
  76.7089081  41.6819916  82.8286362  21.8809395  51.9291801  36.6951256
  21.5199032  52.6882820  37.1530037  22.0194569  52.2339478  35.7983780
  17.4461498   3.2227750  31.2367477  16.8210411   3.9272628  31.0659637
  17.2104416   2.8989539  32.1061249  80.9429779  36.6700058  60.2652702
  81.3335114  37.1638908  60.9862366  80.6329422  35.8599472  60.6701355
  68.8140869  27.1125832  46.4548454  68.3095245  26.6351166  47.1133804
  69.6602783  26.6657887  46.4311104  56.3753281  14.0031223  60.8672943
  57.2954216  13.8685436  61.0943375  55.9272842  14.0664673  61.7107849
  58.3316650   7.5218096  54.3447037  59.0946770   8.0924406  54.2529068
  57.6777000   7.8999119  53.7568283  25.0428391  27.6510525  12.4758205
  24.8382702  28.5451488  12.7496386  24.8552551  27.6391544  11.5372562
   0.6363756  58.9203033  28.2741566   0.4637733  58.1046066  27.8039684
   0.0429258  59.5567627  27.8754482  81.1872406  10.1529360  59.9030571
  81.4734955   9.2636013  59.6947937  80.3863602  10.0334101  60.4134903
  28.6694641  66.9307175  35.8190002  28.3620129  66.8605042  34.9152412
  27.9706745  67.4008408  36.2738724  85.8373871  45.6762772  83.3397141
  85.1896973  46.3253517  83.6143646  86.1893311  45.3276825  84.1587677
  33.1631279  13.8011265  41.0256462  33.8945427  13.2201786  41.2348557
  33.5267525  14.6828308  41.1069298  85.2396240   4.7467456  69.2959747
  84.3738098   5.1227145  69.4548492  85.1140213   4.1642618  68.5468597
  73.4899216  38.8676758  70.3684464  73.9506454  39.7034721  70.4419937
  73.2206955  38.6629944  71.2639084  71.9924393  17.1349545  54.6223335
  72.6297150  16.4663887  54.3710823  71.6581116  17.4716034  53.7909927
   4.6669636   9.2101603  19.5845070   4.5205545   9.2059088  18.6385803
   5.1875949   9.9976454  19.7427521  69.2925797   9.1037455  61.2986946
  69.4051285   9.3159428  62.2252655  69.8778458   9.7078619  60.8418198
  43.9283600  38.6472130  22.0422630  43.0822678  39.0902176  21.9781418
  43.8630867  38.1203232  22.8387299  47.6354675  66.7828751  75.7036667
  48.0141296  66.5364304  76.5475311  47.6016922  65.9645996  75.2081680
  35.5506630  28.4336319  75.2692032  35.8125191  27.9594250  76.0583725
  36.3217163  28.4005508  74.7029724  62.2728691  33.0443268  28.5077477
  61.4502068  32.5717354  28.3807888  62.0279427  33.9684601  28.4605961
  64.8403931  53.0092163  63.0703163  65.4777451  52.4854240  62.5848694
  64.5484238  53.6718369  62.4442825  26.5837421   4.4553375  58.5503769
  27.4935169   4.1943388  58.4074745  26.1813965   4.4060287  57.6832466
  72.9879990  46.4610977  64.2103806  72.2605438  46.9024467  64.6488495
  72.6763153  45.5669556  64.0704193  79.6361694  66.2659683  52.6506615
  78.6985092  66.0861588  52.7192116  79.9963379  65.9832535  53.4912491
  52.7171364  15.2642012  67.4881058  52.1841354  16.0519676  67.5956497
  53.5623474  15.4921894  67.8752365  59.7134132  64.9127426  82.1128998
  60.2618523  64.3982010  81.5207062  59.4832191  64.3045578  82.8152924
  79.1982803  11.6928034  42.0687943  78.6671753  12.1030540  42.7513313
  78.9152451  12.1160583  41.2582512  47.9325790  17.2598457  31.9249630
  48.1817131  17.2885113  32.8487282  48.7391548  17.4666424  31.4528370
  35.6515007  47.3972168   0.5838121  36.2905846  48.0916100   0.4237358
  35.9922791  46.9291420   1.3460535  46.0167274  30.8353634   3.0989575
  46.7834015  31.0744724   2.5781224  45.4590912  30.3464031   2.4938185
  70.5194168   9.9647379  66.5940247  71.2093811   9.9085102  67.2550964
  69.9001236   9.2757931  66.8349915  24.6583977  14.1544409   9.2946720
  25.5118866  14.5737486   9.1852751  24.3897285  13.9226141   8.4056807
  77.9452591  70.8286133  71.2662659  78.2084351  71.7158279  71.5108414
  78.4537506  70.6365738  70.4783630  79.8003769  68.4183731   8.6015844
  79.6257401  68.0353088   7.7419338  79.2604980  69.2084198   8.6259041
  34.5312424  40.8280830   2.2992651  35.1970444  40.5246544   1.6821146
  34.9254761  40.6952896   3.1613438   2.3040810  30.5233078  26.0883617
   3.1488383  30.8654594  25.7958736   1.8202965  31.2963409  26.3792305
  47.3394241  40.9792023  20.9669685  46.7465858  40.2296677  20.9124413
  48.1631699  40.6603737  20.5981598  80.1011505  57.7979431  27.1264820
  79.3552322  57.9026222  27.7171345  80.8539047  57.6908073  27.7079582
  69.8069611  70.7088242  60.7606201  70.7189713  70.5501633  60.5171165
  69.6728821  71.6415100  60.5922241  28.5617085  44.1523857  79.1724091
  27.9403591  44.0600471  78.4501724  29.3397121  43.6767654  78.8813248
  21.9931068  64.6694565  24.3664207  21.9775486  65.1400299  23.5330257
  22.9152012  64.6676331  24.6232681  18.1262665  25.9517040  83.4837036
  17.6118259  26.6125584  83.9472275  17.4752979  25.4160042  83.0303802
   7.1536746  21.0065594  11.6546965   7.3918376  20.8636513  12.5707130
   6.3122110  21.4611130  11.6941109   4.8306727   4.1103449  88.7395248
   4.0602450   4.5481319  88.3775635   5.4517632   4.8189397  88.9079666
  30.3668423  36.2428360  82.9074631  30.8133354  35.3961563  82.9113083
  29.8004265  36.2114105  82.1364822  40.2084503   4.7093344   9.4509163
  39.2567635   4.6509476   9.3665743  40.4897270   3.8097875   9.6180420
  21.9212189  65.2066422  15.7499733  22.7112694  65.6921005  15.9874229
  21.2660923  65.8835754  15.5802565  23.1630802  30.9573956  21.1622944
  23.3344498  30.4116802  20.3947926  23.9991989  31.3873310  21.3419991
  82.6991425  19.1690731  37.7250519  82.3820343  20.0699577  37.6611519
  82.8780975  18.9133968  36.8201561  54.0114517  12.4769964  68.7501602
  53.3401794  12.5734892  69.4256668  53.9436722  11.5630178  68.4739685
  70.0746994  44.7055016  13.7146463  69.3534546  45.2576103  14.0166664
  70.0598068  44.7922058  12.7614985  78.1664734  37.3285103  22.6404476
  78.5798264  37.6333275  21.8327007  78.4510651  37.9546318  23.3061886
   3.9104044  14.7502308  61.8519745   3.7415628  14.9989882  60.9432144
   4.8604221  14.8191090  61.9466019  26.6676540  63.3815689  30.2611027
  26.3813114  62.8288078  29.5339870  27.4342518  62.9317932  30.6164360
  30.0179100  30.2108517  70.4707413  29.9927616  30.8308582  71.1995697
  30.4288960  30.6975822  69.7563019  59.8481903  37.8408203  64.8510895
  60.0564880  36.9279900  64.6521225  60.3984108  38.3476830  64.2539444
  67.1166534  30.0305271  83.6910782  66.6470108  29.6216793  84.4180603
  67.8385468  29.4302845  83.5045013  39.0978622  63.5006142  60.2556915
  38.9356537  62.8272552  59.5950050  39.8562737  63.1796799  60.7435875
   7.7892041  56.8911514  10.5150957   8.0786781  56.4701958   9.7056303
   7.3734965  56.1886368  11.0149927  57.2643700  52.6269188  47.0712738
  56.3699112  52.9526215  46.9708138  57.8144760  53.4044876  46.9763947
  64.3961487  55.4119110   6.8065653  63.5237389  55.3020287   6.4283257
  64.4255066  56.3292046   7.0784860  75.5402451  19.2158108  13.1912708
  76.2519608  19.7568455  13.5332937  75.8797302  18.8663521  12.3673391
   1.7076530  12.8070316  41.2132645   1.5563407  12.2046814  40.4849052
   0.9628098  12.6676006  41.7980728   6.3342233  17.4715328  51.9458618
   6.1965961  17.5892105  51.0059471   7.2382417  17.7500038  52.0922737
  62.5956688  70.9646530  43.4833412  62.2073784  70.4418182  44.1848450
  61.9562187  71.6577454  43.3191528  17.3553104  49.7946396  41.5487938
  16.5727043  49.3243332  41.2614479  17.0222569  50.4889755  42.1173058
  26.7149429  62.4156723  27.4191875  26.5454960  61.7353516  26.7675133
  27.6674232  62.4249039  27.5136909  83.2725677  39.7970047  12.1631260
  84.2000504  39.8480873  11.9320288  83.1364822  38.8813477  12.4066124
  17.6386108  63.1909065  85.1215820  17.5757465  63.2116470  84.1666718
  17.3607388  62.3067017  85.3607559  39.1369514  37.2621346  75.5830765
  38.5113068  37.3410759  74.8629608  38.6474266  36.8230133  76.2786179
  28.6809254   4.0250616  34.4313850  29.0478153   3.1882269  34.7165718
  29.0166206   4.1433864  33.5428276  18.4428730  39.0201378  83.9321594
  18.8157940  38.4601021  84.6129837  18.0949402  38.4087181  83.2830582
  11.5978107  26.6836987  69.5133591  11.6022186  27.2079220  70.3142395
  12.3340750  26.0809650  69.6175690   2.0858438   5.5858297  17.3771420
   1.6820211   5.8371015  16.5464668   2.2864358   4.6555595  17.2742214
  66.4567184  57.7473030   7.5759258  65.5448380  58.0045319   7.7121048
  66.6381760  57.9812088   6.6656551  79.7343445  17.3432293  38.4252701
  80.5447083  17.0797005  38.8612785  79.7576218  18.3001022  38.4345474
  32.1555634  60.0606689  87.0180817  31.9311829  60.5044250  86.2001801
  32.1457138  60.7544365  87.6774902  62.2939949  26.4802647  70.1951599
  61.4638176  26.4192219  70.6677094  62.0653267  26.2949371  69.2843399
  65.4251633   0.6356951  33.7191582  66.1535950   0.0389400  33.8909302
  64.8370514   0.1383912  33.1507874  85.2958603  40.9203224  81.4601212
  86.0715714  41.4716530  81.5627594  85.0587845  41.0098877  80.5370789
  73.9042892  47.7095413  34.3675156  73.7617264  48.6557579  34.3916817
  73.2756653  47.3890572  33.7207108  21.3169956   8.7119436  11.5223141
  21.2259312   9.4027786  10.8660479  21.0968456   7.9064922  11.0543251
  22.0078030  49.1119537   6.1902328  21.6927166  49.0909386   5.2866225
  22.9571667  49.0154915   6.1151528  27.5018139   1.0223651  69.0053558
  28.3335552   1.3588115  68.6718292  27.5789146   0.0715885  68.9259109
   7.2126021  40.3872261  56.6322403   8.0866995  40.5289764  56.9956856
   6.7508664  39.8886642  57.3063850  45.9018250  10.5404062  14.7543964
  45.7017174   9.9490185  15.4799633  45.6846466  10.0380659  13.9690819
  37.0821228  23.7621861  15.0308933  36.2294769  23.3742771  14.8340378
  37.1233101  23.7774220  15.9870863  72.8716202  12.3105249  11.1313848
  73.0661316  13.0229988  11.7403002  72.3889847  11.6719275  11.6562567
  55.3139000  33.9567299  35.0240479  54.4872856  33.4961662  35.1683426
  55.5213814  33.7938499  34.1039085  47.4374771  59.9738159   8.2173643
  47.2108955  60.8292923   7.8526030  48.2531891  59.7343216   7.7774949
  34.4751854  22.5654736  73.4157104  35.2596779  22.7775707  72.9099274
  34.7534904  21.8665524  74.0075607  10.6838760  58.4824982  59.1311989
  11.2049723  58.0636368  59.8162117  11.0235491  58.1167183  58.3144646
  36.8092537  54.6433983  10.3390846  36.3131142  53.8762360  10.0535316
  37.2106438  54.9807358   9.5382605   5.1385150  48.2421761  54.5375900
   5.0068650  48.7298126  53.7245026   5.4566193  48.8959732  55.1601524
  86.1292343   6.7076011  61.4486427  86.1955643   6.0125055  62.1033745
  85.2266312   6.6552224  61.1343231   6.9929433  58.3292160  25.9043465
   6.8385053  57.3886642  25.9923573   6.6816511  58.7012939  26.7295055
  51.3475647   8.2136698  71.0752182  51.4693909   8.4022713  70.1447220
  52.0384903   7.5851955  71.2846756  51.5436096  55.5357819  69.7000885
  51.1717834  56.0472488  70.4186859  51.7499504  56.1838570  69.0265503
  75.5036240  41.1071587  42.0063362  75.3935013  40.2937202  41.5139732
  75.4792709  40.8367157  42.9242172  56.1961555  12.9678926  70.2200851
  55.8451920  13.6823864  70.7516403  55.5517311  12.8496313  69.5222549
  70.8507156  43.0619392   3.3559794  70.3641281  42.2409439   3.4296606
  71.7457886  42.8331795   3.6064866   8.6514235  57.1358032  51.0613747
   8.0340300  56.4137230  50.9445190   8.9061384  57.3795319  50.1714592
  22.6996422   9.0111656  32.0827713  23.1055126   9.8550310  32.2812462
  23.4335041   8.4396839  31.8567486  14.7761745  22.0388680  24.3955307
  14.0013695  21.6668472  24.8168507  15.4429111  21.3566990  24.4751606
  71.2383194  47.6530304  47.9856148  71.8472977  47.7807198  47.2582397
  70.3785477  47.5891113  47.5697556  58.1923180  66.0509644  62.6684113
  57.3413124  65.6392975  62.5182304  58.5551453  66.1776505  61.7917480
  82.8278809  32.1241074  50.8729362  83.3775253  31.6643448  51.5075531
  82.9485245  33.0510979  51.0787697  61.0799522  27.2085629   7.9054008
  61.5783958  27.1867390   7.0885119  60.2263756  27.5625763   7.6557646
  23.2774143  49.8376732  66.6448975  24.1200199  49.9840622  67.0748062
  23.1187115  48.8987694  66.7423782  80.8532181  37.5447121  42.8014793
  80.3631516  37.7581787  43.5955162  80.4805145  38.1152802  42.1293335
  80.3722305  59.5481949  61.5918159  81.1620712  59.5119553  61.0523071
  79.7804489  60.1272545  61.1114883   6.6765623  27.6171207  70.3823929
   6.7915182  28.4712868  69.9659576   7.2079387  27.6646671  71.1771317
  83.5970840  52.1008568  78.7891617  82.8684158  51.5974617  79.1523056
  84.3715439  51.7556610  79.2333298  77.7855453  13.3341208  40.4888039
  78.0386276  13.2809992  39.5671997  76.8979721  13.6921616  40.4731903
  18.4662514  70.8276138  87.6525421  17.9337635  71.5902710  87.4266205
  19.2979298  70.9741974  87.2019272  18.0473175  48.7425842  88.4567490
  18.5763607  48.1135750  88.9473572  17.1438713  48.5293999  88.6903610
  27.6742420   3.2397287   3.4398153  26.9137516   3.7408020   3.7344527
  28.3167152   3.9039767   3.1903477  55.4473457  70.8057098  41.5755615
  54.8957062  70.5696793  42.3213615  54.8284607  71.0565186  40.8897705
  14.9860706  56.8576508   0.3004377  14.6870680  57.2286568  -0.5297345
  14.3556871  57.1767120   0.9462307   6.9279060  34.3164101   5.4606991
   6.7810087  35.1644249   5.0417485   7.6678100  34.4651070   6.0494795
  24.2606945  56.1249352  22.5203533  23.7808456  56.9522667  22.5591068
  23.7222157  55.5615425  21.9645996  67.9626923  67.3886490  47.4266090
  68.2148895  66.9922485  48.2605743  67.3479996  66.7644577  47.0409012
  69.1278915  44.0589600  78.4177856  68.6490936  44.0213547  79.2457809
  69.6208267  44.8782234  78.4631500  11.1135416  22.2556229   2.1548030
  10.5719891  23.0078201   2.3938673  11.8960934  22.6398544   1.7595692
   6.4273005  10.8919363  13.6284122   7.0107360  11.6275291  13.8147936
   5.5597963  11.2885475  13.5486145  41.9382973  53.7067909  82.0988846
  42.4931145  52.9671860  81.8511047  41.1559486  53.6118965  81.5556030
  27.8936634  17.2208538   4.0652671  28.1299191  16.3036366   3.9269619
  28.7208805  17.6958599   3.9858301  48.6878853  45.6487350  87.0932465
  48.6571579  46.1090546  87.9319305  48.2449722  46.2364006  86.4811172
  63.5875320  53.2685089  83.9726257  64.4928818  53.1269951  83.6959457
  63.1388435  53.5656929  83.1810532  73.5968933  34.4678497  11.5066977
  73.2330704  35.2902641  11.1788273  74.5017624  34.6804886  11.7352314
  53.7605324  26.8364182  22.9671326  52.9686279  27.2151356  22.5854340
  53.5147858  25.9374943  23.1857090  84.0899582   9.7211599  19.9319305
  83.2538300   9.8373108  20.3831844  83.9344330   9.0007629  19.3211346
   3.3006296  50.4942665  35.9475365   3.2807207  50.0526886  35.0985107
   4.2316751  50.6224976  36.1290398  57.8135910  53.3223305  83.8659973
  58.6352844  53.8054008  83.9537201  58.0212593  52.4391174  84.1710205
  71.0382996  30.4548702  86.4918518  71.7626572  30.9639797  86.8556366
  71.1305847  29.5890923  86.8895264  19.0861568  55.5793877  45.7099915
  19.3897285  56.3239021  46.2293892  19.6686363  54.8612747  45.9575081
  13.6588745  18.7790737  66.3587189  14.1841068  19.1458416  67.0699463
  14.1585741  18.9752045  65.5662155  13.2466745  39.4616814  29.1162415
  13.2199068  40.0454750  28.3581524  13.4162769  40.0412064  29.8589535
  81.4920197  42.3902969  87.8301315  81.1360245  41.8699226  88.5503387
  81.0943146  42.0153694  87.0443268  17.8231583  61.4473038   7.3376279
  18.4191761  60.7044258   7.2420859  18.2026138  62.1313133   6.7859240
  86.8250214  71.6392732  89.1868082  90.0000000  90.0000000  90.0000000
