QMMM reactant CHA#2 frame 46990
 55680
  25.8802338  43.8591232  40.2145958  25.1044579  43.7187500  39.5832672
  25.4470577  44.0101166  41.1144066  26.4031010  44.6481171  39.8621712
  26.8531189  42.7080231  40.3440971  27.1214104  42.3275871  39.3585052
  28.1316719  43.2245369  40.9042320  28.5638771  43.9766808  40.2442474
  28.0480385  43.5630188  41.9369621  29.1156216  42.1090050  40.9217606
  30.0751495  42.4161491  41.3377724  28.6432228  41.2925453  41.4679642
  29.4026947  41.5584869  39.2510948  30.5630226  42.7891121  38.6595573
  30.0695000  43.7536736  38.7785797  31.4370289  42.7706032  39.3106117
  30.8449821  42.4721642  37.6554947  26.1651669  41.5613594  41.0848503
  25.7263889  41.8027611  42.1734428  26.0687370  40.4178429  40.4179611
  26.7815552  40.2576332  39.7205925  25.6068535  39.1660576  40.9494209
  25.8549232  38.9446869  41.9874763  24.0588722  39.3242989  40.9120293
  23.7458096  40.0329247  41.6788025  23.7737007  39.8008842  39.9741364
  23.2867222  38.0656013  41.0999069  23.6585617  37.3154526  40.4019737
  22.2453709  38.2667732  40.8484802  23.4122868  37.3980446  42.7274857
  22.9433537  35.6021729  42.5039520  23.5830860  35.2671661  41.6874924
  21.8792648  35.4110565  42.3650627  23.3433018  35.0442963  43.3506622
  26.0875053  37.9177666  40.2371178  26.7451668  38.0220070  39.1987991
  26.0309696  36.7054710  40.8522682  25.5696030  36.7143250  41.7506943
  26.6294079  35.4339600  40.3116341  27.4853535  35.6128197  39.6608925
  26.9432068  34.5435448  41.5282135  26.0602207  34.4482880  42.1601715
  27.1856918  33.1544685  41.1144829  27.8141499  32.6140442  41.8223534
  26.2095642  32.6835289  40.9983330  27.6478558  33.1640244  40.1273575
  28.0950890  35.1211357  42.3696289  28.6414452  34.2879829  42.8117218
  28.8355503  35.6406250  41.7613907  27.7875805  36.1121483  43.5204659
  27.5172615  35.6920891  44.4892693  28.6887455  36.6990967  43.6979141
  26.9142361  36.6978264  43.2335052  25.6901627  34.7062302  39.2866516
  24.5982361  34.2643013  39.6332741  26.1321068  34.5684319  37.9764252
  27.0624275  34.9229202  37.8062973  25.4535999  33.7847366  36.9447250
  24.5292759  33.3381691  37.3111954  25.0868626  34.7365265  35.7517166
  25.9388695  35.3342896  35.4278908  24.8630562  34.0797539  34.9110832
  23.7339363  35.5703659  35.9963341  23.3174953  35.9442177  35.0609665
  23.0038166  34.9091301  36.4630203  23.8707962  36.7370415  36.8774719
  23.9711590  36.4973793  37.9360504  24.7721081  37.2694969  36.5737762
  22.6828251  37.5930367  36.9109573  21.7878437  37.1375732  37.0189590
  22.6129131  38.8913612  37.1923523  23.7420902  39.5344963  37.0212860
  23.9216709  40.4451180  37.4195557  24.4681931  39.2398911  36.3840332
  21.5297165  39.3610497  37.6272240  20.8110542  38.7120361  37.9142952
  21.4622612  40.3455009  37.8426514  26.2553444  32.5579300  36.4139519
  27.4637871  32.4743958  36.4859505  25.5648880  31.5214710  35.8976021
  24.5555019  31.5159016  35.8628426  26.1691761  30.4365730  35.2148247
  27.0868397  30.1901703  35.7489433  25.5528374  29.5393867  35.2721100
  26.3882751  30.7317085  33.7665863  25.7295094  31.6064854  33.2263260
  27.3833065  30.0003967  33.2404366  27.9388371  29.4662228  33.8932304
  27.9375858  30.0059948  31.8469791  27.2081280  30.3132133  31.0975742
  29.2078819  30.9261971  31.5926838  30.1286354  30.4985466  31.9894562
  29.4279613  31.1270618  30.0535851  28.6816444  31.8754025  29.7869606
  30.4288044  31.5587940  30.0579166  29.2976875  30.1479282  29.5926876
  29.0471153  32.2979622  32.2902489  28.1113319  32.7879066  32.0212479
  28.9304790  32.2509727  33.3729706  30.2534904  33.2547684  32.0434990
  30.0868340  33.6015968  31.0236721  30.1975613  34.1298866  32.6909065
  31.2229633  32.7568512  32.0609016  28.2689800  28.5989552  31.4593830
  28.7432575  27.8422623  32.2711029  27.9997559  28.2212276  30.2310028
  27.5924473  28.9280167  29.6354790  28.4233303  26.8838501  29.6909332
  29.3391514  26.5009232  30.1412048  27.3949833  25.8442211  30.1944294
  27.7260971  24.8375473  29.9393406  27.3173466  25.8866425  31.2808323
  26.0165634  26.0567970  29.5571003  25.6548386  27.0641422  29.7632847
  26.1221924  25.7886238  28.5058975  24.9121456  25.0420856  30.0181522
  25.3864594  24.0958786  30.2785797  24.4138260  25.4932194  30.8762074
  23.8707867  24.6982365  28.9934101  23.3512955  25.4572544  28.5761318
  23.6588688  23.5399876  28.4565506  24.1019840  22.4176044  28.9369240
  24.2552586  22.4182491  29.9352245  23.6878357  21.5998917  28.5127449
  22.8935432  23.4952202  27.4097538  22.6524029  22.5813541  27.0536480
  22.6557484  24.2834053  26.8246746  28.5267525  26.7778339  28.1932983
  28.3626804  27.8091164  27.4810295  28.9809456  25.6863461  27.5910931
  29.1805840  24.8518391  28.1238651  29.2426510  25.6479034  26.1246834
  28.3308525  25.8678684  25.5694027  30.0707645  26.3502369  26.0295258
  29.8004093  24.3466492  25.6243649  30.1661797  23.5008259  26.4108524
  29.8419552  24.1492939  24.2980328  29.6837349  25.0089455  23.7920036
  30.1579723  22.8871632  23.7321739  30.8171539  22.3226757  24.3916702
  28.8224068  22.1122227  23.7598820  28.9174309  21.0825405  23.4151669
  28.3681335  22.1182194  24.7506905  28.1937943  22.6651039  23.0618267
  30.7586956  22.8921852  22.3304977  30.6678276  23.8792629  21.5947723
  31.4381104  21.7841072  21.9860592  31.4912853  20.9728317  22.5853119
  32.0863113  21.5418205  20.6671772  31.4829922  21.9835682  19.8741055
  33.5152931  22.1850548  20.6207275  33.4181442  23.2246075  20.9337654
  34.5176506  21.4814510  21.4992065  35.2497940  22.2105274  21.8463631
  33.9646606  21.1834583  22.3899937  34.9982147  20.6038342  21.0668240
  34.0879364  22.0719433  19.3669300  34.6980591  22.8126926  19.3922997
  32.1386299  20.0280476  20.4102573  31.4585667  19.2570915  21.1287060
  32.7897873  19.6075401  19.3315010  33.3350143  20.2612514  18.7879105
  32.9610748  18.1480618  18.8916302  32.7530289  17.5533161  19.7810650
  31.9891453  17.6023006  17.7899475  32.3843193  16.6391792  17.4669380
  30.5448380  17.4484978  18.3411503  30.6156139  17.0512733  19.3537254
  30.1983356  18.4678078  18.5115757  29.9055748  16.9669724  17.6011639
  31.9046993  18.5235901  16.7198715  32.6404648  18.3323803  16.1336212
  34.3732758  17.7542934  18.4801731  35.0791931  18.6005249  17.9981766
  34.7536125  16.4756813  18.4888611  34.1583443  15.7293921  18.8187218
  35.9771461  15.9763288  17.8842602  36.4096107  16.7270622  17.2228413
  37.0563812  15.5836458  18.9545364  37.8404388  14.9612474  18.5232944
  37.7756119  16.7881832  19.4805889  38.5371284  16.4952068  20.2033310
  38.3160057  17.2583065  18.6589680  37.1078949  17.5365772  19.9073944
  36.5261040  14.8850069  20.1549397  35.7998047  15.4744406  20.7145424
  35.9429932  13.9968042  19.9116726  37.3254051  14.5605431  20.8212223
  35.7210388  14.8265266  16.8872890  34.7402992  14.1240273  17.0362377
  36.4876442  14.6254148  15.8253336  37.2260399  15.3072357  15.7253799
  36.3378105  13.4584980  14.9399080  35.3036499  13.1853523  14.7301359
  37.0608063  13.7961454  13.6427040  38.1000671  14.0998201  13.7684793
  36.9859123  12.9582624  12.9495621  36.5322723  14.9555483  12.8988543
  36.8960953  15.9145832  13.2676144  36.8679695  14.9646072  11.8618746
  34.9939270  14.9501219  12.8037319  34.2929459  15.9713173  12.9304724
  34.5016098  13.8432055  12.4969120  36.8796234  12.1302071  15.5360079
  36.2255211  11.0910463  15.2912006  37.9083900  12.1569042  16.3767757
  38.1515236  13.0917778  16.6717339  38.5852814  10.9495039  16.9967060
  37.8522987  10.1440096  16.9518185  39.7832336  10.5230732  16.0347176
  40.1411400   9.6685886  16.6090508  39.3153038  10.1369677  15.1291428
  40.8802948  11.5158739  15.7857332  40.5120163  12.4971342  15.4864044
  41.5296974  11.6319609  16.6534328  41.7294540  10.9384336  14.6428337
  42.0387611   9.9306240  14.9198723  41.1790886  10.8739653  13.7041941
  42.9070015  11.6804409  14.4102430  43.8501434  11.3468752  14.5492201
  42.8615875  12.8702726  13.8312149  41.7534409  13.3861876  13.3303633
  41.8930321  14.2120190  12.7659016  41.1087036  12.7218161  12.9266005
  43.8959236  13.5826578  13.7898540  43.8889923  14.4665956  13.3012781
  44.7676544  13.2099514  14.1381121  39.0171547  11.1348534  18.4025669
  39.3217621  12.2474146  18.8529243  39.1590958  10.0312891  19.0948753
  38.9021721   9.1744251  18.6259689  39.6394043  10.0359974  20.4995270
  39.3053513  10.9855185  20.9177685  39.1795311   8.8231020  21.4469414
  38.1186638   8.5762024  21.4056835  39.7149582   7.9872704  20.9966011
  39.7553596   8.8604622  22.8610420  39.7951736   9.9765978  23.4394951
  40.1112137   7.8556061  23.4994888  41.1501007  10.1271687  20.4268246
  41.7184868   9.1305647  19.9894524  41.7700310  11.2652092  20.7414017
  41.1833153  12.0530996  20.9761295  43.1758766  11.6048918  20.8442478
  43.5874252  10.7956934  21.4475098  43.8898468  11.5392351  19.4818611
  43.7048149  10.5904551  18.9781914  43.4723015  12.5727434  18.4945507
  43.8048439  13.5539579  18.8332806  43.8095589  12.3380203  17.4849644
  42.3842621  12.5962353  18.4335995  45.3129730  11.6098986  19.7049084
  45.5741501  10.9988575  20.3977413  43.3252182  12.9035969  21.6578503
  42.4587746  13.7054329  21.6562214  44.5492554  13.1343584  22.1773453
  45.2158546  12.3770008  22.1309261  44.9575500  14.2746429  23.0432281
  44.1552582  14.4966507  23.7468948  46.2452126  13.9111805  23.6935139
  45.9428978  13.1064777  24.3637123  46.9636841  13.7733688  22.8854885
  46.8610992  15.0546236  24.5153599  47.2928963  15.8549719  23.9144459
  46.1140251  15.6202393  25.0721874  47.8425751  14.5145531  25.5906067
  47.7074356  13.3862782  25.9929237  48.7878113  15.2372665  26.0612946
  45.0491714  15.5679007  22.2454109  44.3707352  16.5279922  22.6456165
  45.6549683  15.7713709  21.0314693  46.1877785  15.0002565  20.6551819
  45.6821327  17.0724545  20.3881016  46.0379219  17.8646545  21.0468388
  46.6633453  16.9609318  19.1878700  47.5994415  16.6230755  19.6324787
  46.2222366  16.2075272  18.5352592  46.8310242  18.2383251  18.3281231
  47.3573227  17.9101181  17.4318027  45.8919487  18.6691628  17.9808254
  47.6969948  19.3859501  18.9609871  48.0917587  20.3789940  18.3017063
  47.9055252  19.4148750  20.1950035  44.3102837  17.4724216  19.8463440
  44.0035172  18.6480942  19.8819008  43.5676460  16.5268192  19.2919254
  43.9288368  15.5859632  19.2253609  42.2236328  16.8604145  18.8547249
  42.2113190  17.5819530  18.0378227  41.5181808  15.6114950  18.3098278
  41.5560265  14.7379923  18.9607201  40.4892349  15.8958092  18.0895100
  42.2198372  15.2760563  17.0348415  43.2702255  15.1635723  17.3034039
  41.9339523  14.2427559  16.8382168  42.0800095  16.2426090  15.9026823
  41.0801849  17.0262394  15.9232502  42.9562798  16.3054142  14.9803457
  41.3088150  17.3503342  19.9977016  40.7409363  18.4635029  19.8829651
  41.2272377  16.5466290  21.0739269  41.7314491  15.6719837  21.0444756
  40.4531898  16.9395390  22.2633877  39.4236984  17.2313080  22.0557442
  40.3925362  15.7922955  23.3642883  41.3632202  15.2972403  23.3360844
  40.0633392  16.3069897  24.7379932  39.0678215  16.7432594  24.6560478
  39.8076134  15.5416460  25.4707661  40.8483276  16.8953876  25.2130527
  39.4350929  14.7075729  22.8038502  38.3766747  14.9398499  22.9217567
  39.4808044  14.5500069  21.7262688  39.7594147  13.3206844  23.5384140
  40.6171265  12.8043318  23.1073704  39.8203468  13.5529671  24.6016331
  38.9310265  12.6324644  23.3703918  41.0280952  18.3192120  22.7770367
  40.2100792  19.2106934  22.9021912  42.3058243  18.4652767  23.0459957
  42.9351120  17.6854649  22.9195290  42.8544693  19.6980858  23.6147747
  42.3133659  19.8936310  24.5405560  44.2799416  19.5724239  24.0443344
  44.9692345  19.3762112  23.2230682  44.6501846  20.5176983  24.4411678
  44.5815125  18.5576420  25.1634655  44.1671638  17.5819111  24.9097672
  46.0781822  18.6532631  25.5624962  46.3127747  17.8893719  26.3038082
  46.6358490  18.3213043  24.6867619  46.3885536  19.6561203  25.8558369
  43.8487244  18.8528690  26.4561214  44.1780205  18.0807686  27.1514893
  44.2061348  19.8484230  26.7192345  42.7672653  18.8372669  26.3208466
  42.5098305  20.8924713  22.7513523  41.9636040  21.8646832  23.2873707
  42.8194809  20.9080448  21.3831024  43.1581154  20.0784092  20.9171257
  42.7735596  22.2126827  20.6776562  43.3861427  22.8939095  21.2682247
  43.3229637  22.0800114  19.2598972  42.8316841  21.2356243  18.7764130
  43.1629868  23.0042000  18.7045784  44.8604507  21.9055271  19.1691113
  45.0837860  21.0225010  19.7678471  45.0262985  21.6092205  18.1333523
  45.6677437  23.1177120  19.6234169  45.1584206  24.2018261  19.8392086
  46.9691963  22.8703671  19.8406048  47.2813721  21.9456139  19.5808372
  47.5821495  23.6089363  20.1550941  41.3426132  22.7778835  20.6115894
  41.1372948  23.9129524  20.9370766  40.3549843  21.9193764  20.2302113
  40.5822754  20.9402447  20.1315155  38.9026566  22.3008232  20.2283344
  38.7101326  23.0845699  19.4956875  38.0710869  21.1222458  19.6398602
  38.3861961  20.1965885  20.1214867  37.0267448  21.2816715  19.9082508
  37.9532814  21.0049686  18.1085587  37.1128883  20.3587837  17.8550186
  37.6725960  22.0083542  17.7883530  39.2375450  20.4530773  17.4165535
  39.9718437  21.2571430  17.4654121  39.7091064  19.6070480  17.9165211
  39.0273819  20.0316277  15.9720516  38.3926353  19.1488628  15.8950977
  38.5864296  20.8918457  15.4683771  40.3363647  19.6908398  15.3652525
  40.2463112  19.6817989  14.3593159  41.1201477  20.2272587  15.7088308
  40.5897560  18.7697792  15.6931868  38.3847656  22.7100792  21.5930805
  37.7213173  23.7340412  21.7218151  38.7909279  22.0397301  22.7016010
  39.3993378  21.2496815  22.5410938  38.4766922  22.4925785  24.0812187
  37.4009895  22.5772762  24.2354832  38.9661407  21.4837284  25.0809822
  40.0394745  21.6111736  25.2217464  38.3047905  21.8935108  26.4445419
  37.2320175  22.0566444  26.3413620  38.5017509  21.1740742  27.2393494
  38.6540871  22.8426189  26.8510971  38.5706406  20.1642780  24.8134460
  39.1751556  19.7924213  24.1670055  39.0428314  23.8915539  24.4007893
  38.2846718  24.7645340  24.8285427  40.3549767  24.1148720  24.1274261
  40.7087860  23.3145638  23.6230183  41.0916481  25.3819370  24.4080524
  41.0566101  25.4978504  25.4913082  42.5911369  25.1575069  23.9755821
  42.8979645  24.1555500  24.2756462  42.5722313  25.1114616  22.8867168
  43.5110817  26.2496223  24.5754662  43.1475449  27.1799145  24.1390018
  43.4443054  26.2310390  25.6632595  44.9767342  26.0604477  24.2613831
  45.4533958  26.9186077  24.7351494  45.1749420  25.1348190  24.8017788
  45.3334808  25.8870258  22.7575874  44.5369339  25.2375946  22.3944721
  45.1836319  26.7553101  22.1159267  46.6775742  25.3117847  22.5700321
  46.6682968  24.3347626  22.8258476  46.9370155  25.3937473  21.5973701
  47.2674751  25.8337345  23.2022400  40.4929619  26.5322247  23.6172352
  40.4279060  27.6571465  24.0517311  40.2108040  26.2644310  22.3577881
  40.3429565  25.3232803  22.0159245  39.6134987  27.2527447  21.4740620
  40.1540642  28.1988106  21.5032043  39.7447853  26.7495956  19.9960995
  39.4126587  25.7152901  19.9066162  39.0814934  27.2966633  19.3261299
  41.1658249  26.7926254  19.3830833  41.7792740  26.2107258  20.0709591
  41.1360054  26.3088570  18.4067745  41.6885109  28.2355080  19.2535172
  41.0123444  29.1978970  19.3615208  42.9695320  28.4885540  19.0759888
  43.1227112  29.4684315  19.2669849  43.7290268  27.8228607  19.0868549
  38.1359940  27.5669250  21.7377129  37.7157326  28.7081451  21.5777073
  37.3587875  26.6040745  22.3402138  37.7259026  25.6631756  22.3343582
  36.0418320  26.8740368  22.9575539  35.4246292  27.3284550  22.1825294
  35.3615456  25.5199375  23.2188759  35.0316315  25.0478363  22.2934704
  36.0231895  24.7862644  23.6793633  34.1715622  25.4833202  24.1561775
  34.4809570  25.9700546  25.0810928  32.9293442  26.2125988  23.6618423
  32.7680168  26.0607529  22.5945969  32.0554199  25.8188972  24.1808376
  32.9708595  27.2363834  24.0336380  33.7608490  23.9881458  24.4524498
  32.8821602  23.9238262  25.0942268  33.6408653  23.4854488  23.4927616
  34.5854340  23.6259193  25.0664139  36.1810417  27.6508541  24.2563400
  35.3739166  28.5410480  24.4665260  37.1716423  27.3927345  25.1593361
  37.8551788  26.6955223  24.9009151  37.3306274  28.0840950  26.4214897
  36.3431358  28.1012783  26.8826523  38.2999725  27.2902241  27.4199276
  37.9646492  26.2617664  27.5538368  39.2883530  27.1251106  26.9910488
  38.4143372  28.0617504  28.7627754  38.5404892  29.1428185  28.7037067
  37.1944809  27.8104038  29.6238365  37.4026260  28.1350994  30.6433239
  36.4437294  28.4859695  29.2138653  36.8428574  26.7791481  29.5926647
  39.5867920  27.4763451  29.6148033  39.2732849  26.4721813  29.9002323
  40.4593582  27.2610283  28.9980583  39.7471504  28.1161232  30.4825993
  37.7086563  29.5798168  26.1759548  37.1348000  30.4601135  26.8099594
  38.5590553  29.7606087  25.1604862  39.1472702  29.0375080  24.7716026
  38.8842506  31.0516605  24.6504612  39.2821655  31.7160339  25.4175167
  39.9822502  30.8638687  23.5892353  39.6024437  30.0307827  22.9977837
  40.1716995  31.7714233  23.0160389  41.3816795  30.4924278  24.0656147
  41.2748108  29.7833881  24.8865528  41.9903183  30.0767174  23.2625942
  42.0957260  31.7615452  24.5800896  41.4775429  32.6797256  25.0495377
  43.3280983  31.8875294  24.5987473  37.7469177  31.7665730  23.9531765
  37.6258316  33.0149612  24.0665932  36.9255829  30.9501324  23.3065891
  37.2538261  30.0058384  23.1628380  35.7533226  31.4963474  22.5611095
  35.9869080  32.4055290  22.0070972  35.1326294  30.4847584  21.6201229
  35.7991714  30.1645794  20.8193073  34.9883957  29.4972115  22.0583572
  33.7956276  30.7903214  20.9750862  33.4331398  29.9625568  20.3655720
  33.1143227  31.1270618  21.7564545  34.0073471  31.9391708  19.9399910
  34.7514610  32.6612091  20.2762260  34.2849350  31.4911289  18.9858932
  32.6793976  32.6417770  19.8384953  31.9578323  31.8868732  19.5261402
  32.3803864  32.8897438  20.8569298  32.7487373  33.8337173  18.9523582
  33.2035217  34.6637840  19.3048649  33.0959930  33.5495262  18.0475101
  31.7831020  34.0231323  18.7248268  34.7279663  32.0027657  23.5724335
  34.3664589  33.1642723  23.5694790  34.4414024  31.2786407  24.6573067
  34.9759521  30.4259892  24.7429905  33.7165222  31.8268929  25.8535290
  32.7241440  32.0573273  25.4659786  33.5521622  30.6495590  26.9014988
  34.4777679  30.1555462  27.1969700  32.8847885  31.2588100  28.1518250
  33.6121902  31.9045486  28.6437778  32.0316238  31.8913651  27.9067039
  32.6596985  30.4906425  28.8916588  32.6268501  29.5801506  26.2628803
  31.6315918  29.8895435  25.9437542  33.2146034  29.3304081  25.3795490
  32.4585686  28.2769947  27.0109882  33.3474884  27.8731346  27.4955730
  31.7063751  28.4152603  27.7876396  32.0357666  27.4973736  26.3773251
  34.3079872  33.1183891  26.4916382  33.5757141  34.1045570  26.7357178
  35.6194992  33.1642418  26.6673203  36.1753273  32.3438950  26.4719124
  36.3438873  34.2978058  27.3560486  35.8732224  34.5677299  28.3014126
  37.8448563  33.9554634  27.6247883  38.2072868  33.4350967  26.7382431
  38.7866402  35.1185722  27.9899483  38.7374573  35.8825188  27.2140179
  38.3557930  35.5144539  28.9095898  39.8225670  34.8245430  28.1587772
  37.8123856  33.0053101  28.8505383  37.7578812  33.4871063  29.8267555
  36.9574852  32.3313980  28.7949486  39.0081482  32.1134224  28.8665848
  39.9708405  32.6120911  28.9790192  38.9445267  31.2469044  29.5247631
  39.1061668  31.6930542  27.8656940  36.2237358  35.5019112  26.4378986
  35.9087410  36.5371246  26.8810501  36.6110573  35.3771553  25.1485329
  36.7516174  34.4127083  24.8836117  36.4693451  36.4645500  24.1615772
  37.1118164  37.3328400  24.3078880  37.0303955  35.9144020  22.8393745
  38.0398254  35.5990105  23.1033440  36.5229340  34.9965057  22.5426273
  37.1203117  36.8722763  21.6285534  37.3380013  36.2183495  20.7841091
  36.1744003  37.3896828  21.4683647  38.2459717  37.8627663  21.7377071
  38.1530647  38.9757156  21.1659851  39.3093948  37.5353699  22.3131161
  35.0649986  36.9619598  24.0481510  34.9327621  38.1984367  23.8950253
  34.0352097  36.0786591  24.1235580  34.2177925  35.0870399  24.0648041
  32.7039223  36.6524544  24.0937195  32.7194595  37.4137192  23.3137608
  31.5616665  35.5998154  23.7833729  31.7315960  34.7671967  24.4659920
  30.5796413  36.0236740  23.9933167  31.5244522  35.0923920  22.3092403
  32.5428314  34.8944511  21.9748325  31.0332298  34.1250267  22.2043591
  30.9232483  36.1765900  21.3377171  30.3468666  37.2389183  21.7138500
  30.8882866  35.8074684  20.1308041  32.2318726  37.3717384  25.3877392
  31.7465591  38.4755669  25.4209843  32.5149841  36.7351761  26.4763641
  33.0057983  35.8538246  26.4271603  31.9933662  37.2007141  27.7617607
  31.1329041  37.8464088  27.5863132  31.6685410  35.9407730  28.6240864
  32.4876595  35.2225533  28.6603184  31.4228020  36.3197784  29.6160889
  30.5498314  35.2823410  27.9422207  29.4204521  35.5963402  28.2308731
  30.7955818  34.3570976  27.0715542  30.0699272  33.7510414  26.7162762
  31.7306290  34.0234451  26.8859177  33.0414810  38.1192436  28.4473896
  32.8695526  38.5965080  29.5610180  34.0973015  38.5540199  27.6749554
  34.1521835  38.2560921  26.7114601  35.3750725  39.2010345  28.2099800
  36.1928406  38.9667320  27.5284653  35.2786102  40.7160835  28.1385593
  34.4717293  40.9849930  28.8202724  36.1755447  41.2233696  28.4939003
  35.0633202  41.2929993  26.7039738  36.0355453  41.1931038  25.6757317
  36.9396935  40.7433357  25.6938591  35.4112244  41.6524849  24.5520782
  35.8893356  41.6764030  23.5839691  34.1354256  42.0183105  24.8457050
  33.4473534  42.4200935  24.2250404  33.9224510  41.7865791  26.1629772
  33.0141945  41.9429665  26.7260265  35.8187294  38.5863571  29.5587673
  36.0457458  39.3680534  30.4731045  35.7632256  37.2835884  29.9076157
  35.6638641  36.5999718  29.1708031  35.8138046  36.8474693  31.3041840
  35.2201691  37.5254860  31.9173698  35.0995560  35.4090271  31.4476509
  35.5220032  34.7462883  30.6923923  35.2726898  34.7829361  32.8230438
  35.1162529  35.5957947  33.5321884  34.4983025  34.0170479  32.8658905
  36.2469025  34.3115044  32.6935806  33.7288399  35.5569382  31.1294441
  33.3121338  36.0210686  31.8591957  37.2271118  36.6971741  31.9049950
  38.0277557  35.9179039  31.4229641  37.4593010  37.5894737  32.8641129
  36.6929436  38.1840858  33.1455956  38.5999146  37.5505180  33.8204765
  39.4544601  37.1560936  33.2706795  38.9959183  38.9690323  34.2822227
  39.6235695  38.8917656  35.1700172  39.6583061  39.4194527  33.5429916
  37.7502670  39.8562737  34.6785126  37.1808586  40.0492516  33.7693214
  37.1836510  39.3179970  35.4383163  38.0841866  41.2442284  35.1944351
  38.6571121  41.1827888  36.1196823  38.7076950  41.7099495  34.4312553
  36.7939262  42.0857430  35.3792305  37.0986977  43.1307945  35.4347305
  36.2537575  42.0296097  34.4341545  35.9701653  41.8382568  36.5508194
  35.5437737  40.9228516  36.5329514  36.5422935  41.9219818  37.3789291
  35.2147827  42.5086555  36.5592003  38.4447708  36.5338783  34.9577026
  37.3285217  36.3586464  35.4417763  39.5261002  35.8148880  35.3750343
  40.9521370  35.9446754  34.9734268  41.2932777  36.9490585  35.2243042
  41.1210213  35.7424927  33.9157410  41.7618904  34.8769264  35.6808090
  42.0259056  34.9851990  36.7327957  42.5919876  34.5089188  35.0778122
  40.7382660  33.7664146  35.8427963  40.9385567  33.0153389  36.6069145
  40.7461014  33.2218399  34.8986130  39.3937073  34.5273819  36.0415039
  38.5757828  33.9963226  35.5545959  38.9405251  34.5712967  37.4850616
  38.3456802  33.6437416  37.9385185  39.2171974  35.6331711  38.2464676
  39.8638611  36.3102646  37.8676949  39.0071716  35.8162766  39.6553268
  39.1211128  34.8948975  40.2264442  39.9643402  36.9108505  40.1378746
  40.9561272  36.5295372  39.8948555  39.7187386  37.8388939  39.6216202
  39.7811737  37.2305870  41.6563530  39.6219673  36.3083878  42.2151985
  40.7320099  37.6217957  42.0182457  38.7234688  38.2875900  42.0077209
  38.3072548  38.2075119  43.2200165  38.4761429  39.2910461  41.3099442
  37.5188103  36.1636086  39.9726982  37.0768738  35.8355255  41.0489731
  36.7107582  36.5301437  38.9395485  37.2348671  36.5548096  38.0765305
  35.1939926  36.4949493  38.9075584  34.7795525  37.0056305  39.7767792
  34.8024826  37.1942062  37.6054764  35.1857834  36.6668167  36.7319565
  33.7133713  37.2327805  37.5840988  35.1344414  38.6353569  37.3750801
  35.8358498  39.2283211  38.3222847  34.7027626  39.2787514  36.4062004
  34.6245842  35.0185280  38.8404350  33.4866676  34.7865448  39.1886177
  35.4180565  34.0345955  38.3738785  36.3365822  34.2567177  38.0174026
  35.0160904  32.6672173  38.3279381  33.9763069  32.7052345  38.0031166
  35.8752823  31.8496876  37.3641434  36.8970490  31.7582092  37.7325592
  35.3419914  30.4351387  37.1994820  36.0398026  29.8179932  36.6335449
  35.1817017  29.9850082  38.1791725  34.3694305  30.5817509  36.7296638
  36.0314636  32.5458031  35.9372559  36.6571922  33.4260674  36.0845795
  36.5413895  31.7805386  35.3520660  35.0660400  32.9080276  35.5839157
  35.0196342  31.9799690  39.6697350  36.0114822  31.9192467  40.3965836
  33.9121704  31.3332443  40.0686073  33.1274719  31.6184025  39.5002480
  33.7412682  30.5711346  41.3039436  34.1601410  31.1003876  42.1598282
  32.2410431  30.4579849  41.6322289  31.6552391  29.9270020  40.8819008
  32.0630722  29.6764240  42.9207382  31.0110493  29.6416378  43.2038078
  32.3981628  28.6455173  42.8065262  32.6360245  30.2144222  43.6759796
  31.6672916  31.8606644  41.7320137  32.3006020  32.3781853  42.4525604
  31.7470760  32.3996582  40.7879677  30.6080265  31.7885036  41.9787025
  34.3768272  29.2084293  41.1380386  35.2104073  28.8383636  42.0056801
  33.9693718  28.4251137  40.1387215  33.3049126  28.7936649  39.4733162
  34.2652855  27.0214176  39.9678154  35.3478165  26.9720001  39.8503609
  33.6994667  26.1656380  41.0386047  33.9330597  25.1026993  40.9778137
  34.0400887  26.5822697  41.9864960  32.1523209  26.0403442  41.0975037
  31.5809059  26.9487610  40.9068108  31.8851624  25.3223324  40.3221436
  31.6555042  25.4742451  42.4582481  32.1872749  25.7836628  43.5454025
  30.6319561  24.6072826  42.4797859  30.3635216  24.1857262  43.3574715
  30.2496357  24.2436085  41.6185799  33.6840363  26.6067524  38.5315704
  33.0116997  27.3986244  37.7808800  34.0016975  25.4059200  38.0653496
  34.5835228  24.8348465  38.6615524  33.8189583  24.8586845  36.7607422
  32.8527107  25.2590008  36.4537964  34.9898186  25.4855022  35.9526825
  34.9316139  26.5713539  35.8776016  35.9107399  25.2071304  36.4650459
  34.9973793  24.8961811  34.5348587  35.2273865  23.8325806  34.5977135
  33.9840813  24.9876671  34.1437569  35.9969864  25.7017956  33.3300629
  37.7092247  25.6453533  34.1880341  38.4323425  25.9619446  33.4363861
  37.7615852  26.3077717  35.0520744  37.9647865  24.6169167  34.4431953
  33.8466339  23.3247185  36.7902870  34.3988686  22.6350212  37.6518021
  33.2314034  22.7687397  35.7392960  32.8284721  23.4425449  35.1038971
  33.0513268  21.3897800  35.3518295  33.8818512  20.8794880  35.8396263
  31.6142063  20.9873924  35.6933823  30.8495712  21.6012154  35.2173004
  31.4449100  19.9489975  35.4084702  31.2168007  21.0748405  37.1770477
  31.5723267  22.0349350  37.5511208  29.6643867  21.0030880  37.4224625
  29.1640091  21.7325554  36.7856026  29.2718391  19.9870033  37.3827209
  29.4548092  21.3359184  38.4390259  31.8919430  19.8965816  37.8606224
  31.5195885  18.9053249  37.6020393  32.9732819  19.9655190  37.7420692
  31.8149338  19.9832478  38.9444389  33.3772354  21.1584911  33.8898964
  33.0373726  22.0622864  33.0927887  34.0320320  20.0880737  33.4506493
  34.4440269  19.5134449  34.1718750  34.3221397  19.7909088  32.0590553
  33.7689514  20.4781876  31.4189529  35.7802010  19.9896221  31.6553154
  36.4160995  19.4135742  32.3275490  35.9675369  19.6467552  30.6377449
  36.3330154  21.4255829  31.6355228  35.5550690  22.1070805  31.2913437
  36.8613243  21.7683697  32.9991188  37.4175606  22.6997433  32.8930855
  35.9733200  21.8560371  33.6251106  37.5311813  20.9921436  33.3690681
  37.4122200  21.5918198  30.5799789  37.5657082  22.6572762  30.4086742
  38.3295593  21.0798569  30.8706226  37.0694809  21.1721478  29.6341991
  33.9256134  18.2979774  31.8117867  33.8605309  17.5251369  32.7194405
  33.5849266  17.8935318  30.5880547  33.4974022  18.6303215  29.9027939
  33.1581612  16.6008701  30.1702309  33.8218536  15.8438263  30.5879593
  31.7692623  16.3286304  30.7563877  31.7382832  15.2392111  30.7740211
  31.6738625  16.6633396  31.7893295  30.7661209  16.8848743  29.9413700
  30.2217255  16.1061726  29.8040409  33.3151398  16.4641972  28.6554279
  33.7512283  17.3260860  27.8728180  33.1445694  15.1986532  28.2950840
  33.0368996  14.6072378  29.1067085  33.3109093  14.5980339  26.9485378
  33.0811653  15.3797579  26.2245045  34.7940636  14.2532263  26.8597870
  35.4280968  15.1266775  27.0120621  35.0847969  13.4171419  27.4958191
  34.8215599  13.8786650  25.8365269  32.4969711  13.3235941  26.7939701
  32.1822281  12.6994925  27.8279324  32.1748123  12.8620214  25.5877266
  32.2492905  13.4552736  24.7737217  31.3951645  11.6348038  25.4638348
  30.5621376  11.8335142  26.1381321  30.7348804  11.4269524  24.0876255
  30.2288418  10.4630051  24.1408234  29.6914196  12.5015993  23.6849060
  29.5075626  12.3963194  22.6156921  28.7364998  12.3931952  24.1991768
  30.0994854  13.4811335  23.9340973  31.7153854  11.2209454  23.1405659
  31.8995762  10.2796679  23.0996399  32.1256752  10.3782425  26.0371857
  33.3498764  10.3325806  26.1351833  31.3948994   9.3168364  26.5145206
  29.9578228   9.1967955  26.4399548  29.7237453   8.5244846  25.6145420
  29.4036350  10.1338301  26.3856277  29.5094166   8.4628792  27.7404900
  28.5276299   8.0164728  27.5826283  29.4552822   9.1228304  28.6063061
  30.6825924   7.5209746  27.9468212  30.5063629   6.5962782  27.3972931
  30.7415848   7.2092085  28.9896164  31.9377270   8.1354408  27.3026237
  32.5544319   8.5335321  28.1084156  32.9036102   7.1322522  26.5336800
  33.2672920   6.0320449  26.9739304  33.2308197   7.5087695  25.3045025
  32.8349304   8.3620701  24.9367390  34.1411400   6.9883637  24.2933273
  34.6675377   6.1001616  24.6427631  33.3371239   6.6916199  23.0482235
  33.9554710   6.2114282  22.2898293  32.4463158   6.1240697  23.3173847
  32.6640549   7.9752011  22.5357189  32.7430840   8.2316322  21.3214817
  31.9765301   8.7571745  23.2872448  35.2686768   7.9919653  24.0832691
  36.0564957   7.7951369  23.1531219  35.4604683   9.0256453  24.8944359
  34.8279343   9.0534363  25.6813488  36.6947403   9.8967171  24.8797493
  37.4039917   9.6511784  24.0893230  36.2673264  11.3108845  24.5069122
  35.5898819  11.6697216  25.2817688  37.0899849  12.0259142  24.5153046
  35.5981903  11.5526228  23.1470604  34.8808098  10.7494736  22.9784946
  34.8853264  12.8689175  23.1961327  35.6287155  13.6599512  23.2947884
  34.4310799  12.9828901  22.2118721  34.1396675  12.8904991  23.9908791
  36.4981003  11.5289297  21.8612919  37.0658340  10.5985336  21.8493462
  35.8192024  11.5652685  21.0093079  37.1458664  12.4052191  21.8365517
  37.4471245   9.7277441  26.2231503  36.9374809  10.0144176  27.3211689
  38.6399193   9.1872072  26.0384521  38.9134254   9.0651302  25.0738850
  39.5639381   8.8219385  27.1013584  39.2094917   9.2247944  28.0501328
  39.5579300   7.2594557  27.3022900  40.0096664   6.7783709  26.4347687
  40.1104660   7.0349579  28.2146511  38.1211014   6.8245711  27.5873699
  37.2936783   7.2331867  28.6829052  37.5507431   7.7881398  29.4866734
  36.1208878   6.5822482  28.4807529  35.2870407   6.7011895  29.1567364
  36.1122360   5.9311209  27.3027554  35.3390274   5.4081221  26.9171143
  37.4135780   5.9431663  26.7955360  37.7156372   5.2990665  25.9829502
  40.9947014   9.2429724  26.9433365  41.8149719   9.0001469  27.8281612
  41.4510841   9.7429667  25.7819405  40.8481293   9.8213358  24.9754639
  42.8686371  10.1012230  25.5429249  43.3982773   9.1576986  25.6746578
  43.0054054  10.5862818  24.1340294  42.5024300   9.8712454  23.4829979
  42.4480667  11.5216265  24.0830021  44.0548134  10.6606092  23.8488693
  43.4457474  11.1415300  26.5437489  44.6337242  11.1591349  26.8050404
  42.6136818  11.9632807  27.1456184  41.6303177  11.7328796  27.1429253
  43.0945587  13.1603880  27.9777069  43.9293365  12.7208834  28.5236759
  43.7280045  14.2005854  27.0347176  44.3412628  13.6668491  26.3086739
  42.7450256  15.1105509  26.3649940  42.1643333  15.6906157  27.0822239
  43.3567886  15.8767929  25.8888340  42.1697884  14.4650831  25.7012444
  44.7735596  15.0016737  27.9378452  45.3085213  14.2513704  28.5200558
  45.4648628  15.4128819  27.2022457  44.3460503  15.7561693  28.5982037
  41.9472046  13.6958284  28.7750206  40.7682724  13.7260141  28.3684006
  42.2837372  14.1889000  29.9358997  43.2329483  14.2497673  30.2755928
  41.4025307  15.2012520  30.6089020  40.3993530  14.8090591  30.7759914
  41.9176636  15.4115515  32.0115128  42.9857178  15.6164455  32.0848427
  41.3323097  16.2387753  32.4129639  41.6919632  14.2668028  32.8859253
  40.4214706  14.0106020  33.3243103  39.6060944  14.6516342  33.0232391
  40.1520691  12.9729795  34.2148209  39.1577148  12.8088579  34.6030617
  41.1990852  12.1916046  34.6530609  40.9177513  11.3391571  35.2535515
  42.4834595  12.3708582  34.0937500  43.2833366  11.7161150  34.4066544
  42.7296486  13.4377251  33.2840958  43.6991692  13.5363731  32.8185921
  41.2873154  16.5370846  29.9083710  42.3459969  17.1989422  29.8131046
  40.0593491  17.0568886  29.5723248  38.7979851  16.3192768  29.6564369
  38.4061089  16.3151455  30.6735497  38.9292374  15.2626123  29.4233379
  37.8671227  17.0190926  28.6714668  36.8929329  17.0626965  29.1584549
  37.8113441  16.6156616  27.6604118  38.3328400  18.3828316  28.5947075
  37.8922729  19.0534058  29.3324928  38.0725555  18.7809429  27.6139603
  39.8236732  18.3259468  28.8759975  40.3519516  18.3094139  27.9227142
  40.4148712  19.4445534  29.7208214  40.7315254  20.5678635  29.2124176
  40.5711403  19.3157768  31.0265617  40.4956131  18.3794556  31.3976460
  41.1139450  20.2645073  31.9943619  40.4412651  21.1190662  31.9213333
  40.8686523  19.7493534  33.4030533  41.3581657  20.5116177  34.0092201
  39.8176041  19.5379066  33.5997314  41.3760300  18.7964840  33.5537529
  42.5607948  20.6412468  31.6821918  42.8497887  21.8159180  31.8341408
  43.4092903  19.7780590  31.1926384  43.1804276  18.7961597  31.1326485
  44.7606010  20.1667290  30.7788658  45.3107338  20.3438282  31.7030373
  45.3802795  18.8926487  30.1789398  45.5194054  18.1861000  30.9971943
  44.6980400  18.5521030  29.4000454  46.7839355  19.0637665  29.5181770
  46.6887169  19.6952667  28.6348648  47.3263512  19.6643944  30.2483368
  47.5235748  17.7040482  29.2265186  47.3304329  17.0958309  30.1101856
  46.8477898  17.2821732  28.4825802  48.9525490  17.7633228  28.5760975
  48.8148003  18.2294483  27.6004658  49.5976028  18.4260654  29.1529636
  49.5077171  16.3539753  28.5030994  49.3957176  15.7450209  29.3010521
  49.0635872  15.8450241  27.7522182  50.5068550  16.3414707  28.3558769
  44.8334274  21.3864136  29.8532829  45.8666801  22.0754108  29.8979530
  43.7770805  21.6892834  29.0805016  43.0171242  21.0247059  29.1104660
  43.6391716  22.8847809  28.2341709  44.4861450  22.9224510  27.5490990
  42.3548279  22.7107372  27.4593353  42.4103050  23.2932014  26.5396805
  42.1962242  21.6794872  27.1439419  41.5538139  23.0459290  28.1182117
  43.6278419  24.2510662  28.9644814  44.2107048  25.2625675  28.5187874
  43.0207329  24.2013721  30.1306400  42.6354103  23.3153172  30.4248066
  42.8564301  25.3857708  31.0555744  42.2371330  26.1641369  30.6097870
  42.0894470  24.9300556  32.3378525  42.6947327  24.1936474  32.8664665
  42.0172577  26.0541058  33.3613815  42.9099846  26.0500813  33.9867783
  41.7328415  27.0115147  32.9248352  41.3031464  25.7649994  34.1324615
  40.7604828  24.3645401  31.9593105  40.1489105  24.2086334  32.8479958
  40.1306686  24.9736462  31.3109035  40.9467926  23.3743458  31.5434952
  44.1899796  26.0012436  31.4167213  44.2486115  27.2065449  31.7112617
  45.3359718  25.3129406  31.4975052  45.3012390  24.3185463  31.3240910
  46.6434669  25.8718281  32.1099091  46.4193916  26.6403809  32.8496513
  47.3459778  24.8225136  33.0007172  47.3828735  23.8295708  32.5526085
  48.3654709  25.1546116  33.1968079  46.5667152  24.6624622  34.2790604
  46.5516014  25.6623650  34.7127304  45.5802994  24.3090572  33.9787369
  47.1906891  23.7604389  35.3145294  48.2475510  24.0085373  35.4124641
  46.7326050  23.9333210  36.2883720  47.1268768  22.3186913  34.9028358
  47.9865112  21.8442078  34.6661873  46.0231094  21.5672188  34.7891769
  44.9118500  22.0010986  35.2678871  44.1673164  21.3247566  35.1765900
  44.9174690  22.8876972  35.7516327  46.1021500  20.3777275  34.3210678
  45.2357635  19.8682137  34.2217293  47.0073929  19.9909019  34.0952187
  47.5744171  26.5845928  31.0951042  48.6286850  27.1179771  31.5084553
  47.0974731  26.7473679  29.8653965  46.3717918  26.0937214  29.6080341
  47.5997849  27.7174816  28.8856125  48.6868896  27.7570992  28.9544754
  47.2691574  27.3122711  27.4455376  46.1804314  27.3064899  27.3931599
  47.7621651  28.0253696  26.7848301  47.7288170  25.8555164  27.1652126
  47.1567650  25.2260704  27.8468685  47.4321518  25.5258770  26.1695023
  49.2183990  25.5641994  27.2630997  49.4632645  24.3321667  27.1930923
  50.1115913  26.4220047  27.2440948  47.1240654  29.1401939  29.0563698
  47.6889076  30.0750446  28.4469357  46.0022316  29.3816471  29.7764683
  45.7623177  28.6418858  30.4209080  45.3288498  30.6710091  30.1320686
  45.5695801  31.3354549  29.3022118  43.7644768  30.4532013  29.9684792
  43.4381523  29.8934612  30.8450069  43.3351593  31.4459133  30.1038074
  43.4660873  29.7649994  28.6627388  43.8614883  28.7493668  28.6784992
  41.9339676  29.7938862  28.6400356  41.5044060  29.4275856  29.5724545
  41.6627655  30.8161850  28.3764954  41.4088745  29.1712112  27.9157066
  43.9925461  30.4035969  27.3566227  43.5175629  29.9075146  26.5102234
  43.7951241  31.4699535  27.2470512  45.0687675  30.2308655  27.3532562
  45.8006363  31.4077091  31.3838100  46.0328712  30.8311234  32.4816551
  45.8637886  32.7602386  31.2924709  45.6588326  33.0636597  30.3511810
  46.4896431  33.6480904  32.3190689  47.4004631  33.2288589  32.7465782
  46.8510437  35.0154114  31.6599407  47.6984444  34.9022179  30.9837742
  46.0030899  35.3766556  31.0780659  47.3206253  35.9421539  32.6876068
  48.2288208  36.2049561  32.5211143  45.5081749  33.8634071  33.4793434
  44.3088989  34.1223297  33.2517662  46.0850143  33.7396164  34.7040977
  47.0870323  33.6164322  34.7338028  45.4577065  33.7162857  36.0756302
  46.2095375  33.7931175  36.8610916  44.8011513  34.5852356  36.1199570
  44.6182175  32.4565277  36.3432350  44.2884674  32.2929649  37.5235596
  44.3583679  31.5822678  35.3270187  44.6964912  31.9776440  34.4613113
  43.4923515  30.4134712  35.4957504  42.5263023  30.7922382  35.8295059
  43.0931625  29.9332848  34.0647240  44.0124016  29.8203888  33.4899597
  42.4960670  29.0218258  34.0932999  42.0039558  30.7397175  33.4050217
  42.2148857  31.8739147  32.7348442  43.1721916  32.2527046  32.4085159
  41.0522003  32.3294716  32.2037811  40.9342842  33.2264748  31.7548065
  39.9959335  31.5163040  32.5924530  38.6760368  31.6872635  32.3355293
  38.3823204  32.6207619  31.8786793  37.7591972  30.7377319  32.8877220
  36.7043991  30.9457283  32.7850533  38.3196869  29.6126671  33.6159286
  37.6357040  28.9289761  34.0966911  39.7224388  29.4995689  33.8029633
  40.1449242  28.7626839  34.4699783  40.5762215  30.5022373  33.3544159
  44.0085030  29.2522278  36.3462830  43.2107697  28.3592682  36.6816521
  45.2902718  29.2323933  36.7348671  45.8920250  29.9344463  36.3285255
  45.8209953  28.1987801  37.6109695  45.6893578  27.2587852  37.0750771
  47.3058243  28.5021477  37.5963936  47.8313522  27.7833614  38.2250977
  47.6146698  28.3928204  36.5568008  47.8179092  29.8653240  38.1681442
  47.1516457  30.2233257  38.9530182  48.7383385  29.7896423  38.7471008
  48.1101875  31.0509720  37.2397957  47.6467094  31.0949230  36.1071892
  48.8836594  32.0802841  37.6242790  49.1494713  32.6847153  36.8600082
  49.2839775  31.9985924  38.5479546  45.2465439  28.2290134  39.0404129
  45.0976257  27.1955357  39.6703300  44.6440926  29.3288689  39.5623131
  44.6869431  30.1852531  39.0285797  43.6852493  29.4021225  40.7344894
  43.9383736  28.5475864  41.3620262  44.0109024  30.6773586  41.5579643
  43.5208588  31.5440636  41.1143646  43.5670624  30.4260902  42.5212784
  45.5005264  30.9563484  41.7560120  46.2125549  30.1589336  42.6753883
  45.7531281  29.3173256  43.1724014  47.6366310  30.4075794  42.7405052
  48.1890984  29.8010883  43.4428902  48.2158775  31.4416695  42.0478516
  49.5431900  31.7082939  42.2023926  49.9606590  31.1039047  42.8204803
  47.5031242  32.2693405  41.1769714  47.9355431  33.0465240  40.5642776
  46.1625061  32.0393372  41.1166229  45.6189308  32.7903519  40.5626297
  42.2043457  29.1903305  40.6142693  41.5832710  28.8929558  41.6444969
  41.5645981  29.1900578  39.4503479  42.0784836  29.2055397  38.5809898
  40.1386528  28.8991528  39.2957497  39.5361671  29.5956841  39.8788071
  39.7365036  29.0459709  37.8048058  40.3687019  28.5030403  37.1021996
  38.2264709  28.6769199  37.6228523  38.0777512  28.6159286  36.5447693
  38.1463394  27.6161137  37.8602753  37.5663834  29.3583450  38.1595497
  39.8207169  30.5205135  37.3806000  40.8211212  30.9518070  37.4163399
  39.5134125  30.7282734  36.3556595  39.2934341  31.1164856  38.1255188
  39.7913818  27.4443550  39.5959663  40.5677185  26.5678940  39.2173195
  38.7553902  27.0659084  40.3512878  38.1997910  28.0159378  41.3479729
  37.2669144  28.4599380  41.0005493  38.8574638  28.8695412  41.5121002
  37.9900818  27.1514034  42.6411667  37.1867676  27.5458927  43.2633896
  38.9348373  27.1210518  43.1839676  37.6550217  25.8043213  42.0199013
  36.6178093  25.8662014  41.6905708  37.7644691  24.9759064  42.7197952
  38.5289841  25.6989460  40.7688866  39.5192947  25.3127556  41.0102234
  37.8479767  24.7827835  39.6816444  36.8706894  25.1630592  39.0233574
  38.2511368  23.5040035  39.5370712  39.1104126  23.2486324  40.0024033
  37.8131561  22.6801929  38.4087410  36.7894402  22.9984722  38.2117500
  38.6648483  22.8905907  37.1371689  38.3760529  23.8999634  36.8441429
  40.2134361  22.8789673  37.2304420  40.5462074  23.5553665  38.0177460
  40.3853722  21.8850098  37.6434669  40.7342186  22.9783421  36.2780724
  38.2710037  21.9388504  36.0315208  38.6508522  22.4072151  35.1235313
  38.6916962  20.9367046  36.1141281  37.1861534  21.8467503  35.9794579
  37.8443031  21.1224232  38.7847176  38.4760818  20.7073402  39.7556915
  36.9852676  20.3359165  38.1385651  36.3011665  20.8906574  37.6442299
  36.9393158  18.8731670  38.0432968  37.9438133  18.4515133  38.0073471
  36.4453659  18.3382473  39.3578186  36.6717377  19.0559406  40.1463432
  34.9921989  18.2603722  39.5147247  34.6278839  17.3644848  39.0119743
  34.7301788  18.1430683  40.5662384  34.5104065  19.1257057  39.0595589
  36.9947243  17.1065674  39.8547478  36.8417778  16.4003735  39.2226868
  36.2570267  18.3445797  36.7509575  35.6304207  19.0883846  36.0315857
  36.2462730  17.0251007  36.4497910  36.6757851  16.3323383  37.0462074
  35.7443161  16.4502411  35.2197342  35.2349854  17.2126732  34.6303406
  36.8993149  15.7549534  34.4646568  37.2548256  14.9904366  35.1554718
  36.5053978  15.1743345  33.6305008  38.2341690  16.9019966  33.9293633
  38.7051353  17.2280102  35.1363449  34.6247635  15.4260750  35.4570427
  34.8490486  14.2483692  35.8163567  33.3604889  15.7982941  35.1226044
  33.1763039  16.6830616  34.6716499  32.2388077  14.9076862  35.3353043
  32.4081726  14.2861156  36.2145462  30.9630241  15.7549915  35.4866486
  30.1538963  15.1270313  35.8595810  31.2248974  16.5813408  36.1474686
  30.5297413  16.5636482  34.2102737  31.4374104  17.1200066  33.9763870
  30.2447014  15.8945713  33.3983688  29.2395668  17.8559914  34.4897690
  29.7125187  19.1086369  33.3056641  29.5243797  18.8800907  32.2566299
  29.2587051  20.0674286  33.5564041  30.7787304  19.2933846  33.4366379
  32.0843315  13.8825798  34.2209663  32.3867760  14.1177845  33.0194359
  31.6128597  12.6874256  34.6417198  31.5333500  12.4619560  35.6230164
  31.2320404  11.5741787  33.7346840  31.9960308  11.3537703  32.9891396
  31.2124786  10.1759224  34.4478912  32.2030067  10.0098829  34.8714294
  30.4907303  10.3324852  35.2495575  30.7790031   9.0785007  33.3587608
  30.2783012   8.3524132  33.9992256  29.9971809   9.3461609  32.6479759
  31.9658604   8.4106283  32.5850067  33.1051941   8.8225651  32.6336784
  31.8012829   7.3438592  31.9064121  30.8777523   6.9378605  31.9550018
  32.5366402   6.9070778  31.3692226  29.8963604  11.8492947  33.0358353
  28.8974667  12.1153984  33.6336250  30.0523224  11.8042269  31.7227955
  30.8849545  11.4054909  31.3131218  28.9211559  12.1144810  30.7761631
  28.3534718  12.9265280  31.2304916  29.5086861  12.4908066  29.4337673
  30.3546772  13.1731033  29.5166588  29.8733082  11.5701857  28.9781170
  28.5419350  13.1145039  28.3673096  29.0028114  13.0534859  27.3814240
  27.6371841  12.5171041  28.2548542  28.1261425  14.6331081  28.5706596
  28.8568993  15.2257366  29.4494247  27.2013512  15.1266937  27.9224854
  27.8632870  10.9281988  30.7607193  28.3766041   9.8048477  30.8229809
  26.5075054  11.1068621  30.7411613  26.2406673  12.0452909  30.4799194
  25.5988140  10.0103445  30.7373257  25.8099556   9.4448185  31.6449032
  24.1545391  10.5426159  30.7998142  23.9787750  11.2299871  29.9723320
  23.5533028   9.6342096  30.8374767  23.8681412  11.1872787  32.1850777
  24.1857452  10.5844145  33.0358315  24.3696976  12.1536331  32.2370338
  22.1681881  11.7429190  32.2705956  21.4004574  10.1024485  32.4369125
  21.7487011   9.5456991  33.3068810  20.3221874  10.1769562  32.5779190
  21.6215191   9.5114861  31.5480881  25.8120022   9.1323109  29.4991608
  26.0708332   9.6891088  28.4218597  25.6133270   7.7821178  29.6355667
  25.5592079   7.4199853  30.5768585  25.4945335   6.8326654  28.5254478
  26.1263943   7.1908817  27.7127171  25.9408531   5.4215546  28.8668766
  26.8998337   5.4300833  29.3849335  25.2985783   4.9641867  29.6194744
  25.9233208   4.4667673  27.6123638  25.7415810   4.8729758  26.4205418
  26.0414925   3.2483397  27.8275719  24.0586319   6.8251762  27.9940510
  23.1835365   6.1604977  28.5707302  23.8596706   7.6630988  26.9325066
  24.6590462   8.0883417  26.4849949  22.5588684   7.9949198  26.4151955
  21.9037266   7.1876631  26.7426491  22.1519623   9.4462929  26.7132854
  23.0769672  10.0216579  26.6756077  21.0680046   9.9972925  25.8125954
  21.5066280  10.3065157  24.8638649  20.2641258   9.2692709  25.7036839
  20.6395683  10.8410168  26.3535862  21.7522831   9.4067297  28.1213074
  22.4705276   8.7853746  28.6562405  21.6507034  10.4535246  28.4076729
  20.7783165   8.9182358  28.1506805  22.6229744   7.7792978  24.8869781
  23.5661716   8.1957769  24.2194004  21.5863190   7.0481458  24.3918133
  20.7709656   6.9087224  24.9713459  21.3425198   6.6379752  23.0090904
  22.3210049   6.4819984  22.5548458  20.6623211   5.2919626  22.8190193
  21.2586708   4.5933995  23.4059410  19.2311401   5.1506433  23.3166504
  19.2364159   5.5034723  24.3479500  18.6399651   5.8425384  22.7167377
  18.8925953   4.1235023  23.1807575  20.7722111   4.9318943  21.5328884
  20.8251076   3.9733737  21.5265198  20.7495098   7.8353930  22.2624836
  20.0857258   8.6904669  22.7668800  20.9079781   7.7991104  20.9105759
  21.5513153   7.1258187  20.5195560  20.1831150   8.6648378  19.9668045
  20.1590729   8.1955261  18.9833069  19.1553841   8.6129971  20.3262272
  20.6761398  10.1561918  19.8154755  20.1220093  10.8505974  18.9605618
  21.5078278  10.5846930  20.7985420  21.6836281   9.8606453  21.4804153
  22.1688175  11.9073286  20.8177643  21.4678173  12.7290516  20.6712418
  22.5585880  12.1969118  21.7936363  23.4240913  12.0683661  19.9772301
  23.6645832  11.1835060  19.1735287  24.1206703  13.1889935  20.1265011
  23.7794933  13.9169979  20.7378178  25.1718998  13.5256758  19.2296753
  24.8685856  13.1861305  18.2393169  25.3489437  15.0829506  19.2370186
  24.4192390  15.5636024  18.9325142  25.4956074  15.3709545  20.2780018
  26.4831390  15.5808764  18.3173351  27.4445839  15.0947924  18.4830036
  26.1516323  15.5226870  16.8587666  25.9396839  14.5276918  16.4673958
  25.2065125  16.0503178  16.7304955  26.9478664  15.9960499  16.2842789
  26.8343315  17.0380917  18.7418480  26.0127697  17.7350655  18.5764294
  27.0978355  16.8307323  19.7789936  27.6379147  17.4131050  18.1080341
  26.3754692  12.7057991  19.6067410  26.6917629  12.6993971  20.8119564
  27.1282158  12.1368752  18.6739883  26.7979202  12.0795956  17.7212410
  28.4587879  11.6052485  18.9797001  28.2662888  11.1902409  19.9690495
  28.9059811  10.5581493  17.9195595  28.9536057  10.9551849  16.9055595
  29.8716908  10.2158051  18.2914543  28.0169067   9.3031569  18.0503540
  28.1116543   8.8496437  19.0369873  26.9731274   9.6055107  17.9653912
  28.4249973   8.3350420  16.9702129  28.4600658   8.7917347  15.9811211
  29.4386654   8.0652332  17.2665005  27.6749439   7.0131550  16.9736671
  28.1379642   6.2551932  16.3418388  27.5919628   6.5819788  17.9713154
  26.3221874   7.1492600  16.3529835  25.5914707   7.4140477  16.9979954
  26.2010155   7.8881903  15.6751890  25.9901295   6.2476950  16.0415058
  29.5759125  12.6134481  19.1737785  29.6397743  13.6700354  18.4938717
  30.5947189  12.3359013  20.0469093  30.4575520  11.5190144  20.6248188
  31.9602394  12.9210901  20.1174698  32.3638535  12.4632521  21.0205669
  32.8554878  12.5142632  18.9494190  32.6018753  13.1545181  18.1045189
  33.8728142  12.8651762  19.1226521  32.8941917  10.9905558  18.5368042
  33.1693001  10.6169529  19.5231285  31.9435883  10.7029371  18.0876617
  34.0069695  10.6013002  17.6012688  33.6974297  10.9807673  16.6274681
  34.8894653  11.1490040  17.9319096  34.2438927   9.0922852  17.3929844
  34.7165337   8.6256504  18.2572536  33.3307190   8.5017252  17.3191357
  34.9258347   8.7275267  16.1324005  35.4358101   9.5777636  15.9397259
  35.4458504   7.8648891  16.2068501  34.2016220   8.5733280  15.4454947
  31.9250011  14.3878708  20.4679451  32.6871452  15.2308521  19.9482765
  31.1206245  14.6519861  21.4217167  30.7538757  13.8646383  21.9371567
  30.9526443  16.0004520  22.0206470  31.3665771  16.7199326  21.3141708
  29.4356289  16.1977921  22.1563034  29.0623283  16.0927429  21.1376209
  29.0952587  15.4216928  22.8418083  29.0828629  17.8564091  22.7132988
  29.4532795  18.5418663  21.6280174  31.7782421  16.3224354  23.3177872
  32.0543365  15.4183464  24.0185204  32.2339211  17.5525246  23.6082706
  31.9185295  18.3243084  23.0382042  33.0394974  17.9648724  24.7739201
  33.1560326  17.1892948  25.5308876  34.4804115  18.3675270  24.2708302
  34.3952332  19.1952305  23.5667305  35.2979317  19.0232906  25.4571152
  35.6466255  18.2499523  26.1415558  36.2498436  19.3686428  25.0537453
  34.7088699  19.7866898  25.9653797  35.3589134  17.2927227  23.6803150
  35.8162155  16.7564354  24.5118008  34.7043495  16.6455135  23.0965538
  36.4361496  17.6845264  22.7121067  35.9346619  18.0043850  21.7987022
  37.1753044  18.3741493  23.1197453  37.0635147  16.8518734  22.3939838
  32.2549477  19.2323303  25.2336254  31.7899857  20.0790691  24.4203796
  32.1566620  19.3599701  26.5322456  32.6136436  18.7188530  27.1648884
  31.3220329  20.3973064  27.1966228  31.0776596  21.2187214  26.5230751
  30.0147514  19.7186012  27.6433620  30.2392197  18.8704090  28.2901096
  29.4228725  20.4473400  28.1971855  29.1104794  19.2429352  26.5674095
  29.1652412  19.9376755  25.7292938  29.5852318  18.3345623  26.1965065
  27.6508751  18.9582462  26.9231472  27.1191635  19.8561745  27.2379551
  27.1858292  18.4868031  26.0573616  27.5073872  18.0268841  28.0758610
  28.0186481  17.1567020  28.0371895  26.9910545  18.2428818  29.2991676
  26.4140034  19.4028912  29.7115479  26.4260597  19.6173801  30.6984367
  25.9046688  19.8984032  28.9938126  27.0640106  17.3348427  30.2112789
  26.9571857  17.6074467  31.1779099  27.4842224  16.4517384  29.9589920
  32.0903625  21.0372887  28.3755569  32.9380150  20.3639717  29.0132751
  31.7464390  22.2934017  28.7002716  31.0579071  22.7332706  28.1065216
  32.3154221  23.0045414  29.7874908  32.6018257  22.1929836  30.4564037
  33.4833145  23.8514462  29.3500271  34.2857552  23.2157650  28.9757271
  33.0530243  24.7922173  28.1769905  33.0680504  24.2799969  27.2149601
  32.1588326  25.3145714  28.5170822  33.8195190  25.5660477  28.1347179
  33.9641113  24.7266960  30.5777740  34.8870926  25.2341423  30.2972279
  33.2480049  25.5146980  30.8108902  34.1681061  24.1050682  31.4495907
  31.1680202  23.6944389  30.4932251  30.2438316  24.0902519  29.8138199
  31.2081337  24.0247231  31.7886238  32.0070152  23.6562271  32.2847061
  30.0836391  24.4050865  32.6275291  29.4932594  25.1084538  32.0403099
  29.3508377  23.1137123  33.0394516  28.8439922  22.6384335  32.1996193
  30.0248318  22.3082943  33.3312416  28.3027458  23.3128490  34.1024590
  28.1380157  22.2991314  34.4676170  28.5361538  24.0122395  34.9052505
  26.7112694  23.9630947  33.6610909  26.7034550  25.5042133  34.5508652
  26.5357533  25.3650875  35.6188660  27.6106186  26.1073551  34.5138092
  25.8792553  26.0966301  34.1535797  30.6942539  25.1972866  33.7630997
  31.4957390  24.5400600  34.4331284  30.3149796  26.4199429  34.1463242
  29.5170326  26.8384132  33.6899643  31.0784817  27.2921562  35.0413857
  31.4132233  26.6270962  35.8374672  32.3662796  27.8560028  34.3987885
  33.0508423  28.3896542  35.0581017  32.9780006  27.0164089  34.0686684
  31.9966946  28.7025032  33.1554642  31.5437164  28.0886135  32.3769722
  31.2136421  29.4063206  33.4375610  33.2612495  29.8340778  32.5647011
  34.4439049  28.5991039  31.9923553  35.2414513  29.0970421  31.4409275
  34.7395592  28.1441555  32.9377174  33.9376907  27.8320293  31.4063148
  30.2012634  28.3759403  35.6393852  29.1772079  28.6508541  35.0780754
  30.6554871  28.8962116  36.7662354  31.5895348  28.6168003  37.0300255
  29.8035221  29.9465981  37.4657097  28.8994141  30.2810612  36.9569626
  29.4029369  29.2788620  38.8091049  30.2740440  28.8079109  39.2646027
  28.7340107  30.2167091  39.7732849  27.8492851  30.7007828  39.3597145
  28.4429550  29.6286068  40.6436424  29.4386063  30.9691620  40.1274834
  28.4095287  28.2545452  38.7372360  28.8210697  27.3953857  38.6185684
  30.7284241  31.2465115  37.6578369  31.8197269  31.1636066  38.1564674
  30.1868000  32.4016609  37.2961731  29.2242088  32.3694878  36.9920616
  30.9375629  33.6025505  37.2453232  31.8691177  33.5529976  37.8091164
  31.2288818  34.0016747  35.7881737  30.3107262  34.2156372  35.2410812
  32.1400795  35.2706146  35.6498528  33.1265297  35.0652657  36.0656052
  32.3003197  35.4630089  34.5890007  31.8144836  36.2053566  36.1063042
  32.0226860  32.8966713  34.9806709  32.9269638  32.6433830  35.5340538
  31.3105774  32.1008034  34.7625122  32.3656883  33.2606316  34.0121765
  30.1692524  34.7849808  37.8462448  28.9461765  35.0048943  37.6535721
  30.8564014  35.6129112  38.6081314  31.7750320  35.3195152  38.9083557
  30.4470100  36.9001465  39.1732140  29.5014915  36.8303719  39.7110138
  31.3580456  37.2467079  40.4340515  31.3910084  36.4046173  41.1253510
  32.3746605  37.3418274  40.0525284  31.1960030  38.6055870  41.2293510
  32.0845680  38.6127968  41.8606224  31.1136875  39.4674835  40.5671883
  29.9988613  38.7856178  42.1492958  28.8498287  38.4395294  41.8940086
  30.2048321  39.4376221  43.2528114  29.3247452  39.7092514  43.6672592
  31.1347084  39.7889099  43.4317741  30.3875618  38.0014076  38.0965042
  31.4045467  38.5108566  37.7010536  29.1670933  38.4779282  37.6930809
  28.3920670  38.2827568  38.3106079  29.0047035  39.5175972  36.6790810
  29.8797626  40.1598663  36.5797615  28.8735809  38.5927315  35.4479408
  29.7686729  37.9766960  35.3618584  27.6613178  37.6628151  35.3853416
  27.8000393  36.8072548  36.0463142  26.7760296  38.2051163  35.7174225
  27.5949306  37.2872162  34.3642540  28.8920555  39.4084549  34.3019257
  29.0894814  38.7450600  33.6366959  27.7875252  40.4119301  36.8232880
  26.7856274  40.1830711  37.5108643  27.8556652  41.6227226  36.2233696
  28.6677685  41.9356384  35.7108536  26.7304058  42.4969788  36.1097412
  26.1908207  42.5377769  37.0559349  27.2967300  43.8926544  35.7157745
  28.0113525  43.8084297  34.8970451  26.5358467  44.5146141  35.2442589
  27.9136963  44.6028633  36.9606323  27.2505608  44.5303078  38.0050278
  28.9505978  45.3422127  36.9212761  25.6539574  42.0973930  35.0409622
  24.5236607  42.5405197  35.1928787  26.0886192  41.2901192  34.1081047
  27.0117359  40.8857155  34.1745491  25.2221680  40.8547821  32.9687004
  24.8979111  41.8169136  32.5721397  26.0665283  40.1583214  31.9550877
  26.3390980  39.1985130  32.3939247  25.1572399  39.9737206  30.7300282
  24.6488438  40.9308929  30.6140518  25.7434139  39.7166786  29.8477421
  24.3654709  39.2490005  30.9197216  27.2736511  40.8627777  31.4232540
  27.7665367  40.1796341  30.7315331  27.0140648  41.8573799  31.0606422
  27.9879456  40.9772453  32.2386017  24.1035881  39.9390373  33.5349312
  24.4193420  39.0149574  34.3492088  22.8241711  40.1517448  33.0888176
  22.3507500  41.4103775  32.6200371  22.5061226  41.4956894  31.5445461
  22.8809586  42.2026901  33.1484566  20.8161850  41.4914856  32.9188042
  20.3061905  42.1454964  32.2115021  20.6121006  41.9835434  33.8697701
  20.3984699  40.0596199  32.9182320  20.1158962  39.6963539  31.9301586
  19.5060215  39.9084778  33.5255165  21.6732616  39.3290176  33.4628677
  21.7194214  39.1796265  34.5415955  21.6768570  37.9232254  32.9248352
  22.2141075  37.6244698  31.8947697  20.9730358  36.9987755  33.6397896
  20.4881401  37.4845543  34.3807335  20.7704754  35.6292267  33.2034874
  21.6930351  35.0770454  33.3825951  19.6531296  34.9679184  34.0750351
  20.0205936  34.8202896  35.0905533  18.8939934  35.7501030  34.0753860
  18.9857216  33.7347221  33.4358025  18.4490566  34.0728645  32.5493774
  19.7188225  32.9699707  33.1792450  17.9788113  33.1054840  34.3440971
  16.7749157  33.2093430  34.0729218  18.4036007  32.4632683  35.4071884
  19.4021454  32.4269447  35.5544624  17.6872120  32.0788269  36.0064316
  20.4455738  35.3833160  31.7361355  21.1369267  34.5819817  31.0365791
  19.5655746  36.1408463  31.0928288  18.9979305  36.7904968  31.6180248
  19.2526112  35.8644676  29.7082024  19.1639194  34.7911148  29.5404282
  17.9078102  36.4730072  29.3956757  17.5987110  36.3292007  28.3603611
  17.2202225  35.9662704  30.0728321  17.6774578  37.9550323  29.6660519
  17.7531662  38.4179344  30.8698750  17.2349300  38.6689301  28.7333050
  20.2687817  36.4673691  28.7830334  20.3075047  35.9877281  27.6575756
  21.1654816  37.3583450  29.2183552  21.1524830  37.5832214  30.2029171
  22.1480179  38.0766182  28.4319267  21.8224831  38.0872917  27.3917274
  22.2611542  39.5871429  28.7905998  22.5303440  39.6089935  29.8466110
  23.1650105  39.9238548  28.2828884  21.0616951  40.5157242  28.6908913
  20.4977131  40.3587456  27.7714443  20.3610821  40.2051926  29.4660187
  21.4135838  41.9980545  28.7414398  22.5205631  42.4966164  29.0814514
  20.3233242  42.7259712  28.7578964  19.4271622  42.2651291  28.6899300
  20.4792881  43.7080307  28.9349480  23.5142040  37.3484802  28.3332977
  24.2257576  37.5409622  27.3548756  23.8980618  36.5764122  29.3342934
  23.3678398  36.5335655  30.1928539  25.0541363  35.6980286  29.2741699
  26.0143356  36.1476898  29.5269985  24.8193512  34.4962273  30.2769299
  23.9442196  33.9233589  29.9702301  26.0748634  33.5609932  30.2544117
  26.0277977  32.9749336  29.3365765  26.9601421  34.1962166  30.2248192
  26.0137959  32.9055557  31.1231880  24.5971184  34.9877243  31.7171135
  23.6873112  35.5864258  31.6733761  24.4864254  34.1168900  32.3632507
  25.7138672  35.9345398  32.3047333  26.6039009  35.3072128  32.3537407
  25.9503403  36.8650742  31.7886963  25.4894600  36.2285233  33.3300743
  25.2750568  35.0205765  27.9310322  24.3483982  34.4023323  27.3948936
  26.5192242  35.0979385  27.3942947  27.2394733  35.5727005  27.9195938
  26.8134899  34.5025406  26.1185570  25.8405552  34.4985046  25.6271496
  27.7141457  35.4181023  25.2819748  28.6429214  35.5012589  25.8463879
  27.8801079  34.9210892  24.3261852  27.1983147  36.8471832  25.0783596
  26.1527691  36.7215157  24.7970390  27.3457680  37.3294868  26.0446625
  27.8764629  37.5599670  24.0023384  28.9324360  37.6212769  24.2655182
  27.7835293  36.9422607  23.1090813  27.3498516  38.8573265  23.7347584
  26.5064011  39.1285172  24.2196770  28.0160103  39.8504524  23.1585598
  29.1523380  39.6818771  22.5667572  29.5561199  40.3906631  21.9712048
  29.3531170  38.7096329  22.3809280  27.5929165  41.0418396  23.1790504
  26.6132107  41.2760544  23.2526493  28.1939106  41.7948952  22.8760319
  27.3486462  33.1209984  26.1947613  28.5389786  32.8840446  26.1004581
  26.4443626  32.0968170  26.1499500  25.4564571  32.3058319  26.1713810
  26.7881069  30.6905594  25.9228115  27.6002579  30.3678207  26.5742378
  25.6812344  29.6960487  26.3665085  24.8267918  29.7261276  25.6903973
  25.9828472  28.6495419  26.4106998  25.1143379  30.1335106  27.7302208
  25.4690952  29.6658573  29.0198956  24.6952953  30.2579918  29.9144459
  24.7396584  30.2373848  30.9933376  23.7680569  30.9331474  29.2455673
  23.0306969  31.4432354  29.7105503  23.9755974  30.8559628  27.9183025
  23.3840752  31.2114735  27.0875664  27.3065147  30.4050293  24.5116901
  26.9672298  31.0708561  23.5304108  28.0443745  29.2672806  24.4336681
  28.1091499  28.7195206  25.2797565  28.7942657  28.9613533  23.1723938
  28.4131126  29.7159271  22.4843197  30.2464752  29.2485752  23.2946224
  30.6290226  28.6153603  24.0951195  31.1560555  28.9023228  22.0948467
  30.7171040  29.5293159  21.3187695  32.1371193  29.1483955  22.5011215
  31.1393299  27.8426781  21.8399258  30.4775143  30.7054062  23.6683159
  31.5458603  30.9210224  23.6840630  30.0689030  31.5008812  23.0451355
  30.1042633  30.8750877  24.6782665  28.4611015  27.5563774  22.6855125
  28.5407715  26.6069069  23.4451656  28.1803684  27.4540272  21.3838444
  28.0811176  28.2410030  20.7586117  28.1389389  26.1584473  20.7037048
  28.5008163  25.4034367  21.4016342  26.6618233  25.7174740  20.4868641
  26.2046204  26.4042473  19.7745361  26.6592922  24.7111263  20.0681076
  25.7809296  25.6581078  21.7632656  25.5157051  24.4484196  22.5599442
  25.9880142  23.5266838  22.2537899  24.7022915  24.5295429  23.6959934
  24.5028458  23.5887547  24.1874599  24.1035786  25.7029076  24.0907593
  23.4577427  25.6668816  25.3045807  23.1877327  26.5601044  25.5300789
  24.2240810  26.8842659  23.2940922  23.6467400  27.7260170  23.6469975
  25.1148853  26.8831215  22.1969051  25.2720299  27.7994156  21.6472569
  28.8906116  26.0899639  19.3508301  28.6171036  26.9969845  18.5682507
  29.8172073  25.1338005  19.1454868  30.0576000  24.5892620  19.9614449
  30.6927299  25.1291504  17.9863873  30.3564186  25.8595142  17.2504768
  32.1909561  25.5092030  18.3563614  32.7233963  24.7201939  18.8874645
  32.8666916  25.6139927  17.5075359  32.3371429  26.7905769  19.1133842
  31.7917366  26.8883495  20.0520382  33.8585777  26.9452782  19.4735489
  34.0532990  27.9103775  19.9412746  34.1010094  26.1374474  20.1640110
  34.5053978  26.8683319  18.5995903  32.0056267  27.9704266  18.1730709
  32.6748962  27.9887295  17.3129311  30.9768562  27.9835243  17.8131237
  32.1918526  28.8769989  18.7488785  30.6412601  23.7496929  17.3189373
  30.2609539  22.7690468  17.9038296  31.2445374  23.6647739  16.0798054
  31.5990047  24.5290737  15.6958265  31.5702076  22.4992085  15.2287903
  31.9440117  22.7666740  14.2404404  32.5992355  21.6261349  15.8675423
  32.2712975  21.3408775  16.8671360  32.7021294  20.7044716  15.2947836
  34.0028877  22.1489830  15.9277620  33.9489517  22.8167000  16.7876148
  34.6774216  21.3689213  16.2807693  34.5358086  22.8375454  14.7415962
  35.3306885  23.8239403  14.9909067  34.3425827  22.4443150  13.5879345
  30.3059311  21.7310066  14.8257093  29.4843006  22.2433090  14.0453796
  30.0407448  20.5368023  15.2711639  30.7983913  20.1322422  15.8025799
  28.7349167  19.8646030  15.1880903  28.2246647  20.3267536  14.3430119
  28.8924503  18.2930641  14.9812212  29.5377522  17.8488941  15.7391109
  27.8704605  17.9308910  15.0929079  29.2480679  17.8510647  13.5772247
  28.7773781  16.8900280  13.3699627  28.7485580  18.6345711  13.0073929
  30.8047523  17.7459621  13.4045544  31.2948895  18.5128059  14.0044003
  31.2837315  16.8226223  13.7303314  31.1297894  17.9317226  11.8610630
  30.4902534  17.1849136  11.3905649  30.8185482  18.9168453  11.5135345
  32.5762177  17.7383347  11.4560156  32.6823540  17.5554790  10.4683924
  33.0624580  18.5973492  11.6699457  33.0446053  16.9698410  11.9144182
  27.9024162  20.1460686  16.4175205  26.6684227  20.0834484  16.3484478
  28.4914131  20.5926151  17.5711327  29.4970284  20.6679211  17.5148602
  27.7140217  20.7967548  18.7763691  27.2256107  19.8248558  18.8468475
  28.6591778  20.9616985  19.9929867  29.1791782  21.9117317  20.1160088
  28.1553707  20.8333511  20.9510098  29.4196396  20.1839657  19.9227715
  26.6219044  21.9034500  18.7946491  25.8763218  22.1515617  19.7529964
  26.4052982  22.5820217  17.6363125  27.0389767  22.4145126  16.8678761
  25.3718014  23.5563583  17.3415585  25.4604721  24.2917709  18.1411896
  25.5319004  24.1754570  15.9118891  24.6446056  24.7477875  15.6412516
  26.7177086  25.1137066  15.9678831  27.6188221  24.5013275  16.0008736
  26.7701931  25.6392975  15.0144148  26.8380013  25.9694195  16.6322517
  25.7948189  23.1358929  14.8764286  26.7667828  22.6638355  15.0197678
  25.0131016  22.3819332  14.7838821  25.7851830  23.6736202  13.9283428
  23.9929028  23.0127048  17.5346107  23.1405926  23.8232269  17.9143219
  23.7259922  21.6597977  17.4301624  24.2136688  21.0921631  16.7518806
  22.4460831  21.0125027  17.8226528  21.6318836  21.6917992  17.5701809
  22.1763935  19.6958733  17.0382710  21.1586857  19.3801823  17.2678547
  21.9921474  20.0681572  15.5136099  21.6833229  19.2411861  14.8741999
  21.2098370  20.8062019  15.3364754  22.9257908  20.5409126  15.2088003
  23.1706734  18.4854221  17.3329506  24.0918026  18.6591549  16.7766800
  23.3355350  18.4740314  18.4103527  22.7512455  17.5038948  17.1120777
  22.1362152  20.7867775  19.2721233  21.0622768  20.4200230  19.6273766
  22.9846268  21.2449150  20.1870384  23.8908882  21.5889053  19.9033833
  22.6504459  21.1937256  21.5915737  21.8008652  20.5262184  21.7356052
  23.9127884  20.8349171  22.4559994  24.4779186  21.7585659  22.5808983
  23.5330181  20.5176945  23.4272118  24.7589359  19.6612682  21.9431496
  25.2034550  19.8591881  20.9677868  25.9022293  19.6110020  22.9725895
  25.6160088  19.7619171  24.0134563  26.4115829  18.6556225  22.8464622
  26.6607780  20.3559399  22.7322102  24.0648079  18.2777042  21.9174786
  23.1481533  18.3088074  21.3285122  24.7448578  17.5186157  21.5309334
  23.8261242  18.1429482  22.9724541  22.0213814  22.4285622  22.1901360
  21.7082653  22.5300732  23.3606758  21.6724968  23.3686562  21.2607861
  22.1564388  23.3110886  20.3761482  21.2500038  24.7317581  21.6848145
  21.7328682  24.9410763  22.6393452  21.7292194  25.8020172  20.6429596
  21.4778385  26.7400818  21.1378765  22.8024197  25.7016945  20.4808521
  20.8872375  25.7491703  19.3416805  20.8115883  24.7257938  18.9741535
  19.8584194  26.0326138  19.5636978  21.3555069  26.6950932  18.2657623
  21.7259693  27.5592422  18.8172207  22.1596546  26.1458035  17.7761345
  20.2977962  27.0515041  17.2695198  19.3927460  26.6037312  17.2914600
  20.4011497  28.0892754  16.4389439  21.4922371  28.7576027  16.4601173
  22.1596966  28.3956966  17.1261673  21.5710030  29.7124958  16.1406193
  19.4045582  28.3649940  15.6951008  18.5772457  27.7869396  15.7340088
  19.3846416  29.2696552  15.2464437  19.7707653  24.8599339  21.9189339
  19.0113792  24.1290417  21.2630215  19.2149582  25.7608700  22.7074089
  19.9646969  26.6263161  23.5937061  20.1102810  27.5485249  23.0311794
  20.9365215  26.3427105  23.9977169  18.9602928  26.9166126  24.7588997
  19.2706814  27.8030224  25.3121090  18.8298759  26.0908451  25.4583263
  17.6256123  27.0401917  23.9104996  17.5643654  28.0530834  23.5125008
  16.8332462  26.8376560  24.6310787  17.7445354  25.9489136  22.8738384
  17.2767372  25.0522346  23.2803402  16.9957962  26.4467468  21.6783123
  15.8489046  26.0345211  21.5443954  17.6379242  27.2278728  20.7565308
  18.5949745  27.4353790  21.0037041  16.9517021  28.2049160  19.8688412
  17.7311554  28.7846889  19.3744564  16.0645180  27.6088943  18.6984081
  15.0566444  27.4112110  19.0633926  15.7866869  28.3519936  17.9509373
  16.6636410  26.3417988  18.0699272  17.5134220  26.5556355  17.1642838
  16.0787506  25.2239151  18.1871796  16.1019154  29.2512589  20.6610317
  14.9098806  29.3083305  20.5712242  16.8065777  30.1336994  21.4582405
  17.8147125  30.0784531  21.4849300  16.1095638  30.9593945  22.4739857
  15.4420471  30.3468380  23.0800400  17.1247921  31.7611523  23.3266869
  17.8062515  32.3563461  22.7188568  16.5592575  32.4273605  23.9781761
  17.9958534  30.9787483  24.3573742  18.5084572  30.2082329  23.7814884
  19.0210056  31.7953529  25.1206703  18.5797157  32.7188911  25.4954262
  19.3473969  31.1930962  25.9685249  19.8109226  32.0906830  24.4300785
  17.2126217  30.2000713  25.3527546  16.4734955  29.5905590  24.8328609
  16.6805019  30.8805218  26.0175381  17.8641720  29.5564022  25.9437466
  15.1654224  31.9882374  21.8470707  15.6735201  32.8640900  21.1201954
  13.9514885  32.0696945  22.3157902  13.7260780  31.4956570  23.1156483
  12.9606724  33.1196518  21.9835529  13.5097361  34.0606842  21.9505119
  12.3091240  32.8918114  20.6330070  13.0290823  32.7874985  19.8212948
  11.7978830  31.9315777  20.5645657  11.1576357  33.6814194  20.3494015
  10.5804796  33.0212898  19.9586086  11.8076944  33.2137985  23.0763607
  11.4439497  32.1353569  23.5900631  11.2698307  34.3853607  23.3546619
  11.7000256  35.1462326  22.8485928  10.0488920  34.5178223  24.1813507
  10.3049612  34.0330467  25.1234341   9.7783642  36.0152245  24.4663181
   9.5657759  36.4857330  23.5063553   8.8663540  36.1631508  25.0446377
  10.8810358  36.7705460  25.2620449  11.8512831  36.4583702  24.8756962
  10.7465420  38.2711334  25.0937519  10.7573061  38.5527611  24.0408154
  11.5614214  38.8149986  25.5715389   9.8442783  38.6731186  25.5546494
  10.9881029  36.4081650  26.7286015  11.3556948  35.3820229  26.7300415
  11.6244802  37.0807953  27.3036594   9.9973812  36.3852196  27.1825237
   8.8328314  33.7509422  23.6158886   7.9503565  33.3802834  24.3287983
   8.7157888  33.6857338  22.2372894   9.4515123  34.0339928  21.6393528
   7.6736503  32.8425941  21.6300144   6.6623130  32.9795074  22.0128384
   7.3581753  33.1667709  20.1771317   6.5929098  32.5321465  19.7302227
   6.9742999  34.6415825  20.1092625   7.6855993  35.3164291  20.5854321
   7.0610785  34.8720055  19.0474339   5.9565377  34.8757095  20.4214115
   8.5421162  33.0813141  19.5769272   8.4271231  32.8904762  18.6431408
   7.8796196  31.3216839  21.8572330   6.9393630  30.6139774  21.6023731
   9.0701780  30.8376274  22.2711220   9.7904778  31.5236435  22.4461937
   9.3694649  29.4477043  22.5198631   8.5345011  28.9358120  22.0414257
  10.7186861  29.0878487  21.8675442  10.8710070  29.6584415  20.9513969
  11.5533981  29.3812084  22.5041733  10.9616041  27.6766109  21.5547657
  10.6529503  27.0989494  22.4260521  10.2081575  27.4650860  20.7960320
  12.3137217  27.1964264  21.0158520  12.5467482  27.9674339  20.2814503
  13.0064754  27.3106384  21.8496132  12.2337322  25.6666031  20.6851387
  12.0795145  25.1968880  21.6565742  11.4172344  25.4672222  19.9911079
  13.5339870  25.1734409  20.0848751  13.6725101  25.5842018  19.1726322
  14.2637854  25.3186874  20.7678146  13.4217548  24.1806107  19.9372501
   9.0907621  29.1177826  24.0295105   9.1468840  27.9127045  24.3106937
   8.6885433  30.0545273  24.8761654   8.6979446  31.0070248  24.5403709
   8.2580709  29.7639103  26.2618122   8.9761391  29.0681744  26.6958981
   8.1597853  31.0226669  27.1720161   7.6212063  31.7498417  26.5643559
   7.5718012  30.7786121  28.0567837   9.4846067  31.6355801  27.7157364
  10.5242834  31.0523987  27.6694050   9.5120668  32.7861443  28.3873596
   8.6182499  33.2031212  28.6049004  10.3844776  33.2181587  28.6563816
   6.8731337  28.9843636  26.2818069   5.9992638  29.0809669  25.4225903
   6.6931734  28.1815147  27.3464165   7.4679132  28.1480808  27.9935341
   5.5027561  27.4093990  27.6157093   4.9179950  27.2054539  26.7187366
   5.7770710  25.9856358  28.1946373   4.8932590  25.4344387  28.5158195
   6.4916425  25.2374191  27.0813408   6.7451434  24.2909184  27.5588112
   5.8363895  25.0026093  26.2425270   7.3884912  25.7649021  26.7564964
   6.5705032  26.1728134  29.3758297   7.0795064  25.4299259  29.7084465
   4.4845695  28.1271763  28.4600601   4.8294611  29.1177521  29.0405216
   3.3073990  27.6157608  28.5160789   3.0471797  26.8472843  27.9145565
   2.1613984  28.2182636  29.2898502   2.3111265  29.2910061  29.4119225
   0.9022639  28.0262756  28.3858261   0.7166768  26.9526882  28.3531704
   0.1165890  28.5470371  28.9332104   0.9373283  28.5295448  26.9129410
   1.6056722  27.8519573  26.3816261  -0.0956670  28.3839169  26.5970097
   1.4893315  29.9165382  26.6067944   1.7740492  30.6694241  27.5274181
   1.6522417  30.2592793  25.4132118   1.8859835  27.6409760  30.6718502
   1.9089891  26.4267178  30.8685322   1.5639206  28.5337467  31.6122189
   1.6529683  29.5178986  31.4033661   0.9033750  28.2126007  32.8812828
   1.3955611  27.3870277  33.3953667   0.9090059  29.4481430  33.8018036
   0.1089078  30.1181011  33.4870033   0.5454381  29.0435848  34.7463951
   2.2327154  30.1546059  34.0165062   2.5584495  30.8096619  33.2084846
   2.0582201  31.1955299  35.1264687   2.9290974  31.8509655  35.1176605
   1.1385205  31.7580147  34.9656448   2.0860183  30.6434631  36.0659103
   3.3036385  29.1879253  34.5129967   2.8224354  28.4781742  35.1858978
   3.8122177  28.6744862  33.6970139   4.0900931  29.8027992  34.9506264
  -0.5114700  27.6544075  32.6946182  -1.3839506  28.2862587  31.9698200
  -0.7566097  26.5378208  33.2868423  27.4979267  38.9253654  50.3606300
  26.8596745  38.1429558  50.3368225  27.4801693  39.3805313  51.2620773
  27.0462780  39.5141907  49.6755028  28.9422684  38.6180611  50.0748329
  29.5243969  39.4657097  49.7132835  29.5672970  38.0402031  51.3643036
  29.5348244  38.8836594  52.0539627  29.0615559  37.1500626  51.7384338
  30.9961987  37.5975456  51.2161942  31.0487328  36.8408623  50.4333992
  31.7128315  38.3957710  51.0228577  31.4998379  36.7551651  52.7551155
  31.4160347  38.2141418  53.9190674  32.0085831  39.0068741  53.4623756
  30.4093609  38.6321220  53.9184990  31.7107983  37.9838562  54.9428749
  28.9482765  37.6068192  48.9291344  28.0006390  36.8332367  48.7349281
  30.0482635  37.6836853  48.1792870  30.7716370  38.2402534  48.6117935
  30.4456730  36.7939835  47.0327072  29.5988235  36.7522430  46.3477211
  31.6948452  37.3469887  46.2606506  31.4656429  38.1816826  45.5981903
  32.3744926  37.6933441  47.0392532  32.6387939  36.4466858  45.3739052
  33.5556793  36.9808655  45.1247635  32.7619667  35.5354156  45.9591522
  32.0325203  36.1477623  43.6859245  33.4559326  35.4646187  42.9382744
  33.8106499  34.5836678  43.4732475  33.2322121  35.1697502  41.9130402
  34.2809639  36.1744690  42.9976768  30.7011013  35.3291969  47.5426941
  30.9256668  35.1223907  48.7582550  30.6116467  34.3213081  46.6396484
  30.4987640  34.5425301  45.6606598  30.8549118  32.9131355  46.8796349
  31.0544376  32.8200760  47.9471703  29.6995544  31.9987335  46.5674477
  30.0148888  30.9757462  46.7727890  28.5000706  32.2632065  47.4728012
  28.2259197  33.3181267  47.4634590  27.6076603  31.7467403  47.1192932
  28.6477776  32.0091553  48.5224380  29.3060989  32.0193062  45.0260239
  28.9432259  33.0054016  44.7361259  30.2660942  31.8018703  44.5577965
  28.2252789  30.9693775  44.6897583  27.3005867  31.4948559  44.9283333
  28.2587128  30.8479366  43.6070595  28.3210392  30.0294342  45.2333031
  32.1374207  32.4544754  46.1721001  32.5266762  32.9178200  45.1029930
  32.8295174  31.4184971  46.7780113  32.3183174  31.0883179  47.5840874
  34.0424385  30.8179493  46.3748093  34.2223740  31.2416172  45.3867683
  35.1774445  31.0818005  47.3320618  34.7921753  30.7691822  48.3025970
  36.0641747  30.4785023  47.1375198  35.5846558  32.5714569  47.3096008
  34.7599640  33.2646523  47.4753265  36.3071976  32.6934319  48.1165428
  36.2116089  32.9756584  45.9209061  37.0675850  32.3336830  45.7128716
  35.4873543  32.8156090  45.1221962  36.5052643  34.3999748  45.8540497
  36.7743912  34.8939247  46.6929092  36.7269630  35.0697937  44.7187996
  36.7750854  34.4958267  43.5371780  36.6522560  33.5015488  43.4090118
  36.8601189  35.1101456  42.7400055  36.8500786  36.3802872  44.8219795
  37.2054787  36.8403816  43.9960823  36.5825653  36.8504715  45.6748962
  33.9579544  29.2988052  46.2347298  33.1364021  28.6724205  46.8678207
  34.7455177  28.6730328  45.3811340  35.3565178  29.2655792  44.8373795
  34.8698730  27.1921749  45.2168579  33.9618912  26.6866455  45.5456619
  34.9840012  26.9333954  44.1641922  36.0381622  26.6223698  45.8812790
  37.0720978  27.1991062  45.8963966  35.9149628  25.3649292  46.2648125
  34.9761925  24.9935360  46.2944412  36.9557877  24.6177711  46.9611473
  37.8622856  25.2072201  46.8235970  36.7968750  24.5419636  48.5324593
  36.1487541  23.7022209  48.7832108  38.2068100  24.2082119  49.0481873
  38.2523537  24.0837536  50.1301003  38.6186295  23.2460518  48.7436256
  38.9069862  25.0103340  48.8148384  36.2448196  25.8753853  49.0567131
  36.7598839  26.7656574  48.6958466  35.1801872  26.0022373  48.8603287
  36.4655037  26.0394535  50.5581284  37.5214157  26.2470245  50.7315102
  35.8807182  26.8521709  50.9889603  36.1636238  25.1750145  51.1494980
  37.1067085  23.2163372  46.4206696  36.1304817  22.4809208  46.4532318
  38.2502747  22.8218079  45.8995514  39.0810585  23.3930302  45.9595833
  38.4647980  21.4002533  45.5597420  37.4759712  20.9538746  45.4545288
  39.3277054  21.2726574  44.3193665  40.0925102  22.0488644  44.3453445
  39.7197571  20.2640648  44.1884575  38.4668083  21.4883823  43.0380020
  37.8821373  22.4083042  43.0366020  39.1110268  21.3827038  42.1651230
  37.4310379  20.3336754  42.8874207  36.6819458  20.6940460  43.5924721
  37.0149727  20.5152321  41.8964500  37.9589958  18.9787903  43.0839920
  37.4527092  18.4525871  43.7817650  38.9144287  18.3922062  42.3611488
  39.4342346  18.7684231  41.2565804  40.2594414  18.2746925  40.9477768
  38.9296379  19.3533173  40.6058998  39.5091705  17.2976208  42.8651848
  40.2014046  16.9401588  42.2224312  39.4749680  16.9814739  43.8238220
  39.0918846  20.5860291  46.7243233  39.6294594  21.1125145  47.7271042
  39.2102547  19.3344555  46.4543686  38.8313866  19.0055141  45.5778084
  40.1864471  18.4719315  47.0809402  41.1677399  18.8843021  46.8461761
  40.0258293  18.4357128  48.1584396  40.0614700  17.0763855  46.5315361
  39.2324333  16.7962322  45.6460075  40.9566956  16.2195511  46.9681091
  41.6809540  16.5071640  47.6106262  41.0017319  14.8463554  46.5256920
  39.9647789  14.5741520  46.3288879  41.7158661  14.6970634  45.2015190
  41.3897362  15.5690136  44.6345596  42.7725792  14.4598789  45.3248100
  41.2718010  13.8534517  44.6730995  41.6469498  13.8368711  47.4977074
  42.5328445  14.2866325  48.2361412  41.3234634  12.5563564  47.5416565
  40.6819496  12.2171917  46.8391418  41.9619637  11.4850636  48.3314285
  42.9935188  11.7669964  48.5424118  41.2938614  11.4052753  49.7593575
  41.2593155  12.3899794  50.2254753  39.9074821  10.7447033  49.9519043
  39.7422676  10.5116501  51.0037994  39.0915260  11.4062099  49.6608315
  39.8890152   9.7900639  49.4261475  42.1975784  10.6326618  50.5990753
  42.0103416  10.9496937  51.4856606  41.7333145  10.1020594  47.6445618
  40.9271889  10.0317106  46.7128677  42.4911041   9.1088896  48.0296173
  43.1265526   9.2848701  48.7946892  42.6194801   7.7977858  47.3303871
  41.8858681   7.6395540  46.5398903  44.0061989   7.7637944  46.6875496
  44.2034607   6.7288609  46.4080887  44.1929512   8.4615850  45.3354645
  45.0271530   7.9493499  44.8560715  43.3527565   8.3806362  44.6458168
  44.3743935   9.5313244  45.4396057  45.0812263   8.1035709  47.5080452
  45.4556961   7.2784753  47.8252068  42.5413818   6.6543899  48.3453293
  42.8430672   6.8331022  49.5535851  42.1641884   5.4581108  47.7825966
  41.8747940   5.4330606  46.8152657  42.0852318   4.2517138  48.5411034
  42.7380600   4.3189044  49.4113884  40.6306534   3.7550194  49.0465660
  40.7062340   2.9154155  49.7375450  39.8806915   4.7422142  49.8934097
  39.0061722   4.3593121  50.4194260  40.6838379   5.0525007  50.5618248
  39.5523224   5.5430193  49.2308464  39.8124580   3.4092515  47.8207932
  39.8060036   4.2565994  47.1351776  40.2197113   2.5756381  47.2486610
  38.7947044   3.1353991  48.0987968  42.7103806   3.0578866  47.8171844
  42.8349266   2.9964840  46.5869026  43.1814346   2.1197398  48.5918121
  43.0732422   2.3605423  49.5667000  43.6999817   0.8489121  48.1236763
  44.2265167   0.9889596  47.1796150  44.6799583   0.1833897  49.1186562
  44.1240234  -0.1409419  49.9983406  45.1530075  -0.6883928  48.6666260
  45.8176537   1.0383639  49.5454559  45.3735237   1.7808022  50.2085037
  46.5134850   0.4061452  50.0970230  46.5284271   1.7865711  48.4140396
  46.4440041   3.0391262  48.2518959  47.2147713   1.0697982  47.6364746
  42.6530876  -0.1914664  47.7843857  43.0010376  -1.0377278  47.0077171
  41.4769478  -0.1105129  48.3592529  41.1920586   0.5404434  49.0770226
  40.4943619  -1.1268570  48.0991096  40.5919266  -1.5201179  47.0872154
  40.7823448  -2.3399067  49.0202179  39.9858093  -3.0792389  48.9364471
  41.7686691  -2.7574468  48.8179016  40.9399452  -1.9068363  50.4727402
  41.9940491  -1.6617601  50.6027718  40.3632851  -1.0045447  50.6762924
  40.6689453  -2.9296622  51.4720001  39.6061630  -3.1685832  51.4331093
  41.4610443  -3.6775291  51.4349442  40.7411575  -2.4087813  52.9242439
  41.1607285  -1.5187345  53.1520081  40.1716957  -2.9298167  53.9508972
  39.6201057  -4.1062574  53.8744049  39.7936935  -4.7227774  53.0934639
  39.2576790  -4.4067397  54.7679710  40.2253227  -2.3425632  55.1444931
  40.6017342  -1.4123564  55.2590866  39.9407959  -2.8273501  55.9836121
  39.0878563  -0.5106992  48.2074165  38.8795967   0.4930319  48.8353004
  38.1065445  -1.1915195  47.5776367  38.4160728  -2.0163286  47.0836906
  36.6877518  -0.8874555  47.3973923  36.5794716   0.1969588  47.4180641
  36.1556931  -1.3398226  46.0026360  36.9124451  -1.1074587  45.2533455
  36.1959343  -2.4290721  46.0075874  34.7079353  -0.8611079  45.6219940
  34.2500610   0.1435578  46.1691818  34.0820236  -1.5573416  44.7581940
  35.9424400  -1.5636497  48.5227394  35.9258347  -2.7960079  48.5673294
  35.4887619  -0.7383134  49.5019760  35.7442856   0.2384471  49.4746666
  34.7055054  -1.1348377  50.6639290  33.8185081  -1.6222265  50.2592201
  35.6521111  -2.0010672  51.5871506  35.7613144  -2.9649296  51.0900116
  37.0611458  -1.4591202  51.7523766  37.6125069  -1.4647110  50.8121262
  37.1179466  -0.4995985  52.2663727  37.6072502  -2.0973010  52.4470711
  34.9885368  -2.2147353  52.7905121  35.5838585  -2.7340887  53.3359184
  34.3885078   0.1571119  51.4230080  35.1522903   1.1541238  51.3673935
  33.2473068   0.1533371  52.0872269  32.7004547  -0.6767020  51.9080925
  32.7861900   1.3071809  52.9045029  32.7320709   2.1475136  52.2123947
  31.3982124   0.9403598  53.2939682  30.8160191   0.9696361  52.3729362
  31.3873615  -0.1137862  53.5710220  30.7477188   1.8181230  54.3491783
  31.1937122   1.4704212  55.2809982  30.9254627   2.8750274  54.1505318
  29.2649612   1.5905480  54.5388298  28.3924866   2.4828851  54.2827072
  28.9740868   0.4795931  55.0270386  33.8440857   1.6672659  53.9767532
  33.9960327   2.7705100  54.3406067  34.5847778   0.6592662  54.5223312
  34.4074059  -0.2329445  54.0834694  35.6740990   0.7400675  55.5490761
  35.2682648   1.0749544  56.5036697  36.2537880  -0.7155232  55.6839256
  35.4131126  -1.4086757  55.7140350  36.9304237  -1.0083961  54.8811226
  36.9989433  -0.9573256  57.0127449  37.2604675  -2.0051379  56.8651161
  37.9740181  -0.4724069  56.9660492  36.2411346  -0.5989385  58.2768631
  36.7662582  -0.2211822  59.3012543  35.0411606  -0.7753709  58.3061790
  36.8652878   1.6840048  55.3210869  37.5145111   2.0972738  56.2043190
  37.0538406   2.0064387  54.0104980  36.4046783   1.5194932  53.4091911
  38.1414032   2.8630207  53.5001183  38.7996712   3.1540866  54.3186913
  39.0011101   2.0661654  52.4448700  38.3650360   1.5278157  51.7422371
  39.8145294   2.6554832  52.0216064  39.7503510   0.9144865  53.1184235
  39.0357246   0.1324719  53.3750572  40.3504715   0.5496936  52.2848282
  40.6599007   1.3832115  54.2655106  41.0401688   0.5427002  55.0769157
  41.2384758   2.5161941  54.2572517  37.5757446   4.1608229  52.8153419
  37.8902245   5.2541723  53.2976074  36.7019043   4.0625849  51.7487984
  36.4054108   3.1274493  51.5085602  36.1545372   5.1228600  50.9765892
  36.9563332   5.5140066  50.3503036  35.1391678   4.5496588  49.9296722
  34.2439041   4.2261066  50.4606400  34.5850563   5.6653543  49.0032158
  34.3159943   6.5287189  49.6117439  35.4323730   6.0021577  48.4059563
  33.6868477   5.3620772  48.4653015  35.7286873   3.4114895  49.0170937
  36.3891945   3.7933106  48.2386055  36.4176140   2.7278602  49.5132065
  34.5470238   2.5593441  48.3999176  33.6609077   2.4070034  49.0161095
  34.2251396   2.9203191  47.4230919  35.0162659   1.5990779  48.1858978
  35.4988060   6.1395884  51.8309250  35.7727623   7.2886276  51.7514496
  34.6125565   5.7858748  52.7509689  34.4998627   4.7938323  52.9034538
  33.9174309   6.6899433  53.6082268  33.6348648   7.5631161  53.0201569
  32.7612419   6.0016804  54.3523293  32.2220383   5.3217173  53.6927757
  33.2602959   5.2703519  54.9881020  31.6853237   6.7293372  55.1415482
  31.3628826   7.5437002  54.4927406  30.4907341   5.8171492  55.4506760
  30.8248749   4.9536104  56.0257874  29.8089542   6.2407255  56.1881409
  30.0549393   5.4063883  54.5399284  32.0715637   7.3537736  56.4760437
  31.1936359   7.7519631  56.9847488  32.4762306   6.5583348  57.1018410
  32.8281479   8.1206436  56.3098946  34.9311562   7.2823415  54.5856895
  34.9138985   8.5088797  54.8100853  35.7380867   6.4554391  55.2432556
  35.6255341   5.4852600  54.9859924  36.4436722   6.9259300  56.4000435
  35.7181549   7.4418421  57.0289841  37.0635910   5.7976055  57.2009048
  37.6805305   5.1376081  56.5910759  37.6609497   6.1812081  58.0280151
  35.9682083   4.8514485  57.8376083  35.2925110   4.5460310  57.0387001
  36.3009834   3.9648039  58.3772621  35.0961533   5.4641223  58.8566513
  35.4377251   6.3877082  59.5142365  33.9123230   5.0397205  58.9414024
  33.6433029   4.1966414  58.4546318  33.2721443   5.6127124  59.4723969
  37.5129776   7.9590707  55.9691963  37.7531395   8.9200392  56.6539307
  38.1390266   7.8235116  54.7837524  37.9371071   6.9590368  54.3020782
  39.1337128   8.7793989  54.2655525  39.7649994   9.1458206  55.0750656
  40.0231171   8.0187616  53.1911888  39.4337769   7.3372741  52.5777130
  40.4639435   8.8192930  52.5971146  41.1926384   7.2939382  53.9063721
  41.8772926   8.1149979  54.1189957  40.9264412   6.9064274  54.8897705
  41.7638206   6.1143665  53.1833572  40.9803734   5.3665614  53.0604591
  42.1656036   6.3474355  52.1972771  42.9241257   5.4852638  54.0670395
  43.4015007   4.7175531  53.4580765  43.6683083   6.2616057  54.2447662
  42.4615250   4.7678833  55.2650108  43.2591019   4.5800767  55.8555183
  41.7086906   5.2206974  55.7633057  42.0368271   3.8911746  54.9983368
  38.4275093   9.9805851  53.6779823  38.9541397  11.0764360  53.9577217
  37.3328247   9.7552843  52.9853210  36.9900169   8.8091869  52.8988228
  36.4371071  10.8842430  52.5940781  36.9882584  11.4983492  51.8818932
  35.1219521  10.4074764  51.9145966  34.4483871   9.7800598  52.4983406
  34.3887062  11.6434002  51.3657150  34.9602623  12.3367500  50.7487183
  33.5869942  11.2054729  50.7710838  33.9891624  12.2212753  52.1990967
  35.4342957   9.6183224  50.8328285  35.5731163   8.7395725  51.1935616
  36.1189613  11.7775326  53.8453751  36.3622856  13.0593977  53.7835426
  35.6837387  11.1830273  54.9781151  35.3775864  10.2234240  54.9037476
  35.4533272  11.8307133  56.2412643  34.5394669  12.4247990  56.2363663
  35.1413231  10.7284498  57.3228226  34.5343246   9.9523134  56.8567047
  36.0778236  10.2437153  57.5986900  34.4741173  11.2548199  58.5452690
  35.1907959  11.9336929  59.0074425  33.6557426  11.8730087  58.1762123
  33.9551926  10.2383165  59.5220451  33.2013245  10.7429094  60.1263351
  33.4920692   9.4445200  58.9359474  34.9517899   9.5131741  60.3715591
  35.6422081   9.0710869  59.6532402  35.5710144  10.1621122  60.9908676
  34.2103348   8.5015926  61.1370163  33.6727524   7.9234719  60.5070305
  34.8587494   7.9399295  61.6701164  33.5012970   8.9304171  61.7144890
  36.6997070  12.7589817  56.7628822  36.6545067  13.9833279  56.9472733
  37.8482628  12.1801548  56.6566734  37.9228706  11.2443504  56.2841072
  39.0653687  12.9386339  56.9424667  38.7566338  13.4588766  57.8491821
  40.2210274  11.9567680  57.0357704  39.9159126  11.2563648  57.8132286
  40.3028336  11.3324251  56.1460495  41.5396576  12.5632410  57.3177109
  42.2376022  11.7277241  57.2639732  41.9015198  13.2098255  56.5182877
  41.6884842  13.3010826  58.6161728  41.0131378  13.1017923  59.6290894
  42.5711861  14.2538815  58.6017570  42.7814064  14.6977215  59.4843216
  43.2296104  14.3716393  57.8449821  39.4132042  14.0372047  55.9120560
  39.9460144  15.1115255  56.3048363  39.0974236  13.8892899  54.5448723
  38.7904701  12.9706411  54.2585754  39.3106270  14.8789482  53.5092049
  40.3661728  15.1448040  53.5662155  39.0544510  14.1095676  52.1381187
  39.8265457  13.3593674  51.9673233  38.0895195  13.6109829  52.0463486
  39.1287155  15.0081453  50.8672676  38.3464928  15.7597399  50.9737244
  40.4653091  15.7590647  50.7826462  40.5096359  16.2712803  49.8215103
  40.5340195  16.4049473  51.6579819  41.2584496  15.0127821  50.7369804
  38.8960838  14.2781525  49.5457191  37.9687996  13.7255354  49.6968994
  38.9026718  14.9945240  48.7242126  39.6788292  13.5333195  49.4020653
  38.4748344  16.1466198  53.6652832  38.9878731  17.2401638  53.5559959
  37.1678734  15.9421864  54.0219040  36.9136200  14.9844971  54.2175713
  36.3012924  17.0111427  54.4033737  36.3871117  17.7585316  53.6146126
  34.8743629  16.5531788  54.5695496  34.8519783  15.8483677  55.4007187
  34.3679390  17.4293137  54.9745445  34.2579041  16.0034122  53.2530937
  35.0260124  15.4387703  52.7246208  33.2684746  14.9736824  53.5894814
  32.5423050  15.4517145  54.2469482  32.8056488  14.6133738  52.6707497
  33.6814537  14.0943108  54.0836983  33.6769333  17.2266407  52.5669250
  33.3176231  16.9584961  51.5733948  32.7687454  17.4744720  53.1163559
  34.3089218  18.1113796  52.4899330  36.7407532  17.6587429  55.7250404
  36.8891983  18.9294758  55.7519112  36.9777870  16.9418716  56.8338165
  36.8549652  15.9475060  56.7063255  37.5881538  17.4671822  58.1472778
  36.8006363  18.0297890  58.6486664  38.0647583  16.2898006  59.0832481
  38.6402016  15.5918283  58.4751358  38.8248367  16.6353855  59.7839279
  36.9484520  15.6079788  59.7996635  36.0861816  15.5156555  59.1393051
  37.2997322  14.5846777  59.9321594  36.6422195  16.3332539  61.1071358
  36.2890282  15.5388384  62.0416031  36.7229233  17.5589123  61.1949997
  38.7300568  18.4707928  57.7884789  38.9769859  19.4720135  58.4638252
  39.6208801  18.0854912  56.8649750  39.5775261  17.1377373  56.5185852
  40.9120979  18.8426685  56.6730957  41.1992073  19.1283340  57.6850586
  42.0198479  17.9814491  55.9705238  42.2187042  17.0582371  56.5148048
  41.6601448  17.7599583  54.9657097  43.3960991  18.7495441  56.0291595
  44.0394745  18.2264900  55.3216400  43.2494164  19.7471371  55.6151619
  44.0221863  18.8310413  57.4478378  43.4670677  19.5522346  58.0476875
  43.8644867  17.8752728  57.9475746  45.5090599  19.1264954  57.4711876
  45.7086601  19.1604767  58.5422173  45.9987488  18.2045918  57.1575012
  45.9862404  20.2919178  56.7290688  46.9412308  20.4083252  57.0365486
  45.9739037  20.0749969  55.7427139  45.6475677  21.2217541  56.9310646
  40.5588837  20.1453857  55.8796577  40.9070091  21.2243500  56.3517113
  39.7416916  20.1130924  54.8283005  39.3257179  19.2162399  54.6216049
  39.3583298  21.3304520  54.1339035  40.3100128  21.7676201  53.8317833
  38.4951706  20.9088631  52.9384346  37.6018066  20.4299812  53.3392792
  38.0389214  22.0848045  52.1035919  38.9543533  22.5809383  51.7812157
  37.4116974  21.6419964  51.3298950  37.4129753  22.8384342  52.5814362
  39.2399864  20.0266819  51.9260483  39.8692856  20.6950893  51.3384094
  39.9999428  19.4876080  52.4917030  38.4123344  19.0756359  51.0515900
  37.5866432  18.6208210  51.5988350  38.0473633  19.7463875  50.2737770
  39.1629028  18.4134636  50.6199951  38.6301918  22.3144398  55.0529099
  38.8584213  23.5065517  55.0395737  37.7543411  21.7656441  55.9302063
  37.6216965  20.7644711  55.9175491  36.7765579  22.5699139  56.7218208
  36.3211784  23.2722969  56.0236893  35.7864227  21.5534573  57.4801216
  36.3739281  20.6824589  57.7704582  35.0537758  22.1703396  58.7819748
  35.8241158  22.4554291  59.4984970  34.4592361  23.0460835  58.5217896
  34.4701500  21.3600674  59.2189407  34.6825371  21.1575584  56.4349709
  34.0801582  22.0441723  56.2370911  35.1916847  20.8108997  55.5356979
  33.8677826  19.9375877  56.7970848  34.4571037  19.0820065  57.1269188
  33.2251053  20.1269646  57.6568527  33.1994324  19.6633797  55.9808655
  37.6110420  23.3450298  57.7387009  37.3038788  24.5136604  57.9761314
  38.6221275  22.7289333  58.3996887  38.7681046  21.7599468  58.1550293
  39.5856209  23.4513359  59.2110138  39.0452614  24.0647964  59.9319687
  40.2755547  22.3309860  60.0669022  39.4687042  22.0443039  60.7413712
  40.6396523  21.4801483  59.4910507  41.4907303  22.7652073  60.8927574
  41.9434242  21.8523560  61.2798920  42.2224274  23.1591473  60.1873970
  41.2073059  23.8229599  61.9536896  42.1709824  24.4923935  62.4651299
  40.0768089  24.0227299  62.5332794  40.6048470  24.3684502  58.5158730
  40.9911423  25.3451653  59.1050072  40.9692078  24.0595646  57.2871094
  40.7740631  23.1532707  56.8862953  41.9131966  24.9163380  56.6123581
  42.6438103  25.2042580  57.3682785  42.5029297  24.2177353  55.4481125
  41.7038307  23.7716866  54.8560143  42.9115295  25.0555859  54.8831749
  43.6924019  23.2432289  55.7525139  43.1890221  22.3474751  56.1162987
  44.1553650  23.1474915  54.7703743  44.6760521  23.7647572  56.7019196
  45.3451080  22.9339199  57.4232368  45.0007896  24.9731407  56.7156639
  41.2821846  26.2745743  56.1504440  41.8452568  27.3470268  56.2239571
  39.9876175  26.2400494  55.8688164  39.4790726  25.3730297  55.9675980
  39.2861824  27.3905430  55.4902077  40.0412788  28.1010056  55.1537971
  38.4284363  27.1383095  54.2857590  37.6726151  26.3741417  54.4670944
  38.0470657  28.1092777  53.9697227  39.2904282  26.7030449  53.1029587
  40.0440826  27.4981956  52.5801582  39.3919487  25.4016857  52.7360916
  40.1324005  25.2218781  52.0731430  39.0337181  24.6743603  53.3383980
  38.5096130  27.9548626  56.7209663  38.0859566  29.1231918  56.6754532
  38.3509750  27.2851505  57.8799553  38.8952789  26.4343662  57.8823586
  37.5423851  27.7144680  59.0485992  37.5346184  26.9342976  59.8097649
  38.0822220  28.8876743  59.8389244  37.6612968  29.8106499  59.4401283
  37.6836166  28.8127804  60.8506622  39.5895653  29.0009766  59.8907433
  40.3703613  28.1171207  60.6194763  40.0268021  27.4803219  61.3241425
  41.6342545  28.4468670  60.4115486  42.5281639  28.1477222  60.9386482
  41.6386337  29.4350262  59.4533882  42.4735641  29.8007469  59.0183678
  40.3550339  29.7467422  59.0566216  40.0326118  30.5482006  58.4084625
  36.0631256  27.7523346  58.7913132  35.3124809  28.5167656  59.3616447
  35.6201172  26.9596748  57.7798462  36.2561302  26.2143745  57.5346642
  34.2563286  26.9840031  57.2204857  34.0113068  28.0014038  56.9155807
  34.2035446  26.1116047  55.9138603  34.4109802  25.0611191  56.1176949
  32.8731956  26.3397312  55.1565781  32.0757523  25.7549057  55.6150131
  32.7405167  27.4173851  55.0608902  33.1259346  25.9435387  54.1730843
  35.2432785  26.6065445  55.0843544  35.0055733  27.5164394  54.8915100
  33.1965370  26.3971062  58.0669708  33.2557411  25.2422390  58.4059753
  32.1328163  27.1585026  58.3020401  32.2031174  28.0337334  57.8029175
  30.9202175  26.6852283  59.0274925  31.1648331  25.8481045  59.6813164
  30.3323498  27.8880196  59.8380852  31.1527500  28.3948040  60.3462296
  29.9424725  28.6132660  59.1238594  29.2488937  27.5891361  60.9154587
  28.6910686  28.5033493  61.1183052  28.4978085  26.8950653  60.5383148
  29.7467670  26.8925686  62.1470642  30.5077496  26.1521015  61.9006538
  30.3088589  27.6141720  62.7398911  28.6503525  26.1935425  62.9784546
  27.9906826  25.6669426  62.2887955  29.1102238  25.4374313  63.6147842
  27.8567924  27.2277584  63.6743317  27.4920406  27.8622189  62.9782562
  27.0696564  26.7538013  64.0937195  28.4041901  27.7516479  64.3421555
  29.9251251  25.9926472  58.0841789  29.6433563  26.6568584  57.0376968
  29.2039661  24.9352283  58.4559135  29.3748779  24.1137791  59.6657600
  29.5660858  24.6927605  60.5692635  30.0675373  23.2855663  59.5161095
  27.9142609  23.5595779  59.8626099  27.3161201  24.2100353  60.5007591
  27.9540501  22.6056137  60.3884125  27.4691925  23.2854023  58.4476242
  26.3796158  23.2692776  58.4733810  27.9170551  22.3610725  58.0827446
  28.0530128  24.4623642  57.6448975  28.4108391  24.1013393  56.6806717
  26.9090519  25.4240627  57.3037720  26.3536205  25.3502731  56.2213020
  26.6835670  26.4098835  58.1072807  27.2713661  26.4134483  58.9286118
  25.8478222  27.5930710  57.8069229  24.8769341  27.1925182  57.5153198
  25.7396183  28.5477924  58.9869270  26.7445526  28.8464661  59.2852554
  25.2272129  29.4368877  58.6194344  24.8884106  28.0120029  60.1697426
  24.3725166  28.9148693  60.4965286  24.1181526  27.2725410  59.9506531
  25.8084469  27.6273766  61.2945709  26.0705109  26.4270687  61.4384613
  26.2760086  28.5408745  61.9968796  26.2933445  28.4611168  56.5767059
  25.4579029  28.8193645  55.7140121  27.5974388  28.6311321  56.4738274
  28.2614250  28.1651859  57.0755882  28.1769199  29.5502014  55.5503998
  27.5479813  30.4344025  55.4468231  29.5189762  30.0901165  56.0970383
  30.2945557  29.3247185  56.0697861  29.8330936  30.7847252  55.3179703
  29.5533504  30.8916740  57.3968086  30.6156445  31.0786362  58.0539589
  28.4731483  31.4563389  57.7116890  28.5272617  28.9141541  54.2234421
  29.2644386  29.3659172  53.3859863  27.8928127  27.7808228  53.9325600
  27.3001328  27.4534702  54.6820068  28.0795860  26.9192924  52.7688370
  28.9265461  27.3242035  52.2149315  28.4040871  25.5017853  53.2743187
  27.6805592  25.1731377  54.0203781  28.2856903  24.3966579  52.1914024
  29.0677853  24.5041103  51.4398155  28.4520187  23.4098473  52.6234131
  27.3074207  24.3914108  51.7107048  29.7501526  25.2692165  53.9853363
  29.9793377  26.2037678  54.4973793  29.6767998  24.4219933  54.6671906
  30.5323086  25.0750942  53.2514153  26.9058094  26.9952469  51.8800926
  25.7393780  26.8759212  52.2453957  27.1254940  26.9676437  50.5735970
  28.1038666  26.8085899  50.3797150  26.2528477  26.9505005  49.4277878
  25.3902988  27.5721130  49.6680183  26.7520676  27.5600014  48.1608200
  27.5750580  26.9542503  47.7815399  25.6434479  27.6611176  47.0743217
  25.2502174  26.6847382  46.7912025  24.8497314  28.2998161  47.4618530
  26.0484257  28.2074051  46.2224655  27.2725983  28.9640408  48.3751678
  28.1846485  29.0201778  48.9694023  27.5333672  29.4040203  47.4126091
  26.5713291  29.6198559  48.8911438  25.6422691  25.5498066  49.2436256
  24.4699192  25.3058643  49.4321785  26.5435467  24.6106243  48.9150963
  27.4999809  24.9345684  48.8952446  26.3088093  23.2466793  48.5866203
  25.7533760  22.6986313  49.3476982  25.6009922  23.1969948  47.2237015
  25.3280220  22.1773815  46.9517136  24.6374416  23.7005730  47.3016777
  26.2646732  23.9292221  46.0956192  26.4728947  24.9526825  46.4075012
  27.1366463  23.3658142  45.7634506  25.3652725  24.0459785  44.8922768
  24.3792591  24.7541618  44.8462524  25.7390957  23.4318829  43.8095093
  26.6198635  22.9376278  43.8017159  25.4061871  23.7460003  42.9091721
  27.6844902  22.5339298  48.5172195  28.7046299  23.1999111  48.5357094
  27.6054420  21.2666874  48.1901588  26.6887474  20.8436871  48.2191620
  28.7442780  20.3677273  48.0382843  29.5796871  20.9404640  47.6355782
  28.9989262  19.8121643  49.4318657  28.8828068  20.5837822  50.1929321
  28.2523727  19.0390320  49.6135902  30.4353428  19.2474899  49.5097389
  30.6239166  18.5151291  48.7247620  31.1514626  20.0613441  49.3961143
  30.6080799  18.4213867  51.1791191  31.4162560  19.7462406  52.1698837
  30.7496643  20.6061230  52.2359505  31.5592518  19.3508644  53.1755333
  32.3607025  20.0511818  51.7191811  28.4958935  19.1823864  47.0578156
  27.3923912  18.6192799  46.9251175  29.5533886  18.8137817  46.3278770
  30.2926903  19.4952698  46.4233055  29.6740608  17.7427120  45.3211937
  28.7345505  17.1953297  45.2450676  29.7682800  18.4476337  43.9986763
  28.8180828  18.9495029  43.8160477  30.4919014  19.2627392  43.9898643
  30.1020737  17.5668240  42.7928276  31.0497646  17.0721989  43.0057373
  29.0240211  16.4528980  42.4875298  28.0320148  16.8897667  42.6022377
  29.3743382  16.1757355  41.4932671  29.1330929  15.6186104  43.1804695
  30.2431030  18.3625965  41.4889183  29.2802792  18.6946354  41.1005440
  30.7861290  19.2907906  41.6669121  30.7239609  17.8304653  40.6681175
  30.7973309  16.7493000  45.6220245  31.9096966  17.2317123  45.7995682
  30.4920197  15.4802313  45.7629433  29.4962788  15.3532133  45.8746109
  31.5451260  14.4000177  45.7832108  32.4998131  14.9195385  45.8655548
  31.6131821  13.6400700  47.0223465  30.7987995  12.9745846  47.3087196
  32.4866104  12.9918623  46.9512634  31.9572716  14.6180573  48.2148666
  32.6028481  15.4124765  47.8403893  30.8152714  15.2975578  48.8976135
  30.2975464  15.9222355  48.1697159  30.2236557  14.5736599  49.4580269
  31.1037750  16.0910206  49.5870247  32.7559090  13.9197292  49.3242760
  33.2348289  14.6293898  49.9989052  32.0809250  13.2477255  49.8542824
  33.5142670  13.2856998  48.8649254  31.5911255  13.5575752  44.5260239
  30.7147293  13.6216621  43.6320915  32.6625938  12.7947588  44.2819939
  33.3833885  12.8313398  44.9885445  32.9401512  12.0188293  43.0783806
  32.0506210  11.5452080  42.6630287  33.5280991  13.1128063  42.1001892
  32.8781853  13.9848270  42.1729202  34.5049324  13.3359241  42.5292854
  33.6827850  12.5830173  40.8564262  34.3089981  13.1337738  40.3809013
  33.9389343  10.8770666  43.3555450  34.7154541  10.9459915  44.3072205
  33.8133659   9.8877268  42.5379257  32.9684868   9.8459883  41.9860802
  34.8070641   8.8174477  42.4164391  35.7546234   9.2905245  42.6741943
  34.3772469   7.7332811  43.4350739  34.9090462   7.9124017  44.3695374
  33.2897949   7.7080407  43.5051727  34.6589432   6.7915587  42.9640083
  35.1559296   8.3212576  41.0120201  34.3003960   8.2293606  40.1566734
  36.4080849   7.8085637  40.8411942  37.1021194   7.6687121  41.5615120
  36.7123909   7.0243845  39.6351738  36.4017868   7.6126981  38.7717438
  38.2114105   6.7887855  39.5465126  38.4385757   6.0309653  38.7967072
  39.0492706   8.0551815  39.4572563  39.0330353   8.5458488  40.4304390
  40.0782127   7.8283520  39.1780930  38.6288452   8.7078209  38.6921349
  38.6584435   6.2251654  40.7298126  38.4890900   5.2838883  40.6466179
  35.9049454   5.6759734  39.5625496  35.5208397   5.1941228  40.6164970
  35.6319046   5.1275187  38.4031105  36.1557045   5.6081572  37.1719742
  37.2201157   5.8349509  37.1112175  35.6441803   6.5219455  36.8695946
  35.7386398   4.5123830  36.1788559  36.4989319   3.7323153  36.1394539
  35.6661644   4.9923792  35.2029190  34.4165039   4.0035028  36.6730919
  34.2838707   2.9895627  36.2956886  33.5716820   4.6162930  36.3586617
  34.6099091   4.0448527  38.1775284  33.6509857   4.2849998  38.6367607
  35.0164070   2.7278709  38.8509560  34.2250748   1.8175279  38.6790810
  36.1875610   2.5942428  39.4249954  36.6539001   3.4756083  39.5856972
  36.6944847   1.4128784  40.1185760  36.2860641   0.6195859  39.4924965
  38.2406540   1.4175869  40.0361748  38.6098366   0.7132477  40.7816353
  38.4218559   1.0432881  39.0286179  38.9650726   2.8002534  40.3222046
  40.1428947   2.8972018  39.8701973  38.2436333   3.7031655  40.7179604
  36.2688751   1.2986126  41.6140099  36.5054932   0.2143534  42.1605949
  35.7157288   2.3110173  42.1980782  35.7442284   3.1812582  41.6862488
  34.9788208   2.2001104  43.4575081  35.3555069   1.3744464  44.0612335
  35.2063599   3.5573061  44.2011147  34.7693481   4.3100967  43.5450439
  34.6441154   3.5148203  45.1339455  36.6756134   3.8630602  44.5344162
  37.3030548   3.8904190  43.6435356  36.8322563   5.2204819  45.2024536
  36.2644348   5.2386699  46.1326942  37.8767204   5.5097299  45.3187675
  36.5068436   5.9603739  44.4711800  37.2291603   2.8100500  45.4807854
  36.5086288   2.5798388  46.2655945  37.4765320   1.9103305  44.9173889
  38.2111702   3.1198726  45.8382263  33.4731102   1.9510241  43.1775093
  32.9393044   2.4782324  42.2425385  32.7669296   1.3345864  44.1228981
  33.3038902   1.0611651  44.9334602  31.4135227   0.7738262  44.0333061
  30.8415394   1.5277791  43.4924850  31.3283520  -0.5611221  43.1860313
  31.6169415  -1.3691754  43.8582420  30.2878990  -0.6803896  42.8838234
  32.2260094  -0.5732954  41.9461136  33.5573807  -0.8239155  42.0055275
  34.0794983  -1.1209249  42.8174858  33.9236221  -0.8213688  40.7294579
  34.8873901  -1.1495968  40.3691597  32.8947334  -0.5272084  39.9431229
  32.9710922  -0.4468534  38.9392242  31.7938061  -0.2982594  40.6874847
  30.7924347  -0.0863691  40.3428688  30.6769047   0.6328576  45.3856201
  29.4861488   0.7208768  45.4129639  31.4158154   0.4162532  46.5047569
  32.4227486   0.4079508  46.4265251  30.7766838  -0.1551244  47.6662521
  30.2256374  -1.0399964  47.3477325  31.8835373  -0.5747857  48.6075554
  31.6107750  -1.2258914  49.4380760  32.6592484  -1.0350736  47.9955864
  32.3656998   0.3211102  48.9987068  29.8460693   0.8057772  48.4262085
  29.0615997   0.4304079  49.2936401  30.0647774   2.0899267  48.2122383
  30.7666512   2.3497798  47.5340424  29.3537865   3.3233895  48.7611732
  28.2816849   3.1291082  48.7303047  29.7910671   3.4947391  50.2590179
  29.7304668   2.5268414  50.7566147  31.1468773   4.1905203  50.4888229
  31.4155598   4.2199559  51.5447845  31.8896885   3.5414414  50.0251083
  30.9775162   5.1880159  50.0833359  28.8775558   4.3508062  51.0856705
  27.8700943   3.9362943  51.0496445  29.0863132   4.3802400  52.1550865
  28.8797951   5.3858237  50.7438431  29.7076454   4.5198159  47.9010239
  30.8841839   4.5788703  47.4682426  28.8202248   5.5257993  47.8205566
  27.8519535   5.3794127  48.0677872  29.1194019   6.9354835  47.5026970
  29.6919518   7.0310545  46.5801163  27.7807236   7.6909828  47.4923782
  27.2788391   7.6102524  48.4565849  27.9940014   8.7568207  47.4111252
  26.7806282   7.2307339  46.5320740  25.5976906   6.6115484  46.9254227
  25.3398418   6.4446983  47.9608345  24.7853088   5.9668121  45.9257660
  24.0485058   5.1932344  46.0841942  24.9766331   6.2452435  44.5679092
  24.3060188   5.9025517  43.7938004  26.0914822   6.9381723  44.1985779
  26.3567333   6.9974108  43.1533356  27.0346279   7.3901854  45.1394386
  27.9218216   7.9453878  44.8729134  29.9974079   7.5840888  48.6342163
  29.5384750   7.8281097  49.7926865  31.2101803   8.1237030  48.2837639
  31.8716545   7.9935060  46.9752731  31.2713566   8.4490747  46.1877441
  31.9011440   6.9434004  46.6845703  33.2035255   8.7003021  47.0530663
  33.4957314   9.1596060  46.1087379  33.8902359   7.9454699  47.4361763
  32.8407631   9.7039919  48.1419945  32.3042030  10.4290218  47.5300026
  33.7039528  10.1726341  48.6146278  31.9914265   8.9917793  49.1744080
  32.6120644   8.4323578  49.8743782  31.1459770  10.0796242  50.0177689
  31.5276718  10.4334860  51.1290970  30.0092850  10.5190258  49.4506416
  29.8890457  10.2649364  48.4805489  29.0949783  11.4524450  50.0958862
  29.6910954  12.2959652  50.4440575  28.0618858  12.0370731  49.0523682
  27.6326675  11.2039175  48.4958344  27.1688824  12.4124498  49.5521088
  28.6501770  12.6970129  48.4148026  28.2589264  10.9409733  51.3273811
  27.6670532  11.7295265  52.0357780  28.2775478   9.6849709  51.6918259
  28.7955112   9.0840940  51.0667152  27.7704124   9.2059069  52.9290161
  26.7415981   9.5353537  53.0742989  27.7602043   7.6574421  52.9864693
  27.1941338   7.3625903  52.1028824  28.7857780   7.2945104  52.9187622
  27.1687717   7.0544734  54.2500992  27.8182259   7.2720757  55.0980110
  26.2075005   7.5642781  54.3145790  26.9516735   5.5601983  54.2674675
  26.2192783   5.3822756  53.4800377  27.9207172   5.0810585  54.1278915
  26.3600006   5.2127008  55.6264915  27.1702747   5.2159419  56.3555679
  25.6041298   5.9654408  55.8504219  25.7445393   3.8901467  55.6068611
  24.9432125   3.9402132  54.9941063  26.4256706   3.1932199  55.3414230
  25.4621181   3.5351026  56.5092354  28.5014629   9.7731676  54.1545868
  28.0098019   9.6371861  55.2173157  29.7547913  10.2816772  54.0194283
  30.1167488  10.3855724  53.0822563  30.5848732  10.8053122  55.1332703
  30.5839348  10.0572042  55.9260063  32.0548973  10.7787418  54.6073189
  32.0643044  11.4630985  53.7589836  32.6576958  11.1387072  55.4410820
  32.3870697   9.7727518  54.3509102  30.1820545  12.1879616  55.6150322
  30.5357780  12.5641346  56.7295074  29.4328442  12.9679136  54.8571815
  29.1802750  12.7094154  53.9140511  29.2856770  14.3605328  55.2356491
  30.2989788  14.6579475  55.5055847  28.7772388  15.1898651  53.9931602
  27.8445435  14.6895323  53.7326851  28.6030273  16.5343857  54.5482826
  28.5439034  17.2677975  53.7440948  27.6506500  16.6084061  55.0732536
  29.4727459  16.7344799  55.1741028  29.7372894  15.1074963  52.7690620
  29.2762203  15.7637854  52.0309563  30.7231274  15.4654951  53.0658188
  29.8033104  14.0978613  52.3636246  28.4059792  14.4845438  56.4280281
  28.6590233  15.3335953  57.2837753  27.3395081  13.7091665  56.6953125
  27.2078094  12.9097500  56.0922470  26.5031528  13.8869514  57.9563179
  26.6417732  14.8959856  58.3445625  25.0171452  13.5848980  57.6548805
  24.4864216  14.0927477  58.4601898  24.8101063  14.0669355  56.6994362
  24.6267281  12.0872278  57.6100159  25.2891483  11.5555315  56.9269371
  24.6738605  11.5476961  58.5559464  23.1871395  11.9006214  57.1416588
  23.0851688  12.4803743  56.2242775  22.9726601  10.8512907  56.9391594
  22.2546406  12.2513609  58.1599007  22.3098640  11.6851425  58.9944344
  21.1964283  13.1205444  58.1158371  20.9484520  13.8205500  57.0571518
  21.4541512  13.6315069  56.2035522  20.0142765  14.1888485  56.9486504
  20.3736992  13.2311850  59.1165314  19.7025948  13.9859829  59.1164932
  20.5896397  12.7133751  59.9563789  27.0459023  13.1655426  59.1994171
  26.4918404  13.2768011  60.2965927  28.2204151  12.5376892  59.0508919
  28.4779415  12.2486248  58.1180344  29.2018604  12.2015810  60.1379852
  28.7187119  11.5488491  60.8650436  30.4125290  11.4024019  59.6365013
  31.0210133  12.0318279  58.9871407  30.9473457  11.1041279  60.5382233
  29.9157810  10.1424408  58.8799858  29.2398453  10.5206137  58.1130486
  30.7574692   9.6869383  58.3582764  29.2244930   9.1585064  59.8029251
  29.8312988   8.7935305  60.8248253  28.1242256   8.6701307  59.4619789
  29.6950951  13.4298353  60.8660088  30.1417599  13.1990051  61.9935989
  29.6685066  14.6487846  60.2778511  29.2005272  14.7150269  59.3852654
  30.1670742  15.8842773  60.8852234  30.7019444  15.6297636  61.8002319
  31.0800381  16.5666084  59.9179077  30.5251484  16.7485886  58.9975357
  31.3496075  17.5102768  60.3921700  32.3730736  15.8420429  59.3982620
  32.1464005  15.2727947  58.4967728  33.3699799  16.9458103  59.1110840
  33.8372688  17.2723808  60.0401115  34.1886864  16.6413193  58.4590797
  32.7972069  17.7833500  58.7128906  33.1147728  14.9361839  60.3429070
  34.0773849  14.7615862  59.8622856  33.2216721  15.3424520  61.3486977
  32.5030708  14.0361567  60.4051056  28.9621925  16.6895504  61.4329376
  27.9251347  16.5847702  60.8007317  29.1256447  17.4846592  62.4712982
  29.9991226  17.3624058  62.9634323  28.1415443  18.4676476  63.0402794
  27.3096676  17.8426399  63.3650017  28.6665955  19.1671906  64.2883682
  29.5141487  19.7817860  63.9850044  27.9340744  19.8369255  64.7388916
  29.1463203  18.0726318  65.1959305  29.6551781  18.3773518  65.9507828
  27.5379906  19.4914265  62.1025581  28.2284508  20.1780586  61.4048767
  26.1930428  19.6699009  62.0434647  25.6123753  19.1330776  62.6717529
  25.5338936  20.6284599  61.1222343  24.4948444  20.6602917  61.4500542
  26.0064888  21.5728054  61.3923531  25.5933609  20.4763985  59.5901375
  24.8025398  21.0301704  58.8628159  26.4858971  19.5799809  59.1363640
  27.0515461  19.0764408  59.8046341  26.4915218  19.1716290  57.7159805
  26.5571060  20.0292282  57.0464134  27.8155308  18.4838448  57.5320435
  27.8247299  17.6372433  58.2185440  27.9183865  18.1757832  56.4915543
  28.9899368  19.4046535  57.8355675  29.5544662  19.4534168  59.0057678
  29.2628517  18.8724022  59.8681946  30.5336266  20.3575516  59.0136185
  31.1974449  20.5403271  59.7525635  30.6756401  21.0160160  57.8163109
  31.4055157  22.1088104  57.4545021  31.9565029  22.6525879  58.2075729
  31.3501530  22.5780315  56.1292267  31.8568420  23.4918613  55.8561249
  30.4190426  22.0450325  55.2090416  30.3705788  22.3322639  54.1690674
  29.6117249  20.9550400  55.6413612  28.9770069  20.5126057  54.8878365
  29.6732330  20.4211044  56.9728851  25.2001247  18.4137611  57.2454414
  25.0598602  18.4451981  56.0231056  24.2899761  17.9472561  58.1568947
  24.4799118  17.7828598  59.1351585  23.0608253  17.3111897  57.6247864
  23.3263016  16.6336803  56.8132439  22.4311771  16.6468601  58.8286514
  21.6262112  15.9931650  58.4927711  23.1244926  15.9990740  59.3651123
  21.8633728  17.6849537  59.8258705  22.6283112  18.2612724  60.3462830
  21.3678341  18.4700508  59.2547646  21.0691471  17.0210285  60.9848099
  20.6339340  15.9039764  60.9053688  20.8348637  17.7273674  62.0722084
  21.4125729  18.5497398  62.1724892  20.4122124  17.3565598  62.9112396
  22.0946941  18.2985249  56.9813690  21.2647820  17.8452663  56.2454224
  22.2297535  19.6365795  57.1922073  22.8842640  19.9818611  57.8795967
  21.3394356  20.6373501  56.4865837  20.3346767  20.2260208  56.3897591
  21.1627655  21.8213844  57.3322601  22.1506004  22.1934261  57.6040497
  20.6521301  22.5842419  56.7445450  20.5053730  21.5417461  58.6685104
  19.1731567  21.0459309  58.7670784  18.6199608  20.7678833  57.8821716
  18.6253242  20.8076363  60.0599747  17.6354523  20.4068642  60.2210274
  19.4548111  21.0112667  61.2520180  18.9857616  20.6992950  62.4659157
  18.0354252  20.8344612  62.4796295  20.8262558  21.3394756  61.0824509
  21.4881439  21.5258865  61.9152489  21.2480869  21.6949482  59.7950287
  22.2710342  22.0361748  59.7355042  21.9034557  21.1277008  55.1405869
  21.2210770  21.8090515  54.3565483  23.1793537  20.8574619  54.9372025
  23.6580296  20.2854595  55.6182213  23.9323654  21.2358074  53.6840591
  23.7568989  22.2923985  53.4817581  25.4169979  21.0423050  53.8759537
  25.6002884  19.9892006  54.0892029  26.3653469  21.2929878  52.6303825
  27.4142609  21.1285915  52.8770638  26.1207466  20.6059570  51.8202858
  26.2711163  22.3430080  52.3534737  25.8890572  21.8531895  55.0476646
  26.9349365  21.5527172  55.1105309  25.7524090  22.9213638  54.8790474
  25.3310432  21.6087284  55.9515266  23.3554039  20.3920574  52.5603943
  23.1395760  19.1945591  52.7046852  23.2508945  20.9515419  51.3364449
  22.9139328  22.3527508  51.1412354  23.8325653  22.9198818  50.9909782
  22.3001976  22.7782974  51.9351730  22.0337868  22.3862114  49.8688622
  22.1859455  23.3534718  49.3899460  20.9907379  22.1965427  50.1221886
  22.6254482  21.2493191  49.1016541  23.4290390  21.5926323  48.4501305
  21.8851662  20.8577518  48.4039726  23.0177288  20.1558113  50.1415176
  22.1762848  19.4775715  50.2831497  24.2692757  19.3931808  49.5858650
  25.1702919  20.0373096  49.0238190  24.3334484  18.0868263  49.8838425
  23.5931244  17.6473198  50.4119072  25.4733143  17.1894646  49.6043549
  26.3094769  17.7745323  49.2214279  25.9222736  16.4395332  50.8428688
  25.0172710  16.0357475  51.2967720  26.8978939  15.3053961  50.5555496
  27.1386204  14.7811317  51.4803734  26.3368206  14.6053667  49.9364738
  27.7609997  15.6560364  49.9896851  26.4732571  17.4358749  51.8441772
  27.4171753  17.8716831  51.5167770  25.7015915  18.1884098  52.0064278
  26.7221775  16.8192329  52.7078285  25.0064201  16.2770100  48.4900322
  23.9061775  15.6990538  48.5194168  25.8404408  16.2502995  47.4336433
  26.7124710  16.7585201  47.4707527  25.5968533  15.3849392  46.2501450
  24.7784977  14.6793995  46.3936996  25.2028713  16.2342739  45.0733566
  25.1318665  15.6862774  44.1338005  23.9090862  16.9967899  45.3517838
  23.7643757  17.7194958  44.5487480  23.1120129  16.2533035  45.3506889
  23.9894295  17.5505180  46.2872162  26.2325802  17.2239971  44.8645859
  26.3219414  17.5928764  45.7463684  26.8271942  14.5158491  45.8850288
  27.8941612  14.7015657  46.3251266  26.6070995  13.6088037  44.8638115
  25.6644115  13.5624628  44.5042381  27.7340698  12.6750126  44.4358063
  28.6402073  13.2423038  44.6484299  27.7162304  11.3698673  45.3027802
  27.5551186  11.6624231  46.3403511  26.9814568  10.7061825  44.8470078
  29.4389877  10.7152109  45.2003632  29.6423855  10.8603392  43.8879356
  27.6376762  12.3666801  42.9396057  26.6030293  12.2960234  42.3158379
  28.7478294  12.1678276  42.1926308  29.6293049  12.4843903  42.5706406
  28.8367710  11.7815599  40.7697868  27.9108391  11.3912888  40.3473625
  28.9423428  13.0284538  39.9120979  28.8111439  12.7337084  38.8709373
  28.0984802  13.6945143  40.0919838  30.2647305  13.7388201  40.0538368
  30.3247738  14.1079273  41.0776825  31.0498791  12.9855585  39.9887428
  30.6224346  15.1303291  38.9891052  32.3939400  15.1728640  39.3472900
  32.9596939  15.7983208  38.6567612  32.5333519  15.4782639  40.3843002
  32.7586937  14.1647167  39.1505775  29.9632683  10.7690792  40.5935860
  30.5729198  10.1637316  41.5111275  30.2323513  10.5700674  39.3568420
  29.6498299  10.9346657  38.6166840  31.3287106   9.7807312  38.8682251
  31.7502251   9.2758446  39.7374306  30.8719387   8.6349592  37.8912888
  30.0124130   8.1441679  38.3478394  30.5046043   9.0949354  36.9739075
  31.9852276   7.5639381  37.5775375  31.9181194   7.2541847  36.5346336
  32.9812279   7.8908529  37.8762245  31.7520027   6.3044734  38.4491272
  31.0400753   5.3950791  38.0831833  32.3057480   6.2384934  39.5957222
  33.0981331   6.7979264  39.8772697  32.1228828   5.3273368  39.9912643
  32.3524895  10.6787977  38.1830711  31.8729553  11.6011515  37.5132866
  33.6747398  10.4544220  38.3696671  34.0241127   9.6189852  38.8169746
  34.6590843  11.2745266  37.5759315  34.2985001  12.2877541  37.3985939
  35.9964447  11.4756947  38.3044205  35.7596893  11.5533800  39.3655586
  36.5971909  10.5673437  38.3502655  36.7529984  12.7639732  37.8952446
  37.8068199  12.5938978  38.1157722  36.7248192  12.8373356  36.8080788
  36.3168182  14.1212349  38.5072403  36.9957008  15.1311932  38.2218323
  35.5101433  14.1376448  39.4514160  34.9229774  10.5892706  36.1496849
  34.5840263   9.4102011  35.9140968  35.4990540  11.3974266  35.2497711
  35.5995979  12.3825121  35.4487686  36.0070000  10.9422798  33.9001999
  35.2172050  10.4112091  33.3688927  36.3959160  12.1619987  33.0777664
  35.5168800  12.8037691  33.0184097  37.1895447  12.6742296  33.6217117
  36.6613998  11.7642899  31.6390095  37.3012047  10.8855047  31.5584507
  35.7342987  11.4641037  31.1506729  37.3436432  13.3352413  30.8362217
  37.4940567  12.8392162  29.1688251  36.5780449  12.3334045  28.8635845
  37.5548401  13.7679701  28.6015320  38.4439545  12.3452616  28.9643726
  37.1455078   9.9156523  33.9475098  38.1131058  10.1289711  34.7072029
  37.0776405   8.7934446  33.2138977  36.3491211   8.6336765  32.5328445
  38.2307625   7.8209271  33.0043526  38.8404350   7.9149036  33.9029961
  37.6171608   6.4298096  32.9135132  37.1218033   6.2469182  33.8670692
  36.8894081   6.3892040  32.1030617  38.6850357   5.3108559  32.7055092
  39.9300575   5.5814557  32.5809364  38.2019424   4.1834650  32.4924126
  39.1164513   8.1875954  31.7675323  38.5737839   8.4064245  30.6848812
  40.3888969   8.3551044  31.9644794  40.7319870   8.4544268  32.9092178
  41.3640747   8.8673496  30.9591484  41.0107079   8.7305508  29.9371300
  41.6669769  10.3657284  31.2872066  41.9308014  10.4612703  32.3404732
  42.9849205  10.8522730  30.5837288  43.0797005  11.9298153  30.7179508
  43.8602676  10.4370279  31.0831738  42.9862938  10.5140991  29.5475159
  40.5147438  11.2090960  30.9950752  40.8421822  12.2294388  31.1945267
  40.1672211  11.0615978  29.9725437  39.7001495  11.0549631  31.7027378
  42.6946487   8.1068392  31.0598068  43.1545143   7.7131338  32.1973495
  43.3181801   7.8015437  29.9508266  42.9860191   8.2403488  29.1039391
  44.6137733   7.0484037  29.8864212  44.4797478   6.0544138  30.3131771
  44.8589592   6.7467232  28.4120159  43.9334564   6.2072444  28.2107563
  45.2261810   7.9852715  27.5491219  45.1734276   7.5964727  26.5321903
  44.5036163   8.7905951  27.6812229  46.2492676   8.3166981  27.7267208
  45.8247375   5.8395395  28.3632011  45.6804047   5.2474875  27.6214180
  45.7137947   7.7414045  30.6593246  46.0155869   8.9882565  30.5833015
  46.3991928   6.9862347  31.5906372  46.2239342   6.0007992  31.7259159
  47.3123398   7.6036668  32.5552559  47.9357910   6.7622962  32.8577461
  48.0445251   8.3232880  32.1889954  46.6477394   8.2335739  33.8249855
  47.3310432   8.3632917  34.8582611  45.3360977   8.5358458  33.8094673
  44.6989670   8.2301655  33.0878563  44.5652580   9.1053267  34.8779259
  45.0168533  10.0512772  35.1768265  43.5538254   9.1271477  34.4721794
  44.5947609   8.1508360  36.1030884  44.8361359   6.9311299  35.9535484
  44.4123268   8.7195721  37.3178711  44.2942047   9.7226410  37.3178787
  44.7551880   8.0885563  38.6060143  45.6680260   7.5333982  38.3900948
  44.9795990   9.1542587  39.6553459  45.6816521   9.9282980  39.3453789
  44.0560684   9.7085276  39.8226242  45.6147423   8.6173391  40.9834633
  45.2221832   7.6719394  41.3579178  47.0551376   8.4471865  40.7180557
  47.4505196   9.4591579  40.6303825  47.6441498   8.1018848  41.5677185
  47.1735001   7.7590027  39.8811073  45.5094032   9.7219954  41.9665146
  46.4244843   9.6589651  42.5553741  45.6183510  10.7261782  41.5568237
  44.5954857   9.8406010  42.5485687  43.6428452   7.1398520  39.0646210
  42.4831429   7.4816937  38.8543282  43.9327812   6.0585117  39.6918945
  44.9001350   5.8914042  39.9293785  43.1021767   4.8801670  40.1178627
  42.1944618   4.8460112  39.5153770  43.9350586   3.6034377  40.0033150
  44.9325867   3.7311895  40.4236984  43.5207596   2.7217448  40.4922752
  44.2299309   3.1240277  38.4851036  43.3059273   2.6781456  38.1169930
  44.5331192   4.0138001  37.9333038  45.2540054   1.9371401  38.4698334
  46.1666031   2.3418231  38.9074402  44.9211960   1.1813750  39.1812859
  45.5116768   1.3003783  37.1124611  46.2642593   0.5201983  37.2266464
  44.5983047   0.7995169  36.7915382  46.0929031   2.2645223  36.1176262
  46.0974998   1.6996486  35.2803726  45.5251808   3.0851521  35.9615364
  47.0471802   2.5067816  36.3429451  42.5712624   5.0614591  41.6214485
  43.3362236   5.4947586  42.4605980  41.2869148   4.7752862  41.7951813
  40.8927422   4.4230456  40.9345703  40.4853020   4.7376432  43.0189667
  39.4384270   4.6343184  42.7335320  40.7787094   3.4762924  43.8953781
  41.8457336   3.5280612  44.1118927  40.2591820   3.6246645  44.8420448
  40.6394691   2.0410581  43.4011078  39.5787392   2.0051506  43.1527939
  41.2452507   1.8756075  42.5101776  40.9355431   0.9860486  44.4140968
  41.6687241   1.3490288  45.1343689  40.0842133   0.7130473  45.0376396
  41.4722023  -0.3204299  43.6694717  40.7112503  -0.6268641  42.9517326
  42.2895699  -0.0283469  43.0101585  42.0138969  -1.4781108  44.4561310
  42.6186104  -1.2082213  45.2187462  41.2761421  -1.9680780  44.9416771
  42.4633293  -2.0928731  43.7926712  40.5727081   6.0791750  43.7301254
  41.1053276   6.1526542  44.8398476  40.3411636   7.1923847  43.0308838
  40.0454369   7.0386739  42.0774612  40.4539070   8.5686893  43.4884644
  41.0639000   8.6092682  44.3908844  41.3007431   9.2327013  42.3809471
  42.1988640   8.6401644  42.2066650  40.8295441   9.4916258  41.4327660
  42.0834999  10.7501154  43.1480331  41.1148109  11.2406540  43.9264374
  39.1034241   9.1850281  43.7449036  38.2792320   9.4240103  42.8632507
  38.8062057   9.4239321  45.0358658  39.4108086   9.0893021  45.7724686
  37.7965088  10.3704872  45.5021324  36.8421173  10.1024895  45.0488968
  37.6544800  10.2020483  47.0408974  38.6042824  10.3357506  47.5586815
  36.7143707  11.2313309  47.7415810  36.5665321  10.8489265  48.7515411
  37.2049103  12.2045984  47.7268143  35.7164688  11.3081131  47.3098335
  37.1068535   8.8188887  47.3638535  36.5603561   8.8041611  48.3068390
  36.4744263   8.4452171  46.5585594  38.2121582   7.7754598  47.7984123
  37.7675056   6.8019133  48.0047951  38.9094887   7.6191306  46.9753723
  38.7871552   8.1240807  48.6562843  38.2438736  11.7747688  45.2632370
  39.4237556  12.0979548  45.4430008  37.2565765  12.5596542  44.9596443
  36.3929672  12.1459637  44.6384888  37.3245430  13.9950886  44.8500099
  38.1949539  14.3237476  45.4178734  37.3341789  14.4784880  43.3564224
  36.4716949  14.0946550  42.8115425  37.3466415  15.5683804  43.3474846
  38.6030083  13.9822998  42.6222458  39.4803696  14.4444199  43.0747719
  38.5538216  12.8956757  42.5520439  38.5632477  14.2780094  41.1644936
  37.7963982  13.6627741  40.6938248  38.3767738  15.3456783  41.0486908
  39.9429245  13.9774094  40.6639175  40.5769844  14.7634583  40.6499062
  40.4116020  12.8421860  40.0811386  39.7523422  11.7284641  40.0453529
  38.8377838  11.7488155  40.4734535  40.2654800  10.8753071  39.8753204
  41.5911827  12.8366671  39.5492210  41.7814751  13.7225323  39.1029778
  41.9341087  11.9728985  39.1537361  36.1264534  14.6246357  45.6155701
  35.0884018  13.9870615  45.6261101  36.2927780  15.8594379  46.0308609
  37.2334137  16.1942348  45.8785019  35.3112488  16.7659893  46.6544037
  34.3735580  16.2687378  46.4062653  35.2910004  16.8636284  48.1809387
  35.1387978  15.8716078  48.6061783  36.6610718  17.4302807  48.5606155
  37.4163017  16.7499599  48.1670570  36.7714424  18.4825954  48.2987900
  36.8263512  17.4061089  49.6377449  34.1662331  17.7147541  48.7633667
  33.1959496  17.3685932  48.4072533  34.1259918  17.7055054  49.8525848
  34.2899742  18.7912960  48.6457138  35.3769341  18.0649700  45.8722839
  36.4941483  18.4534378  45.4307213  34.2065964  18.7588406  45.7819557
  33.3525009  18.2213554  45.8235321  34.0338402  20.2238560  45.4463043
  34.9528732  20.7651711  45.6709290  33.3845520  20.4450188  44.0506783
  34.0012779  19.8068924  43.4177895  32.3608513  20.0884190  44.1645889
  33.3614235  21.9097042  43.6506691  32.6014786  22.4779987  44.1869736
  34.3303795  22.3651352  43.8551559  32.9544868  22.1668434  41.8622437
  34.5545425  21.9871597  41.0975761  34.8094788  22.8054638  40.4241638
  35.2938423  21.9627151  41.8981667  34.4879532  21.0930653  40.4776840
  33.0774422  20.8642654  46.4819489  31.8824863  20.4171467  46.5168762
  33.5630226  21.8280621  47.2742157  34.5096550  22.1312885  47.0952148
  32.6798706  22.6160221  48.1762199  31.6712112  22.2042637  48.1420860
  33.2045631  22.6802368  49.6861420  33.4263229  21.6894684  50.0827599
  34.1887016  23.1485023  49.6688919  32.3220215  23.4008827  50.6929779
  32.3457184  24.4396229  50.3634949  31.2887478  23.0978813  50.5237465
  32.7735634  23.1394234  52.4612045  34.2998772  23.8967323  52.6280632
  34.3606796  24.9307709  52.2886925  34.5112381  23.8977280  53.6973763
  35.0550308  23.2813759  52.1390114  32.4976616  24.0110779  47.5879745
  33.4154167  24.5472565  46.8976135  31.3935471  24.7423649  47.9874535
  30.6550560  24.0945797  48.2222061  31.0415497  26.1210651  47.6105347
  31.9102993  26.6262779  47.1884766  29.9364166  26.0328751  46.5326653
  28.9986382  25.6778622  46.9600296  29.6981144  27.4223900  45.7758141
  29.2154217  28.1293831  46.4505539  30.5940590  27.9148350  45.3978157
  28.9301033  27.2466049  45.0225830  30.3103828  25.1342316  45.5421104
  30.9739227  25.5219307  44.9667816  30.5512772  26.9523983  48.8230247
  29.6542110  26.5108910  49.4700890  31.1026516  28.0793877  49.1385155
  31.7331467  28.4961014  48.4684944  30.9341068  28.8566399  50.3786354
  30.1207333  28.4946594  51.0075188  32.1778374  28.7697544  51.2607651
  32.0545311  29.4424610  52.1095047  32.3345490  27.3404789  51.9421463
  31.5850296  27.2957230  52.7322845  32.2577477  26.4490795  51.3195648
  33.3139038  27.2816353  52.4170189  33.5224495  29.0605297  50.5364990
  33.6933479  28.2725639  49.8030090  33.4478035  30.0228844  50.0301361
  34.3394737  29.0796928  51.2577515  30.7106571  30.3640594  50.1250153
  31.2089005  30.9634800  49.1820755  29.9625854  31.0121841  51.0283775
  29.4672012  30.5165310  51.7557182  29.9074631  32.4614906  51.0080070
  29.9174652  32.9067688  50.0131569  28.6465816  32.8387108  51.7505341
  27.7374439  32.5790138  51.2081985  28.6188183  32.2784195  52.6850929
  28.7311668  34.3944511  51.8928871  29.5820789  34.7632828  52.4656105
  28.8185291  34.7371902  50.8618660  27.4215717  35.0297966  52.4435692
  26.7240639  35.7285271  51.7275772  27.1343613  34.9082108  53.6796684
  27.6496334  34.3498306  54.3451118  26.2353230  35.3161392  53.8928032
  31.1842594  32.7887726  51.7206383  31.3502617  32.4671135  52.9224281
  32.0750275  33.5311241  51.0286980  31.7727585  33.9320068  50.1523285
  33.3040962  34.0481987  51.5971260  33.0892677  34.3957558  52.6076469
  34.3384094  32.9287872  51.7950821  33.8737259  32.0308952  52.2024689
  34.9902191  32.5541954  50.5091209  35.8005447  33.2148590  50.2009087
  35.4800453  31.5936317  50.6687737  34.2252731  32.5954399  49.7337151
  35.2248230  33.3877907  52.7591896  34.8022995  33.5308762  53.6092491
  33.9305305  35.1830978  50.8480034  33.9992599  35.2615509  49.5831451
  34.5873413  36.1122360  51.6053543  34.6507950  36.0510139  52.6114960
  35.3448906  37.2419472  51.0846481  34.8897820  37.4004288  50.1069679
  35.2114868  38.4401054  51.9569283  35.6757278  39.2813530  51.4422569
  34.1580467  38.6722183  52.1134224  35.7516479  38.2453575  53.3555145
  35.9908485  39.2947845  54.1033440  35.9171028  37.0825272  53.7437057
  36.8766670  36.8826485  50.7202187  37.7158661  37.7371674  50.3358765
  37.1978836  35.5682945  50.9145622  36.5188179  34.8967972  51.2432823
  38.5878792  35.1459351  50.6492119  39.2236862  35.7530708  51.2936020
  38.7483521  33.7201080  51.2876854  37.9996910  33.0358315  50.8884697
  40.1710663  33.0641556  51.0259132  40.1565018  32.6735077  50.0084267
  40.8898201  33.8832588  51.0496712  40.4418716  32.2325783  51.6764832
  38.6049614  33.9700699  52.8509750  38.6529694  33.0685272  53.4617195
  39.4016647  34.5583305  53.3062897  37.5850410  34.2792511  53.0795937
  39.0913963  35.1467400  49.1772957  38.3674660  34.6356812  48.3227081
  40.2635841  35.7712555  48.8828888  41.0346107  36.5753098  49.7279358
  41.6014671  35.8444901  50.3047218  40.5693169  37.3259087  50.3668365
  41.9635849  37.3834686  48.7656822  42.9395752  37.6221504  49.1882706
  41.3859329  38.1966171  48.3261337  42.1899757  36.4910316  47.6213303
  42.9595985  35.7480812  47.8306198  42.5329285  37.0242004  46.7346382
  40.8246536  35.8581238  47.5486412  40.1419525  36.5033875  46.9957848
  41.0055199  34.5080376  46.8788490  41.0675354  33.4775391  47.5525742
  40.9451828  34.5423470  45.5106316  40.7969513  35.4266281  45.0456886
  40.9779510  33.2471466  44.7701683  40.2287178  32.5777168  45.1927948
  40.8316193  33.4481201  43.2712135  40.0320930  34.1669655  43.0919876
  41.6630249  34.0016136  42.8347321  40.5264511  32.2051735  42.4300232
  41.3466148  31.4889793  42.3800087  39.6390381  31.6964512  42.8065948
  40.2209625  32.6272278  41.0149307  41.1301575  32.9772835  40.3146286
  38.9682846  32.5611458  40.5422325  38.2088509  32.2484245  41.1300812
  38.8320961  32.9882431  39.6371689  42.2528725  32.3852081  44.9681778
  42.2416992  31.1989441  45.1122932  43.4128342  33.1103172  45.1738091
  43.3802261  34.1002007  44.9758911  44.7704506  32.5091629  45.3730354
  44.7882423  31.5456524  44.8636894  45.9171371  33.4256401  44.8609924
  46.8580933  32.8786278  44.9200630  45.6769371  33.4712105  43.7987671
  46.0931854  34.8257484  45.5482368  47.2706909  35.1991196  45.7094231
  45.1112709  35.4348679  46.0965424  45.0338249  32.1249809  46.8456383
  46.1851425  31.7927132  47.2467155  43.9855232  32.2643394  47.6592941
  43.0696869  32.5254822  47.3229179  43.8793640  32.1687546  49.0865479
  44.8160515  31.7263870  49.4257088  43.5909691  33.5096436  49.7821999
  42.6388397  33.9572182  49.4971962  43.6127968  33.2221985  50.8333893
  44.7817879  34.4936256  49.5918427  45.0093384  34.6534348  48.5379066
  44.3209877  35.3489685  50.0859718  46.0911331  34.0909119  50.2186928
  46.4602203  34.6353836  51.2672348  46.8121147  33.1323509  49.6630936
  46.5059242  32.8231087  48.7516594  47.7253189  32.9574242  50.0575180
  42.8809204  31.0820084  49.5838928  42.9528236  30.7862968  50.8002281
  42.0201530  30.4846706  48.7630463  41.8958931  30.6790104  47.7797394
  41.3221550  29.3284645  49.2288132  40.8175392  29.5843925  50.1604576
  40.1577492  28.9741421  48.1773643  40.5895882  28.8371830  47.1859741
  39.5786934  27.6438351  48.6566162  40.3339043  26.8860874  48.8653526
  39.0382881  27.6681709  49.6029091  38.9338303  27.2434235  47.8743629
  39.0343971  30.1042271  48.1307755  39.5534058  31.0600338  48.0589104
  38.4708290  29.9057941  47.2191200  38.1054993  30.1486683  49.3211632
  37.4210052  29.3013573  49.3614273  38.6946716  30.2588425  50.2315674
  37.4469948  30.9935322  49.1194649  42.2907219  28.2154179  49.4426956
  43.1574860  28.0104733  48.5931358  42.2052612  27.5945168  50.6276016
  41.5196381  27.9230423  51.2924995  42.9593163  26.3442802  50.9954681
  43.9319611  26.4027233  50.5069466  43.2205849  26.2373295  52.4405251
  42.2881660  26.3481464  52.9940681  43.7179070  25.2904186  52.6506081
  44.1591949  27.3951855  52.8459282  44.9837151  27.4363079  52.1341858
  43.6369133  28.3512383  52.8100739  44.6593781  27.1877975  54.2881393
  43.8747253  27.2348461  55.0432587  45.0338593  26.1647530  54.3234558
  45.6908875  28.2483463  54.5634346  45.5145416  29.1406307  54.1243095
  46.6527786  28.2027206  55.4936905  46.7817345  27.1554127  56.1978569
  47.3279228  27.2754536  57.0389137  46.0194893  26.4928074  56.2041779
  47.3812103  29.2096233  55.8433838  48.1841812  29.1430283  56.4524002
  47.2929039  30.0558376  55.2991180  42.2820473  25.0936279  50.2913094
  41.4048309  24.4371796  50.8450394  42.7770309  24.7750034  49.0826797
  43.6437416  25.2383461  48.8498116  42.3436203  23.4406281  48.5183105
  41.3314972  23.3163395  48.9033585  42.4103012  23.5644798  46.9896164
  43.4623146  23.7439728  46.7679100  42.2273178  22.5837898  46.5504494
  41.6752396  24.6982059  46.3142891  40.3230591  24.6840096  45.9295845
  40.0244370  25.8627148  45.4970055  39.0486183  26.1794357  45.1595650
  41.0704117  26.7029152  45.5986977  41.1770287  27.6507854  45.2666206
  42.1118584  25.9880390  46.0770226  43.1648483  26.2131939  46.1601753
  43.2172203  22.3954983  49.1575775  44.3637428  22.7570057  49.5517807
  42.8021393  21.1404572  49.4452934  41.8684769  20.9780502  49.0960159
  43.4908981  20.1958771  50.3024712  44.5489845  20.4573421  50.2886810
  43.0410118  20.1004639  51.7551804  42.0697365  19.6062088  51.7343102
  43.9682007  19.2390652  52.6125183  43.6357841  19.3280640  53.6467743
  43.7582359  18.2120724  52.3136864  45.0122795  19.5000134  52.4395828
  42.9477348  21.5039120  52.4476204  42.2964134  22.2094402  51.9317513
  42.5735092  21.4238911  53.4682350  43.9176941  22.0008526  52.4295654
  43.4235535  18.8216591  49.6468430  42.3473740  18.2379208  49.4517632
  44.5589027  18.2179832  49.3751068  45.4330673  18.6476479  49.6421700
  44.7264748  16.8722973  48.7397423  43.7197838  16.4927502  48.5647621
  45.4798660  16.9939594  47.4207649  46.3098946  17.6872921  47.5565491
  45.8456192  16.0536709  47.0082359  44.6513443  17.6253223  46.3723068
  44.2462234  18.9053440  46.5514641  44.6611633  19.5034943  47.3492355
  43.3970184  19.4839134  45.5668831  43.0519524  20.5024433  45.6665039
  43.0378151  18.7999020  44.3798180  42.3707428  19.4350338  43.4597855
  42.2492180  18.8699093  42.6933212  43.4529381  17.4588490  44.2476616
  43.1632080  16.8624897  43.3951302  44.3193283  16.8823948  45.2655640
  44.5949287  15.8388519  45.2273293  45.3944206  15.9350319  49.7586365
  46.3502350  16.3215466  50.3921127  44.8316994  14.7147198  49.9395027
  43.9598732  14.4646721  49.4950981  45.2941284  13.7273722  50.9447212
  46.1550369  14.1495152  51.4631195  44.2372131  13.4019070  52.1042290
  43.3264275  13.0067015  51.6543579  44.6322136  12.6371641  52.7729912
  43.8158798  14.5459852  53.0691643  43.2949905  15.3794918  52.5979500
  43.0856133  14.0586834  54.3502502  43.1512566  14.7461157  55.1935921
  42.0354156  13.8018713  54.2115707  43.4170799  13.0654783  54.6531944
  45.0995636  15.2274752  53.5583267  44.9642029  15.7344294  54.5137253
  45.8915329  14.4856348  53.6610756  45.4157982  15.9923401  52.8490486
  45.7508965  12.4366150  50.2714729  45.4649391  12.2216568  49.1110306
  46.4894981  11.6428337  51.0657501  46.7398033  11.9274845  52.0019226
  46.9141235  10.2497454  50.6718597  47.6388702   9.9043274  51.4091072
  45.7395935   9.2932043  50.6667213  45.0413513   9.5884056  49.8835106
  46.2379494   8.3690434  50.3740196  44.9145050   9.1519384  51.9430122
  44.6450005  10.1164818  52.3732719  44.0145111   8.5840054  51.7072906
  45.5881233   8.3322859  53.0220451  45.2862930   8.5409765  54.2068634
  46.4124641   7.4614954  52.6219368  47.8473091  10.2666521  49.4342766
  48.6739578  11.1900139  49.3234901  47.6438713   9.3224411  48.5070877
  46.9292870   8.6241884  48.6551132  48.4157410   9.2318172  47.2239571
  49.4211845   9.5461645  47.5039139  48.3823395   7.8898668  46.5937233
  47.3794746   7.5291929  46.3650856  48.9177780   8.0238409  45.6537971
  49.1926613   6.8125467  47.4020920  50.2411118   7.1048207  47.4606476
  48.6956749   6.7541914  48.3704414  49.0182533   5.4141517  46.8236084
  47.9682884   5.1478801  46.7020493  49.3786049   5.3642139  45.7961121
  49.6588058   4.2679420  47.5798225  50.7228279   4.4921865  47.5045090
  49.3028145   4.1975884  48.6076469  49.1888313   2.9518461  47.0221062
  49.6722641   2.2073035  47.5038261  48.1809883   2.9046555  47.0682678
  49.4325905   3.0231845  46.0445633  48.0600662  10.3336706  46.2815018
  48.7598457  10.7465553  45.3346291  46.8607750  10.9294147  46.4767838
  46.2600784  10.4198236  47.1089058  46.1717262  11.8639135  45.5558052
  45.9694061  11.2795963  44.6581726  44.8709373  12.2925539  46.1463242
  44.2182312  12.6829557  45.3655167  44.3319359  11.4395018  46.5584984
  45.1072617  13.1161900  46.8200302  47.0047760  13.1761379  45.3155060
  46.9379425  13.8160667  44.2181473  47.9874573  13.5610504  46.1190071
  48.0753136  13.0135841  46.9632034  48.9761620  14.6757765  45.9635582
  48.3314209  15.5484295  46.0678825  49.8949013  14.6636858  47.1954002
  50.4562187  15.5912027  47.0825386  49.1027641  14.7202673  48.4900017
  48.8446884  13.7319260  48.8703613  49.7273178  15.3182449  49.1536713
  48.1710281  15.2690926  48.3530426  50.7822495  13.3812790  47.2246895
  50.2563095  12.5131207  47.6219139  51.3015709  13.1299543  46.2998962
  51.6787453  13.6416216  47.7873802  49.6725883  14.6419115  44.6131401
  50.1811409  15.6967859  44.1890869  49.6442757  13.5561037  43.8039436
  49.1789284  12.6973581  44.0610580  50.3133316  13.5788412  42.4624290
  51.2633629  14.1063147  42.5479469  50.4499321  12.1169176  41.8671913
  50.7963333  11.4569483  42.6625214  49.0980797  11.5574379  41.4592285
  48.2807961  11.6445961  42.1751480  48.8541870  11.9827662  40.4857216
  49.3180122  10.5015774  41.3014526  51.3194809  12.1196861  40.5868378
  50.9488525  12.8811607  39.9006157  52.2866516  12.5014963  40.9137955
  51.5012856  11.1237469  40.1829185  49.5363121  14.5521383  41.5242157
  50.0742798  14.9910955  40.5038605  48.1747169  14.7452545  41.7584496
  47.8983803  14.3344364  42.6387711  47.1762581  15.5588360  41.0070953
  47.2948494  15.2076521  39.9820595  45.7686272  15.4027815  41.6150246
  45.8892670  15.6194849  42.6764297  45.0899849  16.0703640  41.0840988
  45.1299553  14.0333490  41.5180130  45.8230400  13.3225832  41.9680710
  43.7339211  13.9643536  42.1342125  42.9581757  14.3326645  41.4628983
  43.5267410  12.9168863  42.3532753  43.6647911  14.5417042  43.0561562
  45.1399078  13.6215248  40.0072975  46.1613922  13.5093384  39.6438560
  44.5789871  12.6966743  39.8726883  44.5662956  14.3934822  39.4943123
  47.5773926  17.0250587  41.1204758  47.2065201  17.8141136  40.2625656
  48.2267036  17.4726715  42.1928787  48.6625671  16.8228912  42.8315582
  48.4073639  18.9011135  42.4187012  48.1429100  19.4226856  41.4988518
  47.5773430  19.5789433  43.5856361  47.8718185  19.0464382  44.4899712
  47.8519554  20.6306515  43.6668472  46.0962219  19.4616470  43.2861252
  45.9096603  18.3883362  43.3221779  45.6304550  19.9584141  44.1372375
  45.6272583  20.1939125  41.9898071  46.1559372  19.7609558  41.1406021
  44.5832367  19.9157276  41.8457909  45.8808784  21.6117458  42.0633354
  46.7928162  21.9286232  41.7665863  45.0209236  22.5101032  42.5766945
  43.8352051  22.1528320  42.8622551  43.1400871  22.8043003  43.1976662
  43.5800552  21.2073021  42.6153183  45.3485794  23.7250729  42.6897812
  44.7486992  24.4110641  43.1252823  46.2581177  24.0998669  42.4609413
  49.8712883  19.4651394  42.5320168  50.2688332  19.8506584  43.6286049
  50.6687927  19.4311619  41.4254684  50.2961121  18.9890862  40.1138802
  49.4523773  19.5902328  39.7750092  50.2808380  17.9002647  40.1621933
  51.5037537  19.2970886  39.2388916  51.4071236  20.3060284  38.8378868
  51.6574516  18.6016941  38.4137230  52.7235222  19.3670826  40.0964279
  53.4462509  20.0972080  39.7321777  53.1916428  18.3935699  40.2421684
  52.1092644  19.8249683  41.4505463  52.5422287  19.2852554  42.2927780
  52.2927094  21.3792362  41.6050682  53.4240990  21.7087116  41.9249763
  51.2478104  22.2035580  41.5139465  50.4142342  21.8321400  41.0811729
  51.1644821  23.6566696  41.6960106  52.1011391  24.1684608  41.4749985
  49.9524231  24.2007008  40.8610458  50.0343895  25.2738705  41.0333481
  50.1133995  23.9601612  39.8101768  48.6326714  23.5099049  41.3039398
  48.5248795  22.2957497  41.2403717  47.8256035  24.2394695  41.8461647
  50.8715401  24.1196861  43.1552544  51.4210014  25.1279411  43.5683327
  50.2370415  23.2843590  43.9987335  49.8161316  22.4607162  43.5930901
  50.3512230  23.3607216  45.4721146  50.4531250  24.4240932  45.6888046
  49.0873795  22.7137051  46.1932755  49.1439514  21.7020969  45.7913437
  49.2647018  22.8237095  47.2631149  47.7501373  23.4244194  45.9117393
  47.6851883  23.6703644  44.8518372  46.5633965  22.5442886  46.4140701
  45.5946465  23.0436211  46.4312973  46.4442215  21.6111660  45.8634529
  46.7608681  22.2683163  47.4498978  47.5367165  24.7832413  46.5618553
  46.5234222  25.1662674  46.4409485  47.8594818  24.5348015  47.5728951
  48.1848526  25.5192013  46.0860558  51.6198387  22.7374954  45.9658699
  51.6782913  22.0457726  46.9997215  52.6861076  23.0949650  45.1971092
  52.6222305  23.6147652  44.3334961  54.0494385  22.6741066  45.6194763
  54.2729301  22.9402866  46.6525841  54.2948341  21.1885643  45.5339851
  53.4698906  20.7202377  46.0708618  54.3253937  20.8715801  44.4915428
  55.4950485  20.7513790  46.1167297  55.3485718  20.7180195  47.0649033
  55.1719971  23.4123878  44.8999290  54.8449287  24.1172848  43.9245415
  56.4181519  23.2334232  45.2695503  56.6290436  22.6357174  46.0559158
  57.6167259  23.8640327  44.7087479  58.3524895  23.7485943  45.5046272
  58.0999603  23.0331917  43.5270386  57.3690910  23.3007259  42.7639160
  59.0458870  23.4166107  43.1445389  58.1582680  21.4744358  43.5861397
  57.2999268  20.9815121  44.0426178  58.2208214  20.9507084  42.0999413
  58.5630951  19.9162998  42.0691490  57.2467575  21.1787376  41.6671600
  59.0100365  21.4392414  41.5284653  59.4065285  21.1863041  44.3634720
  60.2247963  21.8683720  44.1325645  59.1483688  21.3191624  45.4140930
  59.7305832  20.1538124  44.2329140  57.5174980  25.4264984  44.4467468
  57.7109528  25.9017448  43.3379478  56.9859428  26.2211723  45.3479729
  57.0174789  25.7938881  46.2625923  56.6082878  27.6297550  45.2864876
  57.3637238  28.1346359  44.6843910  55.2387848  27.8166332  44.6459885
  55.1794319  27.4450512  43.6229935  54.2160301  27.0866928  45.4598122
  54.1981812  27.5178089  46.4607697  53.1983719  27.1041241  45.0697250
  54.4844437  26.0350761  45.5606003  54.8237228  29.1489105  44.6983719
  54.5651054  29.3747540  43.8018723  56.6307831  28.3172932  46.7186813
  56.4284859  27.6897964  47.7483482  56.9391594  29.6330853  46.7660370
  57.2275581  30.1634846  45.9563446  56.9937630  30.3780766  48.0270920
  57.4883003  29.7222633  48.7436485  57.8754501  31.6241608  47.9174843
  57.7056122  32.0083389  46.9116707  57.6846886  32.3749237  48.6843376
  59.2876740  31.2817268  48.1016922  59.4442635  31.0443687  49.1539459
  59.7402992  30.5241566  47.4619141  60.1094131  32.5847969  48.0027924
  59.8662949  33.3170700  48.7727127  61.1519470  32.4246597  48.2777176
  60.0913963  33.1824493  46.5891380  60.4791603  32.4286308  45.9039421
  59.0669212  33.1872826  46.2169380  60.7654266  34.4999428  46.4547997
  60.4957619  35.0656204  47.2468796  61.7751465  34.5024567  46.4786682
  60.4263039  35.0142708  45.6544495  55.5718155  30.6223450  48.5492020
  55.4705124  31.4299355  49.5359306  54.4404335  30.0080566  48.0740623
  54.6156731  29.5578136  47.1871185  53.0578079  30.2373962  48.5755730
  52.7867737  31.2875271  48.4666405  52.1155472  29.4376698  47.7236900
  52.3121490  29.7757378  46.7062645  52.3208580  28.3672466  47.7356110
  50.6052589  29.6054745  48.0928345  50.2641525  30.3656540  48.9941063
  49.6555328  29.0974655  47.2920609  49.9075165  28.5861340  46.4583015
  48.6747017  29.1675739  47.5226059  52.8864517  29.9608498  50.1154938
  53.1913605  28.8877563  50.6102219  52.4548836  31.0026264  50.8137703
  52.0569572  31.7615643  50.2791939  52.3360367  31.0270748  52.2927856
  53.2775497  30.6585846  52.7000580  51.9497910  32.4926834  52.6926804
  51.8576622  32.4298820  53.7769623  52.9683228  33.5571709  52.3896866
  52.7882500  33.9771118  51.4000816  52.8125801  34.4390907  53.0110245
  54.0178146  33.2633591  52.3712959  50.7590141  32.8321114  52.0207710
  50.0307846  32.7338715  52.6385345  51.1622505  30.1330738  52.8806267
  51.1424675  29.9571762  54.0889740  50.2787552  29.5130596  52.0682755
  50.2679672  29.7294369  51.0817833  49.1438675  28.7462463  52.5314217
  48.8515663  29.0909710  53.5233040  47.9991531  28.9569016  51.5160866
  48.3287010  28.7207718  50.5042839  47.0837746  28.5074520  51.9010162
  47.7106628  30.5123291  51.4437828  48.5413017  31.0486088  50.9849281
  46.9129639  30.5817776  50.7042160  47.4500389  31.2041950  52.7652512
  48.2750778  32.0271568  53.1871262  46.5399780  30.7602596  53.5865135
  49.3915215  27.2612648  52.7726746  48.6037712  26.6404610  53.5392036
  50.4284706  26.7099495  52.0779305  50.9496765  27.3108749  51.4555664
  50.7915916  25.2700920  52.0714722  49.8401489  24.7787819  51.8678207
  51.8478470  25.0872231  50.9294815  52.7788391  25.6273937  51.1014214
  52.0259399  24.0119114  50.9199829  51.4508018  25.3834209  49.4057007
  51.4879608  26.4498062  49.1831169  52.5530167  24.8052521  48.5139046
  52.6523933  23.7489777  48.7639122  52.2906075  24.8547974  47.4571228
  53.5036850  25.2312241  48.8346634  50.1209984  24.7290154  48.9981689
  49.9502869  24.8716316  47.9311028  50.2196465  23.6514168  49.1291199
  49.2567825  25.0340233  49.5882530  51.4093285  24.7275467  53.4433212
  50.8819122  23.7901459  54.0458374  52.4059296  25.4729233  53.8263931
  20.0635815  37.2873077  53.2373695  19.1383533  37.6665573  53.3795891
  20.0742626  36.4491768  53.8008652  20.8337688  37.8949165  53.4776268
  20.1520214  36.8996582  51.8079224  19.3389530  36.1862984  51.6732483
  19.8935566  38.0153236  50.8744507  18.9533882  38.5433197  51.0338440
  20.6115742  38.8030205  51.1026649  20.0591736  37.6613464  49.4200401
  20.1801815  38.5157433  48.7541122  20.9245052  37.0111923  49.2911949
  18.6657143  36.6735420  48.7860146  17.2752037  37.8535881  48.7997360
  17.3784504  38.5617867  47.9776039  16.2923985  37.3839111  48.7597961
  17.3402786  38.4384575  49.7172356  21.4592075  36.2270241  51.4913445
  22.5300331  36.6743546  51.8849068  21.4018688  35.0767746  50.8075867
  20.4968300  34.6634254  50.6339569  22.5885201  34.3629570  50.3036842
  23.3658333  35.0429192  49.9550591  23.1970043  33.6826630  51.5511246
  23.5334549  34.4827576  52.2104836  22.4328747  33.0448036  51.9953575
  24.2785244  32.5670662  51.2623978  23.7421513  31.7043247  50.8673286
  24.9172211  32.8528671  50.4266434  25.2837200  32.0448036  52.6849670
  25.8125801  30.4457779  51.9809074  26.5716019  30.0234966  52.6394386
  24.9642715  29.7613411  51.9761467  26.3901310  30.5529404  51.0627289
  22.2528610  33.3410225  49.2363167  21.1398392  32.7594490  49.2271309
  23.1884365  33.0176430  48.3598213  24.0600491  33.5179558  48.4602356
  23.0729942  31.9352112  47.3748474  22.0603828  32.0995979  47.0064812
  24.1080379  32.1136932  46.3214264  25.0545044  32.0368042  46.8565826
  24.0158958  31.0017719  45.2857971  22.9658394  30.8043289  45.0701447
  24.4806423  31.3938522  44.3811493  24.6197948  30.1925659  45.6963997
  24.0652637  33.4785767  45.6740417  23.2105064  33.6384048  45.0168152
  24.0312500  34.2685890  46.4242554  25.3167782  33.7437935  44.8625031
  25.4992981  34.8086815  44.7182884  26.1493912  33.3595428  45.4517441
  25.3920517  33.1903648  43.9264679  23.1433640  30.5210323  48.0225220
  24.0606785  30.2950134  48.8123627  22.1956520  29.6169090  47.8330650
  21.4729424  29.8334675  47.1615791  22.1546631  28.2428780  48.4176903
  23.1371307  28.0383129  48.8431435  21.1888485  28.3149490  49.6274872
  20.2004108  28.6232605  49.2868462  21.0548382  27.3264103  50.0667305
  21.7089939  29.1756725  50.7673149  22.6996746  28.7645226  50.9612465
  21.7870045  30.2095737  50.4310684  20.9339752  29.2403412  52.1166687
  19.9289894  29.6455784  51.9988251  20.8088245  28.2122917  52.4566116
  21.6714134  30.0828476  53.1302834  21.1953106  30.9292221  53.4079056
  22.6543961  29.6483746  53.8388367  23.3159885  28.5438919  53.6974144
  23.9624920  28.2854366  54.4290810  23.0399685  27.8952618  52.9740944
  23.0807037  30.3784866  54.7720070  22.7343731  31.2934303  55.0230751
  23.9654198  30.0727005  55.1513138  21.7978840  27.1242867  47.4055634
  21.4825592  27.5059776  46.2590942  22.0285149  25.8504486  47.7542877
  22.3317108  25.6204681  48.6898537  21.5730515  24.7815952  46.9239235
  21.6288109  25.1233921  45.8904037  22.1645927  23.8664532  46.9502945
  20.1091938  24.4742737  47.2423286  19.8054276  24.3372288  48.4088287
  19.2356129  24.0955486  46.2849884  19.5319347  24.1871490  45.3237877
  17.9898949  23.4325581  46.4175224  17.8756886  23.0839863  47.4439507
  16.7338371  24.3292809  46.0904312  16.4958172  24.4658794  45.0355415
  15.5463600  23.7339725  46.8751526  15.7558918  23.7641068  47.9443970
  14.5601587  24.1185169  46.6150856  15.4374132  22.7107010  46.5157814
  16.8546257  25.8615456  46.3954735  17.5059433  26.0140095  47.2560768
  17.4668770  26.2533245  45.5832176  15.5792513  26.7262592  46.5860023
  15.0814848  26.4084721  47.5021553  15.8191643  27.7777271  46.7439919
  14.8927488  26.5568333  45.7564774  17.9012947  22.0152626  45.7011261
  18.4026909  21.9024220  44.5599365  17.3229103  21.0063438  46.2886887
  17.0193348  21.1345806  47.2434120  17.2591171  19.6136322  45.8017960
  17.7427540  19.6131992  44.8249664  18.1122704  18.7423668  46.7677231
  17.7192211  18.5624199  47.7683372  18.1726494  17.7195415  46.3958473
  19.5972595  19.1406975  46.8123932  19.8946686  19.3021488  45.7762566
  19.5758152  19.9904270  47.4947472  20.5765381  18.1125927  47.5479622
  21.5936775  18.5039101  47.5680161  20.2406387  17.9780140  48.5761452
  20.5794392  16.9164314  46.7849693  20.6058559  16.9811001  45.7773895
  20.4901962  15.7029486  47.3099594  20.4391575  15.3867006  48.6016045
  20.6703110  16.0857143  49.2930222  20.2574177  14.4347420  48.8859406
  20.2858772  14.6418667  46.5635338  20.0553932  14.8055925  45.5939102
  20.1006985  13.7473984  46.9945068  15.8858871  18.9319572  45.4855957
  14.8956900  19.3110657  46.1620483  15.9600220  17.8677082  44.7422333
  16.8627911  17.6401100  44.3506851  14.9626408  16.8241158  44.8520164
  14.9046488  16.6023235  45.9176369  14.0169621  17.2689705  44.5423470
  15.2530937  15.5848150  43.9019241  16.3054180  15.4401884  43.2697144
  14.4594584  14.5713902  44.0863724  13.8409557  14.5572023  44.8847160
  14.7143936  13.2564058  43.3812675  15.1478233  13.4317150  42.3966293
  15.7327538  12.3677187  44.1032143  16.1023808  11.5465527  43.4890785
  16.6006050  12.9616795  44.3898354  15.1909857  11.9356785  44.9445992
  13.3996029  12.4508295  43.1003876  12.3825121  12.6323080  43.7464409
  13.5835028  11.5567818  42.1119652  14.4257917  11.5500898  41.5546455
  12.4586916  10.8187923  41.4452400  11.8454018  10.4877367  42.2833214
  11.5860739  11.6657515  40.5618553  11.5517168  12.6537027  41.0210648
  12.0799541  11.9168987  39.1923904  11.8071814  12.9215727  38.8693962
  13.1686506  11.8649111  39.1806679  11.7903395  11.1991739  38.4248619
  10.3285341  11.1776381  40.4674644   9.7824078  11.9609365  40.3685226
  12.8994818   9.6087847  40.6528511  14.1132927   9.4046211  40.4248581
  12.0405045   8.6847639  40.4384537  11.0743179   8.8686028  40.6682205
  12.3120918   7.3625488  39.8315086  13.3029175   7.4197612  39.3808556
  12.2976131   6.2781458  40.8290253  12.1477242   5.2946925  40.3835411
  13.5046768   6.0909152  41.7257233  14.3560648   5.9390535  41.0622635
  13.6614723   7.0260210  42.2633972  13.4469280   5.2624102  42.4316559
  11.1859341   6.2804031  41.7472610  10.5418158   5.7117939  41.3190155
  11.3089495   7.1079302  38.6941833  10.1686459   7.5379806  38.7115631
  11.7073364   6.3680763  37.7020607  12.6676865   6.0554028  37.7100868
  10.7753563   5.7824345  36.7325287   9.7362919   6.1051936  36.7978973
  11.2532997   6.0909686  35.3113022  10.6110363   5.5863228  34.5895462
  10.8796415   7.5767870  35.1175461   9.8047142   7.7448034  35.0512085
  11.1712475   8.1680374  35.9855843  11.2706470   8.0793781  34.2328911
  12.7600670   5.9357333  35.1070442  13.2814169   6.6438856  35.7511024
  13.1237669   4.9487414  35.3928223  13.0245800   6.0649328  34.0575523
  10.7694712   4.1952934  36.7555428  11.6995602   3.5692029  37.2883606
   9.6780634   3.5538840  36.4492798   8.8532562   4.0476389  36.1394424
   9.5675869   2.0762181  36.4014778  10.0732374   1.7757121  37.3191452
   8.0836105   1.5985485  36.5821991   7.4542766   2.0229766  35.7999573
   8.1780081   0.5131730  36.5482979   7.5047965   2.0047057  37.9316826
   7.4605579   3.0890155  38.0337410   6.4334822   1.8087248  37.8872147
   8.0969439   1.3330344  39.1691055   7.6266150   0.2187213  39.6031113
   9.1245995   1.8633183  39.6543694  10.4540615   1.4971780  35.2934761
  11.0789137   0.5138478  35.4866142  10.5566645   2.1643603  34.1153603
   9.9819880   2.9898260  34.0234184  11.2433882   1.7074957  32.8761597
  11.9033575   0.9158500  33.2308960  10.2259655   1.1358705  31.8298569
   9.6131477   1.9111243  31.3699245  10.8185072   0.6852176  31.0336742
   9.1643887   0.1903467  32.3444366   9.5062027  -0.4232850  33.1779366
   8.3392267   0.7338872  32.8046227   8.6041269  -0.6823836  31.2090988
   7.6315684  -1.0803009  31.4987411   8.3339300  -0.0236922  30.3837395
   9.5024405  -1.7465388  30.7372952  10.4866676  -1.7373526  30.9638271
   9.1773958  -2.6860883  29.8830528   8.0052290  -2.7474031  29.3324776
   7.2963171  -2.0743883  29.5866356   7.8336673  -3.5063417  28.6885223
  10.0384617  -3.6014245  29.5826836  10.9487095  -3.5517356  30.0175209
   9.7898378  -4.2925935  28.8894501  11.9183369   2.8761983  32.1921959
  11.4570704   3.9960523  32.1636162  13.0510035   2.4982288  31.5283947
  13.2657213   1.5280056  31.7091236  13.7625341   3.4331298  30.6391582
  13.7698526   4.3997812  31.1427822  15.0981483   2.8697433  30.3065414
  15.5991936   2.6114724  31.2394657  14.9568834   1.9577197  29.7265759
  16.0021877   3.7491965  29.4049683  15.8583517   4.9975815  29.2777443
  16.9993324   3.2061751  28.8608456  13.0137644   3.7162480  29.3586178
  12.9390373   2.7973676  28.4956512  12.5569868   4.9749312  29.1931458
  12.5927906   5.5494614  30.0230446  12.0235300   5.6047163  27.9521294
  12.6199455   5.4093704  27.0609322  10.6384449   4.9954982  27.6051884
  10.7956161   3.9248881  27.4740734   9.4778337   5.2261600  28.5559807
   9.1231451   6.2560997  28.5169849   8.5755310   4.6677742  28.3066540
   9.7089624   4.8355489  29.5469933  10.2542315   5.4808340  26.2875481
  10.9997358   5.4194722  25.6858349  11.9558973   7.1326838  28.1176491
  11.6098537   7.5929713  29.1450081  12.2267542   7.9773116  27.0933475
  12.5841341   7.5830045  26.2349186  12.1216688   9.4586143  27.1357327
  12.6174669   9.7086487  28.0736904  12.7779818  10.0716515  25.8190269
  13.1221008  11.1017437  25.9117260  13.6492300   9.4415789  25.6400394
  11.7950726  10.0484076  24.5838108  10.8041630  10.2530022  24.9892025
  12.0468569  10.9030590  23.9558964  11.6725082   8.6938171  23.8837700
  11.1625128   8.7667675  22.7496681  12.1021833   7.6753759  24.3733444
  10.7467604  10.0315046  27.4390221  10.7378492  11.0979996  27.9087238
   9.6675434   9.1956196  27.3046684   9.7170248   8.3217945  26.8006039
   8.3310080   9.5416002  27.8059368   8.0543613  10.4187860  27.2210331
   7.3775954   8.4847403  27.5393009   7.7423124   7.5439587  27.9516258
   6.5455079   8.7107677  28.2061176   6.9292474   8.2912769  26.0172539
   7.8367133   8.1786518  25.4240246   6.4624510   7.3143058  25.8918400
   6.0612073   9.3637247  25.3473911   6.3997436  10.5522499  25.3614483
   5.1087136   8.9956779  24.6420612   8.4336758   9.8716125  29.3015537
   7.9143076  10.8502645  29.8141594   9.0638924   8.9760303  30.1026878
   9.7072105   8.3491488  29.6408863   8.8571873   8.9916687  31.5734158
   7.9502068   9.5495787  31.8062706   8.5558586   7.6122227  32.1163864
   9.4340935   6.9915080  31.9388599   8.3142433   7.5690827  33.1783981
   7.3787727   6.9063754  31.4238605   7.5910926   6.6326122  30.3903847
   7.2659492   5.9010849  31.8297710   6.0619369   7.5755019  31.6293163
   5.7809286   8.1596155  32.6899567   5.2129760   7.4226518  30.7156086
  10.0033932   9.6929770  32.2933693   9.9070454  10.0646448  33.4302597
  11.2338705   9.7554598  31.7348061  11.2731619   9.4622889  30.7690907
  12.3478689  10.5116472  32.3440704  12.4625006  10.4225388  33.4243584
  13.7046757  10.1421661  31.7147102  13.6024380  10.0292397  30.6354065
  14.8491621  11.1596117  31.9632320  15.7013350  10.6667023  31.4953136
  14.6719513  12.0787325  31.4047394  14.9257679  11.2488537  33.0468674
  14.1206818   8.7404842  32.3414955  15.2078724   8.6938181  32.2787361
  13.9319096   8.5859852  33.4038467  13.5617628   7.4806633  31.6587009
  14.1487236   6.6384687  32.0251579  12.4944000   7.3476267  31.8351593
  13.6824741   7.4922552  30.5754681  12.0788250  12.0359926  32.2317543
  12.3111477  12.7827282  33.1720810  11.4765587  12.4512272  31.1547089
  11.0943241  11.8074169  30.4768391  11.0920439  13.8468657  30.9995441
  11.9569559  14.3235760  31.4608212  11.0615997  14.2752943  29.5558071
  10.0874767  14.0567350  29.1182957  10.9559622  15.3546486  29.6650543
  12.2831297  13.9313593  28.6698341  12.2489929  12.8939791  28.3370037
  12.2923489  14.9008732  27.5027256  13.1215496  14.8189268  26.8000088
  11.3791475  14.6856089  26.9479046  12.4576855  15.9426117  27.7775803
  13.6363745  14.1935129  29.3278828  14.3944893  13.7185326  28.7051907
  13.8438864  15.2581711  29.4353237  13.5748568  13.7281990  30.3116493
   9.8810377  14.3350401  31.8381252   9.9934034  15.2378349  32.6141357
   8.7401581  13.6262474  31.8002396   8.5663700  12.9817200  31.0422897
   7.6224151  13.9550762  32.5872612   7.3009524  14.9816694  32.4115715
   6.3792415  13.0977268  32.2178345   6.0589452  13.3248825  31.2010193
   6.6016235  12.0308504  32.1972046   5.0923233  13.3278666  33.0880547
   5.2399726  13.1758299  34.1572533   4.7950959  14.3668480  32.9456711
   4.0007319  12.3526173  32.6066208   4.2172976  11.2200623  32.3575668
   2.7274733  12.7846870  32.5500565   2.4178488  13.7381334  32.6732407
   2.1283202  12.1408596  32.0534668   7.9545579  13.9275942  34.0705070
   7.6562648  14.9100113  34.7774124   8.5179949  12.8018122  34.5464592
   8.7526407  12.0700006  33.8911018   8.8328409  12.7461586  36.0267105
   7.9178672  12.8350430  36.6123924   9.4713278  11.4182510  36.4135323
  10.3835630  11.2553215  35.8396149   9.6797237  11.4561529  37.4827538
   8.4589243  10.2191744  36.3020706   8.0264130  10.0975285  35.3089790
   8.9865875   9.2874575  36.5059967   7.3586907  10.3155890  37.4300575
   7.8274522  10.6418982  38.3584366   6.6555176  11.0954943  37.1378326
   6.7280045   9.0198402  37.6743813   7.2205997   8.1755953  37.1919899
   6.6556001   8.9387980  38.7589531   5.3972917   9.0788002  37.1277161
   5.3066654   9.3234396  36.1519890   4.9834576   8.1648121  37.2437859
   4.9324026   9.7692862  37.6997375   9.8348169  13.8251982  36.3929749
   9.6107454  14.4918947  37.3894882  10.8649492  14.1391640  35.5845795
  10.8385534  13.8559380  34.6154633  11.8180847  15.1165171  36.0254784
  12.0501699  14.9768095  37.0812798  13.0256786  15.1781559  35.1416931
  12.7465210  15.4313107  34.1189117  14.1218834  16.2484570  35.3499489
  13.8132124  17.2416801  35.0238609  14.4670630  16.3115444  36.3819237
  14.9062948  16.0294113  34.6255035  13.6468525  13.9209728  35.1032829
  13.2017508  13.2802591  34.5438423  11.1568775  16.4935875  36.0022125
  11.3422594  17.2674084  36.9025917  10.4275198  16.8408928  34.9231644
  10.4793816  16.1366940  34.2010040   9.6151600  18.0728378  34.8057747
  10.3220520  18.9024029  34.7906151   8.7769718  17.9917278  33.4726868
   9.4415827  17.8125057  32.6275406   8.0439301  17.1884880  33.5472298
   7.9165602  19.1971569  33.1087151   6.9759402  19.2815819  33.6529617
   8.5799847  20.0606346  33.1574936   7.5059857  19.1400757  31.5823040
   7.0606303  20.0473232  31.1740646   8.3066959  18.7543488  30.9512901
   6.4818239  18.0704041  31.3638973   6.6309643  17.1525497  31.9325809
   5.5361781  18.5610085  31.5944672   6.1759691  17.7760925  29.9464798
   6.9915886  17.4463062  29.4503899   5.4417834  17.0824947  29.9451103
   5.8312602  18.5933247  29.4633598   8.6955023  18.1816711  36.0640717
   8.7178707  19.2472801  36.6707802   7.8947730  17.1701717  36.3916016
   7.9098072  16.3046169  35.8713226   6.9778795  17.3296547  37.4854355
   6.3044972  18.1848717  37.4283218   6.0968628  15.9891634  37.5922165
   6.7022920  15.0865364  37.5096359   5.6081915  15.9805450  38.5665016
   4.9457297  15.9355726  36.5352974   4.4827151  16.9223385  36.5385017
   5.3724546  15.6808357  35.5651817   4.0469847  14.7404490  36.7341690
   4.4583573  13.7482939  37.1824417   2.8474693  14.8640165  36.3908463
   2.5429549  15.7658997  36.0532303   2.2465508  14.0635996  36.2554626
   7.6760683  17.5011482  38.8146019   7.1893339  18.2600269  39.6723900
   8.8904314  16.9987106  38.9498596   9.1669378  16.3832455  38.1982994
   9.7353878  17.0703125  40.1851768   9.1371660  16.7860394  41.0508652
  10.9259872  16.1665154  40.0841560  10.4846420  15.1849260  39.9115410
  11.4531612  16.4072781  39.1609955  11.9769688  16.1956387  41.2602577
  12.3541517  17.2050934  41.4240646  11.3642616  15.6639347  42.4459229
  10.9498243  14.6607189  42.3464317  12.1052761  15.7469292  43.2409744
  10.6625767  16.3638363  42.8996582  13.1104841  15.2679596  40.7762833
  13.8899851  15.2031145  41.5354118  12.8233852  14.2205095  40.6839714
  13.5070038  15.4644642  39.7801628  10.2345552  18.4889259  40.4420280
  10.0467052  19.0867710  41.4493752  10.8491440  19.0565281  39.3757820
  10.9209385  18.4620380  38.5624390  11.1816988  20.4645996  39.2719727
  11.9408455  20.6274548  40.0370026  11.6609535  20.8576851  37.9253006
  10.9169903  20.3874474  37.2822647  11.7067451  21.9453087  37.8698311
  13.1660318  20.4638386  37.6472855  13.2912350  19.4079914  37.8873100
  13.5219870  20.6844368  36.1761436  13.5239820  21.7228222  35.8447037
  14.5092030  20.2414436  36.0447578  12.7583828  20.1517868  35.6093063
  14.2038078  21.2817307  38.3547897  15.2098351  20.8999672  38.1808395
  14.1069317  22.3431606  38.1265717  14.1220551  21.0967941  39.4258728
   9.9535179  21.3171997  39.5566139   9.8844404  22.1491547  40.4707642
   8.8545322  21.1876526  38.7870560   8.8656654  20.5361500  38.0153580
   7.6138687  21.9083080  38.9820976   7.8843513  22.9401360  38.7578850
   6.4310317  21.4110947  38.0931892   6.4707656  20.3234177  38.0342026
   5.5233927  21.7236557  38.6095238   6.4627314  21.9801254  36.6588058
   7.5394988  22.1183224  36.5609474   6.1615653  21.2904835  35.8702660
   5.7527294  23.3538284  36.5381622   5.5194101  24.1899452  37.4614792
   5.3390417  23.5864124  35.3716431   7.0967455  21.9495621  40.4791718
   6.4347043  22.9276772  40.9482956   7.3638911  20.9205647  41.2421455
   7.7936206  20.0819492  40.8786125   6.9755321  20.7847614  42.7027512
   6.0715604  21.3795795  42.8336143   6.7426672  19.3020878  43.0559006
   7.5403409  18.6697731  42.6660347   6.6965456  19.2509060  44.1437225
   5.3261132  18.9730854  42.5861473   4.5920429  19.6066513  43.0839806
   5.1925154  19.2953682  41.5534821   5.0053258  17.4674225  42.7353668
   5.7358375  16.8615780  42.1992607   5.0066428  17.2954979  43.8117218
   3.5120046  17.2630768  42.3240280   2.9705553  17.9699841  42.9526939
   3.3839908  17.4651413  41.2605972   3.0999904  15.8469505  42.5840874
   3.2561002  15.6051760  43.5522194   2.1449699  15.7148867  42.2830887
   3.6130557  15.3204393  41.8915215   8.1013508  21.2441311  43.6814842
   7.7905846  21.8832340  44.6872177   9.3950977  21.0764809  43.2989769
   9.5891666  20.6281471  42.4149895  10.4948759  21.7619438  43.9939384
  10.5891695  21.4618053  45.0375481  11.9093065  21.5119305  43.3363190
  11.8457184  21.7344246  42.2711678  13.0549393  22.4782162  43.8445892
  13.2143211  22.2794571  44.9043961  13.9677315  22.2961254  43.2773514
  12.7253799  23.5169201  43.8690567  12.3118181  20.0056190  43.5794182
  12.5425224  19.8246002  44.6292305  11.5093670  19.3647480  43.2140999
  13.4799967  19.6518517  42.6625786  13.6492538  18.5759277  42.7054520
  13.1716070  19.8690319  41.6399193  14.4368086  20.1552849  42.8010254
  10.1942692  23.2723236  44.0503654  10.4732714  23.9410591  45.0515785
   9.7398567  23.8795528  42.9365654   9.4772654  23.2753277  42.1710205
   9.5792646  25.2967167  42.7415047  10.4561024  25.8871975  43.0071983
   9.3287935  25.4811935  41.2371216   8.5627098  24.7656059  40.9385414
   8.8590469  26.8936958  40.9285698   8.6873798  26.9756241  39.8552933
   7.9253168  27.2263374  41.3819962   9.5525665  27.6420097  41.3121796
  10.6925192  25.1638584  40.4311752  11.3181820  26.0144749  40.7015419
  11.2776890  24.3525238  40.8640862  10.5397797  25.0006866  39.0030937
  11.4638796  24.7303619  38.4921532   9.7487822  24.3311996  38.6651421
  10.3055944  25.9914989  38.6137962   8.4849081  25.8629951  43.6798439
   8.6800508  26.8763962  44.3644485   7.3780308  25.0923786  43.5767632
   7.4492707  24.2944221  42.9617081   6.1027346  25.4353638  44.2028809
   5.8190913  26.3824883  43.7439651   5.1047668  24.2988510  43.9942703
   5.3794384  23.9538803  42.9974518   5.3290977  23.5103683  44.7126503
   3.6347208  24.7056484  44.1968727   3.0788579  23.7749825  44.0829506
   3.5250731  25.0839138  45.2132378   3.1600296  25.7943192  43.2649994
   3.1213188  25.5279789  42.0114632   2.9554560  26.9630108  43.7596092
   6.3172617  25.5799713  45.6962509   5.7805290  26.5076313  46.3771935
   7.2189221  24.8387394  46.3068123   7.4188185  23.9268818  45.9212418
   7.5153732  24.9511929  47.7718811   6.5942392  25.2549973  48.2691917
   7.9597850  23.5447121  48.3836288   7.3414083  22.7257710  48.0161400
   8.9881334  23.3362942  48.0883942   7.7639728  23.5045815  49.8710022
   8.2735939  22.6318130  50.2792473   8.1552076  24.4188728  50.3172188
   6.2829151  23.3458614  50.3636513   6.1209302  23.2448769  51.6219788
   5.2921853  23.5808048  49.6284676   8.4427633  26.1305408  48.2011337
   8.0832329  26.8599129  49.1519623   9.5400877  26.2813282  47.4651566
   9.6868153  25.6856461  46.6628265  10.5632067  27.3177757  47.7373581
  10.5519114  27.5600395  48.8000336  11.9041233  26.7432880  47.1840363
  11.8185167  26.4387245  46.1409569  12.7762117  27.3812923  47.3272629
  12.2700396  25.4280338  47.9198036  12.7159967  25.3919086  49.0823860
  12.0318117  24.2714005  47.3389969  12.4716740  23.4810886  47.7884865
  11.4138136  24.0881157  46.5614471  10.2341557  28.7031136  47.0958977
  11.0252962  29.6112232  47.0885582   9.0313196  28.7569180  46.4689674
   8.4168072  27.9671974  46.3318024   8.5905447  29.9366627  45.7103806
   7.8410740  29.5155735  45.0402451   7.8213944  30.8960533  46.7073631
   8.6298761  31.3398552  47.2883072   7.2886858  31.7070217  46.2107239
   6.8466344  30.1307049  47.7284126   5.6853609  29.4369907  47.5105247
   5.2351270  29.4701233  46.6070366   5.1388144  29.1624088  48.7132111
   4.1792059  28.7159176  48.9281464   6.0628858  29.5464249  49.6808777
   5.8860779  29.7496548  50.6542931   7.1400104  30.0367775  49.0446625
   8.0257111  30.4901676  49.4646301   9.6290808  30.5164871  44.6766586
   9.6846466  31.7535114  44.5386887  10.4236488  29.6816406  43.9815292
  10.1727715  28.7033863  43.9681320  11.6181364  29.9867020  43.1576195
  12.2842684  30.6500797  43.7092590  12.2579021  28.5968533  42.9296608
  11.6255646  28.0517082  42.2288971  13.6405430  28.6078587  42.1797409
  13.5091934  28.9480000  41.1525345  14.1948929  29.3280754  42.7814713
  14.0691032  27.6118889  42.2914810  12.3356171  27.7338791  44.0445213
  12.8315287  28.2175674  44.7091408  11.2176056  30.6097717  41.8081856
  10.4977474  29.9225845  41.0991592  11.5955029  31.7472286  41.3605042
  12.0403461  32.3107376  42.0709076  11.4945536  32.2735977  39.9832382
  10.6500330  31.8800163  39.4175720  11.3155956  33.8351784  39.9836082
  12.1878567  34.1809845  40.5382957  11.2562551  34.2140045  38.9632797
   9.9657898  34.2729492  40.7480278   9.0919828  33.7313690  40.3857422
   9.9404316  33.8429565  41.7493095   9.6800566  35.8060036  40.7200241
   9.6933422  36.2047386  39.7056580   8.6142454  35.7528267  40.9421043
  10.3840113  36.7563705  41.6482849  11.4026423  36.9013405  41.2884560
   9.8145924  37.6731758  41.4955406  10.3302364  36.2434845  43.0109940
   9.5540352  35.6194420  43.1788750  11.1727562  35.8806038  43.4335861
  10.0197458  36.9704323  43.6396751  12.7780972  32.0722885  39.2124214
  13.8433008  32.1842918  39.8075447  12.7261248  31.7443752  37.8913345
  11.5383148  31.6332054  37.0645027  10.8529682  32.4748917  37.1643143
  11.0567532  30.6938667  37.3362427  12.0362329  31.5974197  35.6053581
  12.0521450  32.6251755  35.2426338  11.3067026  31.0566730  35.0024567
  13.3794022  30.8050117  35.7006302  14.1300602  31.0917358  34.9641495
  13.1284714  29.7572575  35.5352592  13.8849802  31.1763630  37.1369667
  14.2242708  30.3044815  37.6962547  15.1458931  32.1760025  37.0965080
  16.3134441  31.7142277  37.1296005  14.8984222  33.4537964  37.1073265
  13.9165878  33.6902199  37.1219139  15.9572105  34.4614601  37.1330147
  16.6250553  34.3476105  36.2791290  15.2731934  35.7983780  36.8698959
  14.3595819  35.8838234  37.4582100  15.8929262  36.6084824  37.2543068
  15.0876913  36.0284042  35.3400917  16.0581970  35.8794861  34.8667603
  14.4324694  35.2602005  34.9294281  14.6302414  37.5314522  35.0999260
  14.5968447  37.9871521  33.9678993  14.1648617  38.2555161  36.0286026
  16.9136162  34.5335312  38.3868065  17.9242649  35.2363777  38.3276215
  16.6169815  33.8589706  39.5488853  15.7585077  33.3268776  39.5476151
  17.4410152  33.7348938  40.7093391  18.0684032  34.6187134  40.8248672
  16.5417156  33.7592697  41.9970131  15.7325106  33.0462379  41.8392982
  17.2115231  33.4488945  42.7989693  15.7391539  35.0125275  42.3228989
  15.0409927  35.0327301  43.3193169  15.9991512  36.1159821  41.6639023
  18.3970356  32.4792213  40.6898155  19.3678856  32.3513260  41.4446716
  18.0291634  31.5526810  39.7604790  17.0996933  31.5389481  39.3655205
  18.7973976  30.2730675  39.5378532  18.8830605  29.7697525  40.5008926
  17.9840279  29.2435436  38.7873917  17.7665501  29.4913692  37.7484589
  18.7331524  27.8960209  38.7263336  18.0761585  27.1055584  38.3635330
  19.5910378  27.9698715  38.0579910  19.1395130  27.5797958  39.6870499
  16.5895844  29.0928555  39.4907875  16.7098427  29.0156670  40.5713806
  15.9273500  29.9238548  39.2478943  16.1008396  28.2156334  39.0668716
  20.0997677  30.5294342  38.7805901  20.1309929  30.8608952  37.5968132
  21.2304573  30.3010941  39.3997154  21.1344128  29.9795399  40.3523293
  22.5818710  30.4580479  38.7885666  22.5877800  31.4601536  38.3597870
  23.6397743  30.4225502  39.8866615  23.6543961  29.3998184  40.2633743
  25.1977806  30.6099415  39.4172325  25.8957233  30.1135693  40.0914650
  25.3487473  30.1217022  38.4544601  25.3929825  31.6689129  39.2482071
  23.3966599  31.3025169  41.1036682  22.5335865  30.8577785  41.5990486
  24.3036003  31.3967590  41.7008934  23.0948677  32.3352089  40.9288292
  22.8911114  29.3826599  37.7050095  23.3846378  29.6616383  36.6473389
  22.6091499  28.1018372  37.9818420  22.0955391  28.0774574  38.8511581
  22.8902760  26.9162254  37.1916046  22.5874596  27.1295052  36.1664658
  24.4207096  26.5851879  37.2809868  24.5886688  25.5755367  36.9061584
  24.9624271  27.2799988  36.6392097  25.0193253  26.7082691  38.7684250
  25.4172993  27.6944847  39.0073738  24.2918777  26.4815712  39.5478668
  26.1773243  25.7545490  39.0956650  26.9853058  25.3109646  38.2666359
  26.3911591  25.2907391  40.3116951  27.1287708  24.6237087  40.4880524
  25.7604427  25.5727501  41.0484238  22.1152897  25.6990833  37.6976357
  21.7978573  25.6800270  38.9022369  21.7832394  24.6359520  36.9579926
  22.0511475  24.6477051  35.9842415  21.2813244  23.3708382  37.5176697
  21.4501400  23.3829689  38.5944519  19.7344570  23.3945751  37.2977104
  19.3554173  24.3321514  37.7043953  19.5418625  23.4891853  36.2290421
  18.9337406  22.2183666  37.9546242  19.4936771  21.2900314  38.0676270
  18.5471745  22.6458397  38.8797913  17.5608883  21.8594723  36.7838249
  16.7174778  23.4360714  36.6115875  15.8837814  23.4621124  35.9099007
  16.2626801  23.7540016  37.5497704  17.4405556  24.2186069  36.3815956
  21.9649010  22.1619473  37.0230827  22.4677773  22.1206226  35.9376602
  22.0677662  21.2073917  37.9028473  21.6337051  21.2297878  38.8145447
  22.8288078  19.9532089  37.7428169  23.3379154  19.9267979  36.7793770
  24.0174503  19.8389626  38.7402420  23.5923958  19.6840324  39.7319183
  24.6515484  18.9806900  38.5180092  24.8345261  21.1176529  38.7345123
  24.6674194  21.8160629  37.9145126  24.6146469  22.0021439  39.9992599
  25.1555767  22.9425011  39.8932991  23.5680923  22.2924480  39.9067955
  24.7487240  21.4456158  40.9268379  26.3623009  20.8004494  38.6925392
  26.8761501  21.7514267  38.5521736  26.5144291  20.3239765  39.6610069
  26.4428978  20.1760216  37.8027649  21.7966995  18.8311939  37.8911133
  20.8825741  18.8384666  38.6905518  21.9934807  17.7422104  37.1513634
  22.5730000  17.7966766  36.3259583  21.1078682  16.6271648  36.9706726
  20.4412231  16.5032787  37.8240967  20.2419033  16.7530708  35.7046432
  20.8767109  16.8410454  34.8229485  19.7819500  15.7674999  35.6325798
  19.2245064  17.9405060  35.6529350  18.9392128  18.2177849  36.6677399
  19.5857430  19.1709881  34.8461075  19.6172409  19.0035839  33.7695007
  18.8450394  19.9549599  35.0037346  20.5504169  19.5591221  35.1729927
  17.8697300  17.5709515  35.0127182  17.1939106  18.4261284  35.0188904
  18.0260773  17.1699142  34.0113068  17.4174633  16.7962856  35.6319504
  21.9779205  15.3083038  36.8157921  23.0281696  15.2911625  36.1800880
  21.4082909  14.2000675  37.3608398  20.7013607  14.3589897  38.0644684
  22.0700111  12.9198170  37.3445587  22.6443386  12.9487085  36.4185905
  23.0068493  12.7442398  38.5403976  23.8386993  13.4444084  38.4636650
  22.4595814  13.0603085  39.4284897  23.6338081  11.4971027  38.6973038
  24.2324505  11.4486475  37.9483833  20.9974079  11.7404585  37.3652725
  19.8613281  11.9462986  37.6883202  21.3885460  10.6497793  36.8568726
  22.3619442  10.5800133  36.5966187  20.5654259   9.4034271  36.9123726
  20.1240177   9.3737164  37.9085541  19.3939381   9.4310846  35.8397026
  18.6123466   8.7167873  36.0985336  18.9101696  10.3693743  35.5682602
  19.8313560   9.1321497  34.8871269  21.5169945   8.2074184  36.8106613
  22.5733089   8.2880497  36.3008347  21.0657978   7.0026951  37.2896805
  20.0749245   6.9107037  37.4623375  21.9097404   5.7600160  37.4027443
  22.8468876   6.1122742  37.8337593  21.3284168   4.7334962  38.3518982
  22.0924416   3.9561670  38.3407135  20.9961052   5.1960301  39.7644768
  21.7693481   5.8847413  40.1048813  20.0613861   5.7527432  39.8313675
  20.8917561   4.2749286  40.3378754  20.1178703   4.3280201  37.7840462
  20.2427330   3.3954909  37.5932579  22.2953835   5.1348662  36.0631561
  21.5332394   5.2140999  35.1024323  23.2986374   4.2164650  35.9773369
  24.4057884   4.1516385  36.9106712  24.2268238   3.4502654  37.7256241
  24.6876469   5.1246200  37.3131256  25.5830536   3.6891749  36.1013718
  26.3982029   3.2428179  36.6709328  25.8763447   4.4993615  35.4337807
  24.8964767   2.7189419  35.1788254  24.6194572   1.8924674  35.8332710
  25.5931110   2.5032790  34.3687057  23.6324177   3.4217622  34.7785034
  23.8592434   4.1748004  34.0237961  22.5987225   2.5061018  34.2056122
  22.9241238   1.7137291  33.2805786  21.3351269   2.5032804  34.6557617
  21.1581402   3.1742179  35.3896675  20.0796795   1.8833261  34.1783066
  20.4184322   0.8958892  33.8647537  19.0419579   1.5416073  35.2747231
  18.5481834   2.4682610  35.5673065  18.3525753   0.7777181  34.9151001
  19.7451630   1.0440971  36.5148506  20.0585003   1.7226826  37.4727020
  19.9862938  -0.1802730  36.6073418  19.4737473   2.6764953  33.0085564
  18.7672787   2.0201585  32.3047943  19.6282253   3.9683924  32.9891968
  20.2541122   4.4286556  33.6345825  18.9016972   4.7985554  32.1216087
  18.1372318   4.1245618  31.7350540  18.3367825   5.9795270  33.0184021
  19.1974468   6.5077024  33.4287567  17.7477779   6.5669279  32.3140335
  17.4401836   5.5846930  34.2154846  18.0496025   4.9949079  34.9002190
  16.7571049   6.7592478  34.9435997  17.4624786   7.5901976  34.9519196
  15.9038048   7.0570450  34.3342590  16.4428139   6.5276670  35.9612923
  16.4252472   4.6413169  33.6558723  15.6769733   4.4193416  34.4167366
  16.0209236   5.1925821  32.8069153  16.8515396   3.6967711  33.3179245
  19.6575851   5.3470654  30.8767090  20.7744331   5.6916213  31.0056114
  19.0088272   5.4208074  29.7170963  18.0889492   5.0054522  29.6796551
  19.7127953   5.7571259  28.4457893  20.5131512   6.4887929  28.5562153
  20.1983414   4.3420854  27.9077511  19.3356476   3.7805727  27.5491905
  20.8853340   4.4365444  27.0667896  20.9390678   3.4733608  28.8898640
  22.2532272   3.6319413  29.3001461  22.7463226   4.5056024  29.1832123
  22.5571995   2.5249290  30.0444775  23.4203377   2.4753709  30.6917305
  21.5257111   1.6968638  30.0733070  21.4998417   0.8574101  30.6343327
  20.4896622   2.2834640  29.4059181  19.5374298   1.8056737  29.2288017
  18.8730507   6.3545356  27.3444500  19.4687901   6.9165931  26.4058895
  17.5758896   6.3203120  27.3398361  17.1589546   5.7581439  28.0680065
  16.6865520   6.8704576  26.3144894  16.9463444   6.3264499  25.4063759
  15.2547846   6.3190770  26.5873432  14.6676311   6.4680090  25.6811619
  15.1416168   5.3544021  27.0820103  14.8737755   6.9571400  27.3847179
  16.7249622   8.3683519  26.0699387  16.4137478   8.8445950  24.9753895
  17.1081142   9.2073603  27.0859356  17.2492981   8.7722349  27.9863987
  17.2295284  10.7366943  26.9008503  17.7985992  10.9477501  25.9954700
  15.8241634  11.3092365  26.9023762  15.2654924  10.6796141  26.2098713
  15.1638327  11.1960869  28.2905731  15.6652679  11.8030481  29.0444088
  14.1209192  11.5089312  28.2399559  15.1047668  10.1587372  28.6199913
  15.8557787  12.6494579  26.3468342  16.1786251  13.3194208  27.1437187
  16.5069313  12.7585974  25.4795456  14.8790779  13.0965500  26.1617012
  18.1584721  11.4366179  27.9486961  18.0618095  10.9878521  29.0874233
  18.9953594  12.4351540  27.6216068  18.9794598  12.6586409  26.6367702
  19.6032009  13.2399206  28.6299629  20.0426025  12.5162945  29.3165436
  20.6916981  14.2254601  28.1399784  20.2973309  14.9696064  27.4480076
  21.1156044  14.7700825  28.9836540  21.8328476  13.5734758  27.3797665
  22.9384613  12.9688625  28.0499039  23.0775356  12.9686604  29.1209126
  23.8944721  12.3237038  27.2230453  24.7437611  11.8058929  27.6437416
  23.7890568  12.3059082  25.8070698  24.5539303  11.8270855  25.2136936
  22.7131271  12.9540014  25.1647453  22.6688824  12.9276915  24.0859680
  21.8247128  13.6674166  25.9270840  21.0840721  14.2804890  25.4351559
  18.5228348  14.1169014  29.3123798  17.8740883  14.8805094  28.6164360
  18.2856808  13.9716673  30.6054115  19.0662975  13.1724548  31.5601368
  20.1380081  13.2882538  31.3984966  18.8157978  12.1197510  31.4291248
  18.6188202  13.7091293  32.9312363  18.9672737  14.7301331  33.0868988
  18.8634605  13.0510006  33.7649803  17.1209583  13.9197922  32.6621132
  16.6807823  14.6063261  33.3853149  16.6093540  12.9578190  32.6932297
  17.0789108  14.5417929  31.2962151  16.1778984  14.1415548  30.8313637
  17.0065804  16.0439262  31.3718128  15.9396467  16.6508102  31.6994534
  17.9976025  16.7655373  30.9721355  18.9030533  16.3242512  30.8978062
  18.0437794  18.2288265  30.9096031  17.8768635  18.7172070  31.8696671
  19.5029926  18.5164757  30.5580559  20.0392761  18.3114414  31.4845886
  19.7980289  17.9755077  29.6589413  19.6594429  19.5771141  30.3614082
  17.0118484  18.7895775  29.8677597  16.6608315  19.9704380  29.7857399
  16.6091270  17.9153957  28.9537716  16.9693108  16.9794121  29.0733681
  15.7978401  18.2558651  27.7896862  16.3254833  19.0559368  27.2704735
  15.6290121  17.0313816  26.8400002  16.5935612  16.5576153  26.6575394
  15.1201887  16.1927166  27.3152237  14.9013548  17.2815037  25.5115261
  13.8212872  17.2215176  25.6455345  15.2328138  18.2379150  25.1071625
  15.2418680  16.1126480  24.5011902  16.3196220  16.0296822  24.3609638
  15.0650902  15.1409140  24.9622574  14.4381809  16.3799229  23.1989059
  14.6297340  15.4458733  22.6707401  13.3975620  16.4441319  23.5168591
  14.8936214  17.4896107  22.3910980  14.6387033  18.4087963  22.7230854
  15.8978205  17.5706749  22.3195763  14.5601339  17.3385925  21.4497795
  14.4442291  18.8527088  28.2707081  13.8814669  19.8174877  27.7882500
  13.8926105  18.2610245  29.3658314  14.4466476  17.5202751  29.7713375
  12.7271729  18.7256660  30.0802231  11.9379358  18.6774731  29.3299675
  12.5247536  17.6775341  31.2061901  13.3911657  17.4120235  31.8119450
  11.7636347  17.9570179  31.9346733  12.3147984  16.7279377  30.7139664
  12.8375559  20.0939522  30.6966877  11.7913733  20.7870369  30.8381081
  14.0101786  20.5825768  31.0929451  14.7279720  19.9387016  30.7924423
  14.2049828  21.8615379  31.8301754  13.5506496  21.9146385  32.7003059
  15.6544561  21.9850407  32.3602943  16.3283043  21.9464378  31.5044098
  15.8984156  23.3711414  33.0158272  16.8891354  23.5797882  33.4196129
  15.7115459  24.2354717  32.3785591  15.0808496  23.5870209  33.7036362
  15.9201498  20.9419327  33.4307213  16.9694786  20.8186512  33.6987038
  15.3622932  21.2650032  34.3096542  15.5369415  19.9459839  33.2086105
  13.7877254  23.0551586  30.9862480  13.1954699  23.9778595  31.5195427
  13.9713335  22.9694843  29.6755276  14.3162718  22.0874748  29.3245640
  13.5457745  23.9025421  28.6654110  13.8841114  24.9081688  28.9151173
  14.1091633  23.6327629  27.2812500  13.7479200  22.7577019  26.7409973
  13.9267321  24.5305500  26.6906586  15.6207771  23.4938679  27.3370609
  16.0547447  24.3536987  27.8474159  15.8295326  22.4937668  27.7169495
  16.1888733  23.5000343  25.8911800  15.8900156  22.5979595  25.3572826
  15.6952438  24.3593731  25.4373398  17.6203651  23.7323112  25.9496231
  18.1015873  24.2216320  26.6906281  18.4975376  23.2318363  25.0866451
  18.1055107  22.4032536  24.1174698  17.1636982  22.2829285  23.7730675
  18.7326622  21.9881744  23.4433098  19.7669544  23.4217815  25.2124863
  20.4032955  22.9238033  24.6065273  20.2192974  24.0851059  25.8252583
  12.0093288  24.0111885  28.5368061  11.5830002  24.9589024  27.8774128
  11.2326117  23.1076355  29.1702671  11.6861124  22.5037613  29.8409195
   9.7862854  23.0662689  29.0474472   9.4541826  23.5389862  28.1231384
   9.2798862  21.6207581  28.9071407   9.2466650  21.2265625  29.9228230
   8.2371092  21.7443562  28.6148376  10.0237103  20.7690697  27.8762074
  11.0680084  20.8776627  28.1690388   9.5719595  19.7906284  28.0395279
   9.8758764  21.2530136  26.4053764  10.8753023  21.3494473  25.7200794
   8.7644014  21.5050240  25.9612465   9.0827599  23.6705532  30.1853352
   7.8756032  23.8199692  30.0237198   9.7339115  24.0716648  31.2713051
  10.7421799  24.0125027  31.2692509   9.1333504  24.9219875  32.2891922
   8.0810995  24.6400986  32.3267326   9.7665033  24.6675053  33.6991043
  10.8546400  24.6914902  33.6400337   9.4460697  25.4212437  34.4183388
   9.4674454  23.2277546  34.2749443   8.3917770  23.0579071  34.2281570
  10.3312426  22.1461678  33.6967201  10.0893412  21.7518291  32.7097626
  11.3434448  22.5439205  33.6236229  10.3328638  21.2528400  34.3212700
   9.9446344  23.2771721  35.8004227   9.7789545  22.3347683  36.3224640
  11.0216389  23.4117203  35.9007187   9.4215469  24.1029301  36.2827187
   9.1962347  26.4167957  31.8324566  10.1566238  26.8307056  31.1274700
   8.2229042  27.2495785  32.3044128   7.4774904  26.9133472  32.8972092
   8.0187206  28.6035652  31.6976147   7.9618139  28.4539261  30.6194324
   6.6638246  29.2202129  32.0592613   5.8963447  28.4506168  32.1416931
   6.7737412  29.5638161  33.0878334   6.3539796  30.1744270  31.1100368
   5.9167910  29.6925831  30.4041386   9.1679506  29.5448971  31.9864159
   9.4886227  29.9176273  33.0978165   9.8983660  29.9853306  30.9978886
   9.5954027  29.8221321  30.0483170  11.0387268  30.9453144  31.1623440
  11.1991816  31.5041351  30.2403488  10.8478642  31.7589417  31.8621159
  12.3176575  30.2787571  31.5489273  13.3933973  30.8203621  31.3945312
  12.2720385  29.0696430  31.9607944  11.3750200  28.6463757  32.1513252
  13.4834642  28.3578911  32.2991257  14.0671339  28.9405632  33.0118141
  13.0305891  27.1385155  33.1475105  12.3735628  26.4379330  32.6321449
  13.9564743  26.5749874  33.2627182  12.4667521  27.3413658  34.4886932
  11.1939964  27.7083035  34.7588959  10.3601542  27.9646912  34.1222076
  11.0397081  27.9554806  36.1428413  10.2081633  28.2985458  36.6021233
  12.1300459  27.5453396  36.8495331  12.3832951  27.6336460  38.2290993
  11.6983099  28.0541306  38.9504776  13.6462564  27.1156921  38.6998215
  13.9130898  27.0978394  39.7461891  14.6039686  26.6838303  37.8311272
  15.6084204  26.4575500  38.1571274  14.3291864  26.7837944  36.4214058
  15.1030111  26.3916702  35.7780952  13.0440960  27.0888805  35.8186455
  14.3878403  28.0665779  31.0801792  15.4843102  27.6265030  31.3381672
  13.9921751  28.2867661  29.8317375  13.0717974  28.6362400  29.6061897
  14.9096041  28.0858192  28.6764488  15.3377466  27.0924892  28.8109875
  14.1955233  28.1242714  27.3772049  14.9425163  27.9067802  26.6137924
  13.4934855  27.2943592  27.2966652  13.5861883  29.5399437  26.9325142
  12.7799473  29.7148628  27.6448898  14.3229017  30.3333702  27.0583172
  12.9932957  29.6592655  25.5411987  13.5979643  29.3893204  24.4997635
  11.8300705  30.2006817  25.4745979  11.2607918  30.3383999  26.2974319
  11.4839306  30.6215096  24.6241894  16.1296654  28.9936581  28.6672344
  17.1097775  28.5000973  28.1451550  16.1316338  30.1145210  29.3194561
  15.2795382  30.4601345  29.7372971  17.2746868  30.9725513  29.5832844
  17.8583984  31.1184425  28.6743851  16.8500023  32.3870506  29.9584255
  16.1637135  32.4655762  30.8016014  17.7654266  32.8856583  30.2769985
  16.1728077  33.1779060  28.7972679  16.9897804  33.5635567  27.7216263
  18.0489883  33.3763733  27.8187847  16.3573112  34.1944962  26.6184273
  16.9393940  34.6565361  25.8347816  14.9479723  34.2459793  26.5706444
  14.3900824  34.8033371  25.4867153  15.1299858  34.9975929  24.9067097
  14.1755934  33.6703377  27.5695610  13.0996151  33.7066154  27.4837666
  14.7574387  33.1900101  28.7296257  14.1265583  32.9418411  29.5703411
  18.2025051  30.4045849  30.7073383  19.3551292  30.8230324  30.8089466
  17.7653904  29.4144382  31.5382195  16.8390770  29.0132504  31.5051899
  18.5875187  28.8496361  32.6132622  19.1972980  29.6588898  33.0149803
  17.7674561  28.1462402  33.6399918  17.1806831  27.3269939  33.2244949
  18.5356255  27.4740295  34.7604713  19.1153431  26.6293945  34.3881569
  19.1019821  28.2377453  35.2934647  17.8370914  26.9597492  35.4205246
  16.8509426  29.2148209  34.2715034  17.5093822  29.8268604  34.8879242
  16.3120270  29.8010807  33.5272102  16.1821060  28.6835442  34.9486313
  19.6203861  27.8163986  32.0452003  19.3076267  27.0032024  31.1967945
  20.9298267  27.8306541  32.5389709  21.5771198  28.8961639  33.2496223
  21.2400284  28.9660702  34.2838287  21.5591774  29.7928638  32.6301765
  23.0368061  28.5962658  33.2959633  23.2536507  28.3037853  34.3233566
  23.7133331  29.3901863  32.9795685  23.2667809  27.4895096  32.1967888
  23.9971676  26.7650414  32.5570450  23.5096989  27.9308491  31.2301941
  21.9149723  26.8244514  32.1348610  21.8096828  26.5705433  31.0800877
  21.7282562  25.4947987  32.9482422  21.4013729  25.5073051  34.1572876
  22.0155373  24.3664913  32.3046989  22.4216843  24.5113430  31.3913746
  21.8736973  23.0161076  32.8384972  21.6297150  23.1006317  33.8974724
  20.7016087  22.2656517  32.2728386  20.7776909  21.2054157  32.5141106
  19.2937946  22.8066616  32.6145439  18.5035763  22.1498585  32.2508469
  19.2076187  22.7910213  33.7010193  19.2266827  23.7744884  32.1176491
  20.7330589  22.2369595  30.7027054  21.6962776  21.9021492  30.3177223
  19.8866539  21.6835766  30.2959309  20.7030773  23.2808876  30.3905849
  23.1362915  22.2037430  32.6061134  23.8848038  22.4780502  31.6863422
  23.4285259  21.1653233  33.3409576  22.8300896  20.9392452  34.1225357
  24.3781319  20.0727711  33.0066490  24.3045349  19.9442406  31.9267597
  25.8155003  20.3849125  33.3129425  26.1511974  21.2804813  32.7901039
  26.1300430  20.4211330  34.8158035  25.7029495  19.5711594  35.3480034
  27.1978779  20.4899750  35.0233841  25.6207237  21.3317852  35.1310997
  26.5641785  19.3034859  32.7198792  27.2287407  19.0435715  33.3620644
  23.9300213  18.7290840  33.4895363  23.3656940  18.6168346  34.5468063
  24.1150417  17.6244431  32.7789421  24.5091095  17.7684288  31.8602066
  23.9388885  16.2211533  33.2271957  23.2384930  16.1899490  34.0618057
  23.3442326  15.3652458  32.1206474  23.8484459  15.4129410  31.1554565
  23.3376694  14.3484755  32.5133820  21.6071014  15.8470783  31.9359932
  21.8244820  17.1414261  31.6863785  25.2689610  15.5837317  33.5137329
  26.2848282  16.0351982  32.9335670  25.1953316  14.6981392  34.4969673
  24.3699303  14.5452776  35.0586128  26.3736801  13.8593597  34.8144226
  27.0389500  13.7896776  33.9538040  27.2000999  14.4959431  35.9094086
  28.0407410  13.8195982  36.0642548  27.6692753  15.3890562  35.4966888
  26.6278400  14.8274155  37.3069344  25.8985748  14.0797749  37.6188774
  27.5242023  14.7269573  37.9189339  25.9942760  16.4661598  37.5485725
  27.4810829  17.4458065  37.4579506  27.3275490  18.4281197  37.0111961
  28.0204659  17.4544926  38.4051018  28.1224117  16.9452782  36.7325058
  25.9303112  12.4496412  35.2275276  24.8405075  12.3573151  35.8448792
  26.6510010  11.3715801  34.9806671  27.5253239  11.4998369  34.4915733
  26.3977661   9.9897757  35.4289551  25.3568840   9.7071333  35.2715340
  27.2913990   8.9602509  34.7150917  27.4102573   9.2344542  33.6668587
  28.2206841   8.9787207  35.2844772  26.8089905   7.5785537  34.6098213
  27.6466541   6.8865585  34.5228500  26.2719669   7.3347063  35.5264702
  25.8321590   7.2608542  33.4268875  26.2026081   6.9086738  32.3139076
  24.5433064   7.2741609  33.8032188  23.8421497   7.3241315  33.0779724
  24.2122631   7.3508887  34.7543411  26.6669922   9.9420424  36.9531670
  27.6632557  10.3468065  37.5609741  25.7731552   9.1891060  37.6006165
  24.9031334   8.8660336  37.2021370  25.8586311   8.6173077  38.9305115
  25.9504662   9.3999500  39.6835976  24.5868015   7.8965311  39.3283424
  23.7419014   8.5036268  39.0032578  24.5381584   6.9552593  38.7808533
  24.3692169   7.5199909  40.7057838  23.8073959   6.5864239  40.7359428
  25.3065891   7.3252921  41.2268677  23.6000290   8.5870953  41.5304070
  24.1797428   9.1222868  42.4805565  22.4641666   8.9485540  41.1240845
  26.9268856   7.4901199  39.0231133  27.1436825   6.6836224  38.1332092
  27.7038765   7.5059624  40.0808830  27.5319958   8.1780739  40.8149300
  28.7057838   6.4561396  40.4454079  29.4309597   6.3869100  39.6345863
  29.2694607   6.7849607  41.8317719  29.6774673   7.7953463  41.8591843
  28.4895401   6.7318707  42.5913811  30.4062691   5.9317126  42.3741074
  30.3156605   4.9108882  42.0028839  31.3042145   6.3889194  41.9584694
  30.6023636   6.0470858  44.1951180  31.8785477   4.7940340  44.2949677
  32.8686600   5.0632792  43.9271622  32.2146912   4.5199766  45.2949677
  31.4614315   3.8810530  43.8700104  27.9550629   5.1260571  40.4755783
  26.8123360   5.1028824  40.9862099  28.5726357   4.0595055  40.0376701
  29.4780655   4.0667429  39.5901833  27.9523392   2.7319751  40.0149002
  26.9053631   2.8130183  39.7227173  28.5452347   1.8809316  38.9244118
  28.5168095   2.4093719  37.9715004  29.5523186   1.4877374  39.0632706
  27.6909714   0.6196545  38.5199814  26.6017666   0.5041123  39.1473961
  28.0973568  -0.1678337  37.6499214  27.9524612   1.9411367  41.3559303
  28.6412773   0.9008754  41.5610771  27.1780930   2.4487810  42.3635406
  26.9538479   3.4227800  42.2181435  27.0578747   1.9148256  43.7538986
  28.0782890   1.6010109  43.9738464  26.7317886   3.1292479  44.7202187
  25.9517822   3.7307835  44.2534790  26.3940830   2.7137325  46.1000977
  27.1828918   2.0986261  46.5331383  26.3794899   3.6784260  46.6073036
  25.4029427   2.2641709  46.0397987  28.0437145   4.0178490  44.7234459
  28.8656521   3.4021189  45.0886765  28.3428993   4.2986851  43.7136345
  27.7908325   4.9036093  45.3061790  26.1700268   0.6806254  43.7983170
  25.0029678   0.6577707  43.3571396  26.6242428  -0.4146658  44.3634987
  27.6183758  -0.4983385  44.5209770  25.9969959  -1.7072389  44.1734962
  25.7910271  -1.7779422  43.1054688  26.9632854  -2.8174090  44.6516876
  27.0432072  -2.7928433  45.7384758  26.2984619  -4.1890550  44.2296867
  26.0153618  -4.8040180  45.0839500  25.5279617  -4.1411376  43.4601860
  27.0785389  -4.7876401  43.7592888  28.2328587  -2.6442602  44.0443420
  28.7984467  -2.9020789  44.7759438  24.6015224  -1.9157292  44.8214073
  23.5823555  -2.1644213  44.1921654  24.5146122  -1.7855164  46.1406136
  25.3974438  -1.6679662  46.6169472  23.3923779  -1.7406743  47.0061798
  22.7577991  -2.6246905  46.9435272  23.7427921  -1.7108190  48.0378914
  22.5204277  -0.5023599  46.7361298  21.3999214  -0.4438781  47.2589188
  23.0036316   0.5044982  45.9218788  23.8448429   0.2812324  45.4094162
  22.3658886   1.7900239  45.7088852  22.0792923   2.2227216  46.6673927
  23.1542778   2.4116216  45.2844238  21.0941944   1.7143886  44.8298531
  20.9442730   0.7578089  44.0860481  20.2593021   2.7102773  45.0027809
  20.4043751   3.3231657  45.7923546  18.8959503   2.8953221  44.3993683
  18.3167629   1.9967607  44.6120453  18.2084656   4.0990863  45.0748672
  18.0983067   3.9446998  46.1482391  18.8540306   4.9628391  44.9158821
  16.7684765   4.3606739  44.6627426  16.6856632   4.4181309  43.5774117
  15.8588285   3.2365003  45.2384224  14.8968773   3.2504075  44.7260170
  16.2617035   2.2299328  45.1261101  15.7410631   3.3743508  46.3132401
  16.3812580   5.7031364  45.2375259  16.9996853   6.4609528  44.7565193
  15.3723297   5.9549651  44.9108047  16.5288868   5.7433515  46.3167343
  18.9446335   3.0202525  42.8800583  19.3342285   4.0203543  42.2999268
  18.5006618   1.9190744  42.1755600  18.0414009   1.1591643  42.6569290
  18.4223251   1.8652667  40.7058830  19.3079681   2.3168869  40.2589149
  18.4849567   0.3485046  40.4181099  17.5029068  -0.0593122  40.6576157
  18.6266308   0.1887065  39.3492355  19.6713219  -0.4547898  41.0813789
  19.6845036  -0.5037758  42.1701965  19.5208759  -1.5066072  40.8381767
  21.0804405  -0.0011452  40.5843964  21.1440468  -0.3798558  39.5642815
  21.2141857   1.0742787  40.7013397  22.0935307  -0.6773056  41.5317421
  22.0515137  -0.1009465  42.4559441  21.8225422  -1.7050036  41.7736359
  23.4793358  -0.6230573  41.0567360  23.7921486   0.2697016  40.7028465
  24.1279888  -0.7956875  41.8114243  23.6597443  -1.3316640  40.3600121
  17.2012959   2.5650146  40.0845909  16.1717663   2.5189056  40.7187920
  17.3525352   3.1223705  38.8971481  18.2656574   3.0824678  38.4673653
  16.2916451   3.9225700  38.1814651  16.7622337   4.1772299  37.2318382
  15.0513420   3.0318587  37.6985092  14.5452843   2.5788248  38.5510139
  14.1893396   3.5459509  37.2733498  15.4042988   1.8959206  36.7546196
  15.5778780   2.4228978  35.8163948  16.2514877   1.2749329  37.0457344
  14.2486095   1.0355842  36.5467758  13.9390011   0.6590948  37.5217094
  13.5079880   1.6460352  36.0301208  14.5159130  -0.0600953  35.5605278
  14.5959921   0.3603875  34.5580902  15.4479866  -0.5535189  35.8359909
  13.3544817  -0.9474154  35.5927505  12.5158958  -0.3951816  35.7018890
  13.2189322  -1.4466512  34.7252846  13.3791313  -1.5348703  36.4139633
  15.8998652   5.2735243  38.8278389  14.7974558   5.7484374  38.5908165
  16.8523483   5.7702212  39.6614380  17.6600056   5.1890473  39.8347244
  16.7932053   7.1106553  40.2260628  15.7970734   7.4906926  40.4527626
  17.5659733   6.9385605  41.6145897  17.1477394   6.1838017  42.2805634
  18.5400982   6.5271516  41.3501587  17.6083546   8.5851603  42.4620323
  18.6328602   9.2452936  41.9147530  17.4327602   8.2536964  39.3127899
  18.3965893   8.0025892  38.5765495  16.8330479   9.4216328  39.4301453
  15.9753170   9.5765877  39.9404259  17.3405838  10.6325560  38.8676224
  18.3457336  10.5337982  38.4577179  16.2380543  11.0697374  37.8317032
  15.3094931  11.2894878  38.3585739  16.6733017  12.3790293  37.1397095
  17.7374458  12.4294338  36.9091530  15.9321136  12.6332741  36.3820152
  16.6968822  13.1618834  37.8977928  15.7804747   9.9526987  36.8166428
  16.4383087   9.7988195  35.9612617  15.5368738   9.0108938  37.3083344
  14.3952913  10.2283497  36.3977242  14.1617908  11.1744480  35.9093857
  14.0848942   9.4767923  35.6718369  13.6621275  10.2345200  37.2042809
  17.3690243  11.6612501  40.0184898  16.3834362  11.8676424  40.7481422
  18.4590988  12.5479412  40.0645103  19.0553017  12.5575075  39.2493095
  18.6732521  13.5938063  41.0157661  17.7247353  13.8196468  41.5030136
  19.8077831  13.2696457  42.0412140  20.5669498  12.6490660  41.5651436
  20.3366299  14.1558256  42.3920822  19.1627197  12.4893503  43.2170410
  18.4356098  13.1252928  43.7220039  18.5004749  11.6853065  42.8960304
  20.0649529  11.9651661  44.2505569  20.8578644  12.6654930  44.5131111
  19.4110851  11.7088785  45.0841484  20.7863674  10.8349819  43.7288971
  21.0882492  10.7474298  42.7690544  21.0164337   9.7384310  44.3646660
  20.9204941   9.5520935  45.6257210  21.1086636   8.5916710  45.8752861
  20.7776794  10.3524027  46.2250671  21.2223740   8.6884899  43.6944427
  21.3336868   7.8152914  44.1896553  21.7147598   8.7997026  42.8196335
  18.8300095  14.9153013  40.3135834  19.5453281  14.9668322  39.3341370
  18.1169987  15.9622326  40.8711586  17.3994808  15.6745710  41.5211754
  18.3389206  17.3514500  40.5105858  19.1831951  17.3623867  39.8212547
  17.1569080  18.0506516  39.7814713  17.5059834  18.9165249  39.2188797
  16.6062698  17.0672169  38.6938019  17.3512821  16.4424858  38.2010803
  15.8824635  16.3842754  39.1385422  16.1158810  17.6563129  37.9188194
  16.0047970  18.2606773  40.7963676  16.3768711  19.0139847  41.4907646
  15.1293850  18.7098122  40.3272934  15.9403009  17.3960552  41.4569511
  18.8982277  18.2020836  41.6563797  18.5655422  17.9201164  42.8550453
  19.6787109  19.2404289  41.3650894  20.0484982  19.3481274  40.4314079
  19.9989548  20.2971134  42.3050308  19.1897755  20.3674126  43.0319366
  21.3007584  20.0369949  43.0765991  21.1770954  19.1190166  43.6511650
  22.1652946  19.8754597  42.4327087  21.5860615  21.1063805  44.0636139
  22.0597534  21.9973640  43.6514626  20.7164574  21.5238094  44.5711975
  22.5247955  20.5660725  45.4874268  24.1965046  20.7608414  44.8362122
  24.2668648  20.1141396  43.9616089  24.2497673  21.8216248  44.5912514
  25.0041046  20.3945370  45.4700127  20.1549950  21.6188011  41.5402222
  20.8258572  21.6772022  40.5266266  19.5302525  22.6453953  42.0775566
  19.0430889  22.3937569  42.9257584  19.5849056  24.0223370  41.6446266
  20.1502399  24.1601601  40.7229385  18.2317600  24.5835800  41.2374458
  18.4008999  25.6190929  40.9421387  17.7857399  24.1726017  40.3317604
  17.1336575  24.5709343  42.2732239  16.9084110  23.5218449  42.4649887
  17.5100574  24.9806747  43.2105255  15.5198526  25.2807293  42.0011368
  15.1382513  24.4467163  40.4937973  15.7137823  24.6627827  39.5937004
  15.0950203  23.3614216  40.5852509  14.1061621  24.6736851  40.2266350
  20.3932953  24.8462009  42.5818520  20.2842846  24.7324562  43.8112221
  21.2204819  25.7330914  42.0794296  21.2594261  25.8820210  41.0812302
  21.8864956  26.7067032  42.9759598  21.9010506  26.4130535  44.0255585
  23.2785378  27.0089569  42.5011597  23.3866501  27.3716316  41.4789696
  23.9338760  28.0000763  43.4605980  23.4340248  28.9675083  43.4123230
  23.8437099  27.5707054  44.4584007  24.9728394  28.0478592  43.1344452
  23.9672165  25.8216686  42.4906349  23.7642002  25.3092651  43.2766533
  21.1289902  28.0711403  42.7680206  20.9915676  28.5499802  41.6105537
  20.5696964  28.6591721  43.8121758  20.7238235  28.3078766  44.7464867
  19.5818119  29.7678909  43.6526413  19.7096615  30.2288895  42.6732368
  18.1556587  29.2315521  43.5821991  17.5942993  29.9918613  43.0391464
  17.9997787  27.7469711  42.9643250  18.5875263  27.1166229  43.6316452
  16.9819088  27.3571148  42.9577446  18.4495220  27.6906319  41.9730339
  17.6078167  29.1877098  45.0064850  18.0524826  28.4026089  45.6180267
  17.5493355  30.1634712  45.4887390  16.5553207  28.9174824  44.9208755
  19.9083462  30.8761444  44.6821404  20.1814461  30.5647469  45.8578072
  19.8126717  32.1644707  44.3520470  19.6276073  32.4049416  43.3887062
  19.7664719  33.2258835  45.4343796  20.5977745  33.1919785  46.1385727
  19.8625793  34.5751991  44.6184998  20.7257881  34.6856689  43.9621696
  18.9960556  34.7436981  43.9790840  19.9207630  35.7038498  45.6457825
  19.4225864  36.6334953  45.3706818  19.4215946  35.4377708  46.5775223
  21.3365993  36.1404762  45.9931717  21.8758507  35.4409409  46.8861389
  21.8933563  37.1875458  45.4497147  22.8667278  37.4296417  45.5682220
  21.4189034  37.6440620  44.6838226  18.4857254  33.1683311  46.2784386
  17.4272232  33.0831146  45.7271881  18.5621071  33.2978210  47.6440735
  19.4821014  33.3419456  48.0585136  17.3981342  33.2889709  48.5363503
  16.6316986  33.9540291  48.1383667  16.8447361  31.7918930  48.6213646
  16.4298859  31.4499893  47.6731529  17.9957390  30.8316898  48.9481087
  18.4937630  31.2194023  49.8367844  17.6030045  29.8209763  49.0590973
  18.7416172  30.7065144  48.1631851  15.9137125  31.6139603  49.6589775
  15.3386393  30.8895931  49.4017181  17.6461887  33.8672028  49.9455452
  18.7721786  33.9747849  50.4394302  16.5949631  34.3604660  50.5998344
  15.7116098  34.3921547  50.1111794  16.5573559  34.9043655  51.9200172
  17.5688496  35.2271271  52.1666069  15.6920605  36.1194153  51.8844757
  15.9486799  36.6513023  50.9683189  14.6200008  35.9537201  51.9909325
  16.0620422  37.1311073  52.9585342  15.2091713  37.6336060  53.7104797
  17.2571411  37.5180740  53.0297623  16.0503731  33.9696312  52.9551659
  15.8548260  34.2999916  54.1108971  15.9190722  32.6882744  52.5401001
  16.0431347  32.5877724  51.5428009  15.4545832  31.6048737  53.4692764
  14.8858461  32.0247383  54.2989464  14.4831762  30.6741810  52.7316856
  14.9422827  30.2525406  51.8375168  13.9761715  29.5035610  53.6224785
  13.2533998  28.9309654  53.0412407  14.7289505  28.8069477  53.9914703
  13.3079891  29.9219189  54.3752174  13.2084389  31.3955765  52.2066078
  12.9765749  32.1455154  52.9628716  13.4647961  31.8832512  51.2660980
  12.3543396  30.7282944  52.0910721  16.7085476  30.8398533  54.0664864
  17.5733051  30.4821987  53.3390846  16.8640518  30.7045670  55.4012184
  15.9608307  31.2260056  56.4251862  15.0280342  30.6621246  56.4306679
  15.7930889  32.2962151  56.3043060  16.7074871  31.0690346  57.7644615
  16.0531654  30.9350471  58.6258659  17.3036747  31.9493618  58.0046387
  17.6796417  29.9114895  57.6025124  17.0796223  29.0996799  58.0136604
  18.6120491  30.0383110  58.1526413  17.9210300  29.9340763  56.0753250
  18.8589878  30.4136887  55.7954903  18.0636654  28.4485283  55.7124252
  17.0501766  27.7621231  55.4496346  19.2796230  27.8424778  55.7940292
  20.1017132  28.3763046  56.0375366  19.4749336  26.5760937  55.1664886
  19.1497974  26.6619778  54.1296616  21.0055943  26.4414845  55.1668167
  21.3100624  27.1707706  54.4161148  21.3045692  26.7809200  56.1585350
  21.5163326  25.0281506  54.8928261  20.8687382  24.2314739  55.2589264
  21.7078571  24.8376160  53.8368340  22.8880463  24.8248081  55.5220070
  22.9809494  24.4740238  56.7076454  23.9734020  25.0048447  54.7517586
  24.8623142  25.0963211  55.2224693  23.7803230  25.3988342  53.8420372
  18.7158260  25.3906212  55.8154411  18.3517570  24.5014229  55.0305672
  18.3961143  25.4949512  57.1237640  18.6587601  26.3537083  57.5859871
  17.5010796  24.5437222  57.7964020  17.8780079  23.5422745  57.5887108
  17.6141052  24.7059612  59.2990685  16.9658089  23.9892883  59.8032417
  18.6506729  24.5694027  59.6072540  17.2580070  26.1305523  59.8175697
  17.9798393  27.1277943  59.3638344  16.2179852  26.2085552  60.5231895
  16.0628757  24.6127682  57.2481728  15.5107107  23.5253582  57.0957184
  15.4925222  25.7958508  56.9731712  16.0807018  26.5738602  57.2355576
  14.1174278  25.9712849  56.5376587  13.4190016  25.3257275  57.0701599
  13.6926165  27.4358234  56.8545341  14.2164612  28.1909122  56.2684212
  12.6527481  27.5324974  56.5423813  13.8702745  27.7159557  58.3806725
  13.2411766  27.1130390  59.0355225  14.9443665  27.6336327  58.5469589
  13.4932528  29.1530590  58.7042274  12.8774176  29.8832912  57.9326897
  13.7723656  29.6597481  59.9071693  13.9971571  29.0196743  60.6554184
  13.3622904  30.5754890  60.0227623  13.9902315  25.6271439  54.9954643
  12.8542938  25.3513470  54.6049271  15.0444069  25.6465511  54.2191391
  15.9407434  25.7771606  54.6659317  14.9104376  25.2207260  52.7788582
  14.1492062  25.8959084  52.3880196  16.1609116  25.5291138  51.9277306
  16.9730682  25.1877098  52.5695610  16.2724152  24.9742928  50.5043983
  15.7111845  25.5212631  49.7468071  17.2919674  24.7932568  50.1640472
  15.8199768  23.9827862  50.4863815  16.3119831  27.1355495  51.8104134
  15.4500446  27.4802265  51.2391319  16.1727352  27.5423355  52.8120308
  17.6383190  27.6155033  51.2125206  17.6890793  28.7041855  51.1953545
  18.4451656  27.2602673  51.8535385  17.9321003  27.1162910  50.2891655
  14.4327745  23.7769051  52.6355629  14.7825441  22.8963490  53.4073830
  13.4687958  23.6019936  51.6827278  13.2175035  24.3944397  51.1091576
  12.6485844  22.3302956  51.5885010  12.9246130  21.7235260  52.4509010
  11.1423407  22.5527954  51.6844292  10.8189087  23.0796051  50.7866745
  10.6109896  21.6027050  51.6287041  10.5427647  23.4078541  52.7609940
  11.0696211  24.3563404  52.6565971   9.4800901  23.6147690  52.6344643
  10.8136835  22.8547707  54.1464348  11.8807058  22.6493931  54.2323685
  10.6063976  23.6365376  54.8771744   9.9768238  21.6225796  54.4673805
   9.0316334  21.7476959  54.1341209  10.4107037  20.3544960  54.7185173
  11.6537600  20.0770035  54.8600578  11.8951511  19.1902428  55.2789726
  12.3139076  20.8326664  54.9752998   9.6125698  19.3073139  54.7310600
  10.0445881  18.3993320  54.8260651   8.6219940  19.3422699  54.5370407
  13.0672417  21.5516376  50.2936478  12.9354239  21.9831829  49.1958046
  13.5183859  20.3572845  50.5122528  13.5274439  20.0194092  51.4640198
  14.0064659  19.4119644  49.5719376  14.1388073  20.0406647  48.6914101
  15.4570179  18.8830776  49.8649406  15.3209562  18.2566872  50.7465401
  15.6836748  18.2222443  49.0282593  16.4786739  19.9743938  50.1285820
  17.0997963  20.8009281  49.2025490  17.8193226  21.7196236  49.8646736
  18.6323586  22.2771912  49.4236488  17.6514721  21.5082245  51.1882935
  18.1184177  22.0138779  51.9274673  16.7371559  20.5166473  51.3489571
  16.2373505  20.0921936  52.2071114  12.9624310  18.2925930  49.3306503
  12.2899580  17.7557125  50.2253914  12.5945368  18.1760998  48.0485764
  13.1019983  18.6514778  47.3160477  11.4197960  17.4516068  47.5498314
  10.6207151  17.3359108  48.2820778  10.6683722  18.4854927  46.6062012
  11.3550768  18.7577972  45.8047104   9.4710617  17.9229069  45.9491081
   9.6575766  17.0794697  45.2843323   8.7655439  17.5078259  46.6688652
   8.9710865  18.6928844  45.3615227  10.2920799  19.7737694  47.3130531
   9.6293211  19.5651913  48.1528969  11.1158161  20.3509579  47.7330666
   9.7721243  20.4343262  46.6192169  11.7079391  16.1401234  46.9315567
  12.3509989  16.0392647  45.8949127  11.1472721  15.0490789  47.4278755
  10.5077553  15.1621666  48.2013931  11.4859848  13.6664238  47.0147743
  12.0428648  13.6691732  46.0777664  12.3434277  13.0386820  48.0474968
  11.8872194  13.0363302  49.0374298  12.4513416  11.9718418  47.8517570
  13.7316885  13.5871696  48.1981621  14.0099277  14.5810995  49.0630341
  13.2607508  14.8128119  49.8056297  15.2766056  15.2034750  49.1244354
  15.5009022  16.0399780  49.7696877  16.3295021  14.7942410  48.2400169
  17.4972649  15.4767323  48.1890869  17.6443024  15.8757706  49.0497551
  16.0999393  13.6770372  47.4709816  16.8950520  13.5570335  46.7500114
  14.7960787  13.0662994  47.4328918  14.5773506  12.1904507  46.8400612
  10.2284260  12.8577986  46.6652794   9.3662291  12.7081051  47.5259857
  10.1207838  12.3799543  45.3917885  10.9330616  12.3691902  44.7916336
   8.9160519  11.8418627  44.7514915   8.1192055  11.8276749  45.4950867
   8.5203133  12.8379335  43.5962868   9.3476362  12.9396667  42.8939400
   7.8003488  12.3183813  42.9639740   8.1182775  14.2762260  44.0175247
   8.9097643  14.7768011  44.5752678   7.8704510  15.1888294  42.8432426
   7.8118796  16.2293987  43.1624527   8.7994719  15.2028399  42.2733116
   7.1058459  14.9855118  42.0934830   6.8365645  14.1320486  44.8443832
   6.4677563  15.1091270  45.1564636   6.0861726  13.5632696  44.2952919
   7.1773372  13.6114473  45.7393456   9.1287432  10.3761692  44.2937202
  10.2005157   9.9704676  44.1224213   7.9862590   9.6149101  44.1113472
   7.0574532  10.0086174  44.1604881   8.1225729   8.1670942  43.8014679
   7.0934577   7.8103023  43.7599754   8.6480913   7.9709034  42.3380241
   9.7106915   8.2137108  42.3430214   8.6490450   6.9090710  42.0918274
   7.9313354   8.8502846  41.3420639   8.2318659   9.8950758  41.4207535
   8.3882322   8.5256348  40.4072113   6.4522176   8.6872187  41.4172745
   5.7849922   9.7571554  41.3228455   5.9219069   7.5924664  41.4864807
   8.9913158   7.3869987  44.8085747   8.9818945   7.7191501  46.0082932
   9.6993742   6.3375025  44.4097633   9.8273134   6.2251348  43.4142189
  10.4449425   5.4536853  45.2810097   9.7682972   5.1718764  46.0877533
  10.8369894   4.1791048  44.5186386  11.5110607   4.4780197  43.7159081
  11.3595047   3.5458131  45.2355919   9.5767193   3.2760568  44.1215096
   9.1058626   2.8275197  44.9962730   8.7981920   3.8603582  43.6310120
  10.0577660   2.0363295  43.2393951  10.4111128   2.3388956  42.2536469
  10.7905636   1.5288681  43.8667641   8.8802662   1.0977317  43.0491371
   8.4449730   0.8063004  44.0050087   8.0618000   1.6061466  42.5395012
   9.1212215  -0.1185799  42.2536545   9.8966341  -0.6470656  42.6272049
   8.2648869  -0.6272835  42.0862808   9.4394608   0.1324370  41.3285522
  11.6817751   6.1143684  45.9272346  12.0412970   5.7590818  47.0483246
  12.1635952   7.2211075  45.3243332  11.5508385   7.5712357  44.6018105
  13.2293224   7.9871316  45.9274559  13.9198275   7.1747079  46.1538849
  13.8302374   9.0095167  44.8635139  14.1669264   8.5220394  43.9485779
  13.0133848   9.7218246  44.7474480  14.6914959   9.5896530  45.1948395
  12.7547388   8.8255043  47.1370697  13.6467457   9.5434723  47.6862717
  11.5695629   8.6204529  47.7001648  10.9295206   8.1359806  47.0871964
  11.1470327   9.0719194  49.0144310  11.2978430  10.1505156  48.9697685
   9.6687164   8.7365952  49.3108978   9.1365070   9.1631432  48.4606552
   9.4689322   7.2245231  49.4278755   8.4252872   6.9100432  49.4235840
   9.8772411   6.6836953  48.5741272   9.9878798   6.8603950  50.3145599
   9.0966644   9.5589247  50.4744530   9.3249207  10.6055031  50.2727737
   8.0366201   9.3051529  50.4722176   9.3249159   9.2978029  51.5078049
  12.0240030   8.5188189  50.1899757  12.1718559   9.1844273  51.1520653
  12.6659069   7.3853970  49.8767624  12.4179125   6.8026037  49.0900307
  13.7068520   6.7732706  50.7328415  13.2600937   6.5100789  51.6916161
  14.1776171   5.4029365  50.1199493  14.7971973   4.9428158  50.8896942
  12.9806786   4.5213442  50.0827675  12.1692038   4.9850168  49.5218582
  13.2622490   3.5315495  49.7234230  12.4438162   4.3950586  51.0229454
  15.0501451   5.4227834  48.8189468  14.4527178   5.8979897  48.0408974
  15.9454908   6.0332680  48.9362793  15.3110151   4.4363279  48.4356041
  14.8490200   7.7130885  51.0685730  15.4031200   7.7244663  52.1424599
  15.1901979   8.6764069  50.1944618  14.6447182   8.7455091  49.3472443
  16.3939648   9.6191521  50.4362221  17.2355289   9.0505199  50.8318596
  16.7875519  10.2514791  49.0467682  15.8908844  10.7710133  48.7088776
  17.5422592  11.0190125  49.2182617  17.2427998   9.2395411  47.9810905
  16.4702816   8.4842510  47.8366852  17.5861416   9.9469662  46.6102066
  18.3443375  10.7054043  46.8051567  17.9933453   9.2208939  45.9065704
  16.7120743  10.4393139  46.1839371  18.5285988   8.4361696  48.3274040
  18.6888008   7.7083616  47.5319595  19.3884983   9.1040392  48.2761688
  18.5104351   8.0019426  49.3270187  16.1793022  10.7382202  51.4839592
  17.1315784  11.3692713  51.8647919  14.9521780  11.0005770  51.9007607
  14.3890696  10.1621513  51.9083557  14.4647894  12.3041077  52.3394775
  14.7622480  12.9793262  51.5371666  12.9408722  12.2605467  52.3842583
  12.5954103  13.2721939  52.5971565  12.5630608  11.8363419  51.4539871
  12.3699045  11.5234222  53.5551109  12.7015810  10.4856014  53.5231934
  12.7055902  12.0033064  54.4744186  10.8622351  11.5401249  53.4809761
  10.5586987  12.5858221  53.5308037  10.5732212  11.1045456  52.5244980
  10.1989660  10.8174944  54.5522690   9.7584343  11.3483419  55.2899933
  10.1768799   9.4935303  54.7002144  10.8054399   8.7346992  53.9356194
  11.1961365   8.9596510  53.0318184  10.7707424   7.7846127  54.2765427
   9.5094738   8.9363756  55.6792526   9.5962820   7.9493675  55.8751717
   9.0568438   9.4150057  56.4448509  15.1584520  12.8530197  53.6439896
  15.2694149  12.0462217  54.5541878  15.4247007  14.1551466  53.8325729
  15.2581844  15.1648169  52.8013687  14.3054762  15.0245132  52.2907181
  16.0897503  15.1208096  52.0980453  15.3143063  16.5385265  53.4433403
  14.3483496  17.0005741  53.6471519  15.8617544  17.2249546  52.7974129
  16.0091267  16.2996044  54.7820740  15.5455685  16.8508320  55.6002197
  17.0558300  16.5955734  54.7119904  15.9031906  14.7507067  55.0515747
  16.9055061  14.3876371  55.2788315  14.9090471  14.4303188  56.1706123
  15.3322172  13.9870806  57.2023087  13.6372385  14.6137009  55.9591560
  13.4534407  14.9590750  55.0280075  12.4903507  14.5009356  56.8806114
  12.6599751  15.1050100  57.7719154  11.2370262  15.1053019  56.2054939
  10.8833456  14.3063688  55.5537872  10.5220232  15.1920013  57.0236359
  11.3697462  16.5150547  55.5288658  10.7039003  16.7874222  54.4733429
  12.1250095  17.4088593  56.1027832  12.2152863  13.0755033  57.4729500
  11.2581911  12.8691978  58.1975670  13.1080723  12.0818481  57.1649170
  13.9959126  12.3987703  56.8024254  12.9411373  10.7149258  57.6474838
  11.9629688  10.3166771  57.3778839  14.0837994   9.9658394  56.8824615
  13.9821196   9.9893579  55.7974701  14.9639034  10.5849228  57.0563965
  14.4426641   8.5794029  57.3250618  14.6824303   8.6063719  58.3880234
  13.2615671   7.6557078  57.0096817  13.4099550   6.6201644  57.3158302
  12.3359318   8.0444136  57.4341927  13.1910028   7.5564780  55.9265060
  15.6873817   8.1774120  56.5463905  16.4955139   8.8458500  56.8434029
  16.0427418   7.2104673  56.9025345  15.3838682   8.2002439  55.4997482
  13.0348330  10.6194382  59.1901283  12.4169836   9.7528486  59.7999077
  13.8095551  11.5127525  59.7905693  14.1703205  12.2239685  59.1707954
  14.0400190  11.7764797  61.2438011  14.5150127  10.9231539  61.7278671
  14.8736000  13.0522747  61.3258438  14.3560104  13.9002171  60.8773079
  14.8920069  13.4629564  62.3353500  16.0881386  12.8149862  60.6764717
  16.5480328  13.5930958  60.3529892  12.7137804  12.0292711  61.9584236
  12.6034937  11.5044432  63.0530815  11.6712837  12.6123924  61.2613487
  11.8320332  13.0514536  60.3660851  10.2584543  12.5620050  61.8475990
  10.2948675  12.9692335  62.8580170   9.3468990  13.6029692  61.1491165
   9.4922991  13.4574337  60.0787048   8.2940483  13.3612585  61.2946548
   9.5809975  15.0855350  61.4399414   9.7996340  15.2650633  62.4925880
  10.7845926  15.7514820  60.7052879  10.7679901  16.7628593  61.1114159
  11.6890945  15.3246231  61.1386223  10.6055899  15.6066608  59.6398849
   8.3015394  15.8510380  61.0442581   7.4520798  15.5671434  61.6654854
   8.3341761  16.9217072  61.2460060   8.0010624  15.7880754  59.9983826
   9.5371809  11.2050905  61.8991585   9.0599031  10.7908182  62.9667358
   9.6215963  10.4853096  60.7490883  10.1493168  10.9108868  60.0004234
   9.0794497   9.0805912  60.5995445   8.0314312   8.8851509  60.8266106
   9.0901461   8.6348953  59.0282593  10.1301899   8.5031672  58.7298241
   8.2107096   7.5587640  58.6276283   7.2313976   7.7296572  59.0746651
   8.0456476   7.5529957  57.5502129   8.4171877   6.5728216  59.0440216
   8.5894270   9.7200365  58.2962189   7.6552415   9.8989592  58.4261551
   9.8634796   8.2467251  61.6264763   9.2286043   7.4265356  62.2255249
  11.1830835   8.4895124  61.8318939  11.5901203   9.2147102  61.2587357
  12.0776997   7.7048044  62.7448578  11.9362421   6.6853156  62.3860664
  13.5026340   8.1365967  62.5616798  13.6740141   8.3880968  61.5150261
  13.6498699   9.0144930  63.1907387  14.5398140   7.1130342  63.0562439
  14.4463444   6.9930935  64.1355896  14.3364620   6.1902843  62.5128479
  15.9656429   7.7000122  62.7143021  15.9352674   7.8062463  61.6299171
  16.0574131   8.6002750  63.3219261  17.1147823   6.7175903  63.0496025
  16.6966209   5.7823815  62.6772728  18.0185814   6.9331403  62.4797058
  17.2675705   6.4827747  64.5181351  17.6817493   7.2433653  65.0378036
  16.3797855   6.2579589  64.9440460  17.8395748   5.6775928  64.7293091
  11.5859795   7.8657141  64.2502060  12.0388327   7.0803313  65.0260468
  10.7972040   8.8792410  64.5641632  10.4175587   9.4109745  63.7939491
  10.3316574   9.1928806  65.8911133  10.6385374   8.4025049  66.5761185
  10.9392338  10.6224241  66.3080978  10.7385378  11.2712650  65.4555588
  10.3034925  11.1336660  67.0309830  12.4125051  10.4762430  66.7427673
  12.8110971   9.8674183  67.7466660  13.3076315  10.8570042  65.8476486
  12.9956388  11.1676407  64.9386597  14.2751589  10.8588352  66.1374588
   8.7889910   9.1332369  65.9523849   8.2012777   9.6196718  66.9475479
   8.1403675   8.4239645  64.9989929   8.8048172   8.1215572  64.3010254
   6.6539922   8.3716497  64.9614029   6.2192168   8.3878832  65.9608078
   6.0511856   9.5415821  64.1751862   4.9718199   9.3927917  64.1446609
   6.1603808  10.9219170  64.8463058   7.1551123  11.3674126  64.8344574
   5.4992890  11.7209187  64.5106659   5.8980875  10.7934752  65.8964539
   6.4678216   9.6404963  62.8458786   7.3496342   9.9877243  62.9989777
   6.1698904   7.0678444  64.4240494   5.0327821   6.6466222  64.6992950
   6.8892884   6.3487844  63.5031281   7.7262993   6.8065710  63.1715508
   6.3337736   5.2065864  62.7528572   5.3593965   4.8810420  63.1171646
   5.9656239   5.6934690  61.3498650   6.8899236   6.0456119  60.8918648
   5.7793002   4.7765484  60.7907181   4.9225373   6.7878160  61.1784286
   4.2038054   6.7954812  61.9978600   5.4049835   7.7607293  61.2721596
   4.1643586   6.4823127  59.9022865   3.1964617   5.7055278  59.9452705
   4.5285540   7.0535707  58.8466873   7.2736659   3.9688985  62.6226006
   6.8188186   2.8200119  62.6752853   8.5486307   4.2063050  62.5552788
   8.6669178   5.1955190  62.7213249   9.6716089   3.2836330  62.3095322
   9.2947359   2.4772468  61.6803970  10.7241344   3.9933126  61.4262543
  11.1065359   4.8728204  61.9442673  11.4567661   3.1970825  61.2944641
  10.1721258   4.3721876  60.0484772   9.3075962   5.0323153  60.1186295
  11.1579475   5.2847171  59.2786102  10.7218580   5.5182509  58.3073273
  11.3744411   6.2017150  59.8266487  12.0776911   4.7219319  59.1190910
  10.0102625   3.1563931  59.1169090   9.3309584   2.4364095  59.5732765
   9.5928011   3.5108075  58.1744576  10.9570875   2.6873128  58.8493767
  10.2314129   2.6232266  63.5574570  10.0676279   1.3538702  63.6297340
  10.6294136   3.3079357  64.5532761  24.0587463  17.4005432  25.9115410
  23.7437668  16.7419033  25.1050014  24.9888458  17.2577400  26.4574795
  23.3208942  18.5257530  26.0831642  23.6607723  19.6416378  27.0114574
  22.9012775  20.5595379  27.1068726  24.6489563  19.5419636  27.7651482
  22.2104874  18.7883015  25.2974243  20.8877048  18.4038162  25.5718575
  20.7861195  17.6048870  26.3165646  20.3704357  17.8372097  24.2451897
  21.1348629  17.2839470  23.7038231  19.1014194  18.0743580  23.7185574
  18.1689053  18.9106846  24.5815907  17.1296787  18.9686890  24.2637215
  18.6557655  19.6939888  25.5312119  18.0127888  20.3314457  26.1343384
  20.1074791  19.7314644  25.8839283  20.6362152  20.4728508  25.2723942
  20.2814255  20.1205177  27.2916451  21.2444077  20.2464828  27.3510571
  18.7069664  17.4629402  22.4272614  19.3724766  16.6912689  21.7463245
  17.6317158  17.8352871  21.9349842  43.9952469  17.2753353  38.8543739
  44.6083336  16.9733315  38.0079422  44.4304161  18.0754509  39.4493294
  42.9228249  16.6165504  39.2755508  42.1764259  17.0591240  40.5168381
  42.4573517  18.1013660  41.1014404  41.2680283  16.4527721  41.0102615
  42.3908005  15.4968948  38.6228294  41.5656776  15.7929602  37.4458733
  41.2320366  14.8031416  37.1110115  42.5705681  16.3157368  36.3634415
  43.2676163  15.5744371  35.9785690  42.6113739  17.6761627  36.1138000
  41.7133980  18.6011772  36.7937279  41.8101082  19.6761913  36.6544876
  40.6252937  18.1735325  37.4838524  39.9728355  18.9258957  37.9217834
  40.3129501  16.7099495  37.7219772  40.0129662  16.5792274  38.7689323
  39.1960678  16.3974247  36.9105453  38.4747467  16.0201836  37.4435730
  43.6386795  18.2601051  35.1575470  44.5783272  17.6264820  34.7074356
  43.6062775  19.5038853  35.0243263  21.2307491  10.2502508  50.3958626
  20.7079716  10.8477659  51.1396446  21.6136589   9.2827597  50.7134590
  21.3129578  10.6365862  49.1388168  20.6518345  11.8618898  48.6502533
  20.4879513  12.8126249  49.3526230  20.7469082  12.0326710  47.4376717
  22.0107212   9.9594364  48.1754570  23.0651817   9.0635633  48.3467979
  23.3103046   8.8083267  47.3085480  22.6258926   7.7559309  48.8854485
  21.6836071   7.3955493  48.4783249  23.4220009   7.0511017  49.7952194
  24.7877216   7.6065931  50.1239891  25.5239468   7.1195760  50.7605286
  25.0965118   8.8049545  49.7656250  25.9923553   9.2347574  50.2086372
  24.2231274   9.8089867  49.0303268  23.8887596  10.4229918  49.8755417
  25.0322418  10.4620056  48.0488815  25.2774773   9.7863703  47.3930588
  22.9175663   5.9364610  50.6204529  23.6822586   5.3217125  51.3461075
  21.7297421   5.6945562  50.5594749  69.0648727  35.6458702   7.5719366
  85.3510361  53.1703491  61.8321228  29.0930595  44.5672302  15.1550798
  35.4438820   7.2586412   7.3127966  14.8865013  35.3493652  12.9421148
  14.0795860  20.3129120  88.1989288  43.6884003  27.1351871  80.2546158
  46.8942413  24.4999943  58.1110611  16.7280159  70.9044418  48.2038155
  57.5422630  47.6510887  43.6491432  57.3671646  48.3069763  44.3239670
  58.4971313  47.5976219  43.6091347  33.6369286  48.0566025  24.4685631
  33.0212860  47.4577370  24.8911476  33.4199219  48.0056458  23.5376816
  77.6999588  53.7875748  43.9755859  78.3637009  53.0979881  43.9881020
  77.4191132  53.8662605  44.8872681  45.0523758  44.3845367  79.5666809
  45.1328850  44.7297020  78.6775208  44.5896912  45.0699654  80.0487061
  75.6211853  16.1017227  84.8610458  76.4812469  16.2903290  85.2364731
  75.7205658  15.2404461  84.4553909  24.6761417  71.5821381  53.2508430
  24.2251225  71.8426208  54.0539398  24.0108604  71.1186981  52.7420616
  81.9045105  34.9247780  38.3440819  82.1544647  34.4322701  39.1258659
  81.3707581  34.3135376  37.8364105   7.4202905  19.9150352  56.4844704
   7.6701436  20.7464104  56.8877335   7.8613982  19.2502003  57.0132904
  61.9332504  62.3458176   1.6020575  62.1269531  61.8378525   2.3898926
  61.5857315  63.1748238   1.9310100  77.4588699  30.6990566  56.2075005
  77.5822754  31.5449162  56.6382294  78.1709137  30.6488819  55.5697670
  52.4751549  51.4417953  88.1510468  52.6823883  50.5942383  87.7574310
  53.2918701  51.9378777  88.0952835   2.6461160  53.2340584  14.6354437
   2.0603058  53.9903221  14.6018839   2.3757710  52.6887131  13.8966990
   5.3925505  13.0293283  61.7845192   5.3466578  12.1021051  61.5513191
   4.7076306  13.4426756  61.2589149  69.0771561   6.7078142  27.8737221
  69.0344391   7.6639423  27.8887520  68.8960114   6.4742522  26.9633007
  79.2109299  62.8022499  48.0763664  79.2854843  62.3970985  47.2123489
  80.0317764  63.2818909  48.1876335  81.6667099  58.8455162  79.9662628
  81.9619598  58.1477966  79.3812485  81.2096710  58.3886375  80.6723862
  40.5332565  60.2296371  73.1361389  40.6569939  60.6374550  73.9932327
  40.9792442  59.3855629  73.2058868  14.9767714   1.4889418   2.0057058
  14.4089937   0.9765168   1.4301357  14.6007099   1.3729486   2.8782628
   3.3749330  61.3884583  86.9085312   2.6945078  61.9286995  86.5067902
   4.1836410  61.6596260  86.4741440  43.8732033  60.6165695  88.8937378
  42.9739532  60.7742348  88.6061249  44.3992958  61.2323265  88.3835373
  21.9898090  26.7049313  83.6847000  21.3652802  27.0988808  84.2938004
  22.0284081  25.7841663  83.9434128  70.5101318  19.4515781  27.0536346
  69.5682831  19.3854599  26.8962059  70.6342850  20.3370819  27.3952465
  69.1935196  47.7196465  56.9240494  69.7313156  48.1787910  57.5691795
  68.4615250  47.3668556  57.4299698  52.8183708  47.7022438  84.2867661
  53.1237640  47.7844391  83.3833160  51.9179344  48.0262756  84.2656326
  72.7580872   3.2038033  61.9956665  73.4482956   2.9929667  62.6244736
  72.2136383   3.8500102  62.4453583  84.4732590  61.1460228  36.4398346
  83.7387924  61.3618584  37.0144806  84.5858994  60.2007561  36.5398865
  26.6253586  12.9615393  11.7147570  27.0962505  13.7835236  11.8519993
  25.7232380  13.1571398  11.9680319  66.6785889  43.7793083  87.0356674
  66.6070709  43.9024239  87.9822159  65.8190308  43.4515648  86.7711411
  13.3869104  53.2989998  76.4083328  13.3767490  52.5116959  75.8640137
  12.7910061  53.0988235  77.1301727  40.7407799  37.2198410  26.0721416
  40.6974640  37.9093094  25.4095764  40.2469559  36.4924889  25.6935635
  69.8249664  48.7480469  49.2367477  70.7359543  49.0417442  49.2454300
  69.4250412  49.2293396  48.5124245  36.9747353  51.6796150  20.1978130
  36.7484818  52.6024551  20.3136024  37.4652824  51.4523430  20.9877129
  65.4281006  27.6806450  22.9464741  64.7629089  28.0243893  23.5427856
  64.9533386  27.0664978  22.3864269  50.2296638  14.9980650   8.7749128
  50.0916443  14.9839334   9.7220039  50.8772583  14.3111095   8.6169691
  70.3718567  41.7068443  45.0385094  69.9604950  42.5299416  44.7748337
  70.6229019  41.8462868  45.9516144  16.7884159  56.5539742  18.6610794
  16.6903191  57.1289825  17.9021511  16.7295494  55.6692581  18.3004589
  54.7013016  24.9909039  87.8193893  54.7970276  24.1576824  87.3580704
  53.8618164  25.3371716  87.5167313  60.4291420  17.8822575  49.4524956
  61.1676750  17.2940865  49.2948380  60.8338890  18.7180786  49.6844788
  30.9263153  14.0467310   9.7570038  31.1738167  14.1691284  10.6735153
  30.2941799  14.7444706   9.5843840   1.8336760  46.2993317  17.2614231
   1.7461135  46.8481903  16.4821186   1.0312937  45.7776718  17.2783642
  50.1650887  23.1741276  58.5207710  50.5871239  23.7216530  57.8587036
  50.3565216  23.6112194  59.3505516  64.9405365  69.8381882  76.7942734
  65.4316254  70.0285721  77.5935287  64.6906204  68.9181824  76.8801422
  15.8489046  67.5932083  35.3030396  14.9374914  67.7942429  35.5155106
  16.1290874  66.9928665  35.9939232  47.6448860  15.0251837  59.4896812
  47.0384064  15.7411175  59.6790352  47.6124725  14.4712172  60.2696190
  19.6336327  43.5737724  72.9667511  19.9449348  44.4662285  73.1178970
  19.1038151  43.6362915  72.1720047  21.5058613  64.6662064  71.3769455
  20.8123627  65.2701569  71.6425400  21.9962921  64.4960938  72.1811676
  18.3524952  25.1022797   8.7645874  18.3674698  25.9145012   9.2708511
  18.2055588  24.4166164   9.4161282  72.9934235  54.1294289  18.8826485
  72.3156204  53.4899826  18.6637230  72.8768005  54.8309364  18.2419300
  72.6457596   0.9932354  86.4163361  72.5236206   0.7942865  85.4880447
  72.9240265   0.1636905  86.8044815  40.6496773  41.5577621  60.7278290
  40.9846268  42.0688400  61.4646034  39.8546181  41.1446609  61.0646591
  30.3598785  22.0442982   2.6740582  29.5654278  21.5958214   2.9638007
  30.3397388  21.9745464   1.7196155   1.6607331  25.9446564  68.1692047
   1.1501238  25.2200184  67.8080826   2.1393363  25.5582943  68.9026184
  33.6175270  41.4684753  49.3771210  33.7076721  41.5318375  50.3279572
  34.5175095  41.4599266  49.0512505   3.2618568  54.3742561  25.6534977
   2.5663068  54.8803329  25.2335815   2.8527403  53.5354385  25.8661995
  44.8777390  30.9800587  83.0314484  44.7724152  30.3450470  83.7398987
  44.1832047  31.6218109  83.1798096  86.4362030  56.8857536  59.3959160
  86.5213089  56.6751404  58.4660606  85.6851425  57.4775467  59.4396896
  18.9226933  70.6087875   8.3553829  19.1677551  70.0028458   9.0546741
  19.5665569  70.4507446   7.6649523  25.2524166  55.3204651  31.5489388
  24.5472469  54.7438660  31.8430462  25.0617580  56.1622963  31.9626999
  49.6569481  44.4187164  18.5816536  49.3207855  44.9252892  17.8423214
  48.8863373  44.2425613  19.1214333  31.1073627  26.1354408   5.3108497
  31.9735889  25.7294979   5.2777529  30.5053368  25.4042702   5.4493599
  72.8515549  32.9710846  65.3074188  72.9883881  32.0849609  65.6425171
  73.7260742  33.3600502  65.2947388  58.0750122  68.6224899  70.9963989
  58.5704308  69.2457962  70.4650879  58.7049637  68.3057938  71.6437759
   2.7185194  37.8553391  35.8116226   3.2623482  38.3514786  35.1998024
   2.3996623  38.5095139  36.4334068  58.1690407   5.6479135   1.1538135
  58.2679977   6.5621538   0.8881005  58.9674759   5.4533687   1.6446145
  71.8509750  47.9202461  46.6609039  72.0630341  48.4109383  47.4549370
  71.0438080  48.3219910  46.3394699  56.9185600  55.6884727  23.6224499
  57.5192413  55.3970757  22.9365158  57.4513321  55.7018204  24.4175644
  76.8093033   6.0308228  55.6444511  77.3350754   6.5613856  55.0458679
  77.1062851   6.2888832  56.5170517  12.3200626  61.8692513  24.1020489
  12.2433777  61.7053185  23.1621132  13.2494946  62.0533714  24.2380199
  26.3121185  41.3283691  59.6491051  26.3097286  40.3712425  59.6609192
  25.3879852  41.5694160  59.5850296  46.0962448  64.8575211   9.7848034
  46.7756424  64.1938477   9.6656914  45.2762527  64.3942108   9.6139612
  81.2919540  46.0228195   4.5275760  80.8971786  46.7696342   4.9777431
  80.5867615  45.6702538   3.9847758  85.2780762   5.8641486  77.4502792
  85.0155106   5.9548063  76.5342712  86.1331024   5.4354610  77.4130554
  56.8979836  70.0371628  40.7708969  57.2303619  70.4622650  39.9803009
  55.9461327  70.1079712  40.6987801  72.1425247  48.1815491  77.5695572
  72.8252640  47.6409264  77.9668427  72.0855026  48.9504509  78.1368103
  22.0479527  51.7936745  77.2923508  21.3338337  51.9986420  77.8958893
  22.3942833  50.9582596  77.6059952  64.9247971  28.7934437  77.2214737
  65.2648849  29.5993729  76.8328247  64.8774796  28.1766777  76.4910049
  17.4445171  35.9099960  78.7987289  18.3948269  35.8375854  78.7098465
  17.0972691  35.4742165  78.0204315   5.7548051  55.5276337  17.8094101
   5.1969032  55.9795685  17.1763763   5.2064829  54.8209839  18.1503258
   5.4773378  23.9171448  79.7815323   6.0090446  24.4053059  79.1528702
   5.6096935  24.3734608  80.6124954  81.8865662  48.0157890  20.0208130
  82.7124710  47.7674713  20.4360886  81.8440399  47.4767189  19.2309875
  55.5705833  52.3797874  77.1526566  55.8784065  52.2314758  78.0467911
  54.6684570  52.6823006  77.2570038  66.0180130  61.2511063  25.6051426
  66.3424759  60.3509941  25.5776939  66.6346512  61.7107124  26.1750088
  60.4719200  63.3388176  20.8866348  60.9507294  64.0250244  21.3514977
  59.7952957  63.8077126  20.3982239   5.9102888  62.0924721  36.2903252
   6.1378746  61.8827934  35.3845291   5.0392556  61.7146873  36.4120331
  83.5871506  15.6253481  34.7525444  83.0252151  16.3695278  34.9685402
  83.8043518  15.7494621  33.8286095  16.0938454   5.3006005  81.0127716
  15.9294729   4.3712840  80.8528214  16.8188877   5.5197868  80.4275284
  72.7145309  29.8323269  49.3266869  73.0279236  28.9550285  49.5466080
  72.8742294  30.3487320  50.1166573  86.8879242  65.6947479  54.1033440
  86.7393036  66.0034027  54.9971390  86.4533157  64.8426056  54.0688438
   4.6767564  28.0812263   4.7692485   4.3900361  27.3638592   4.2040868
   4.0136762  28.7609234   4.6485510  86.4559326  37.7499924   5.6744361
  85.9445572  36.9862022   5.4073186  86.8290253  37.5042992   6.5209990
  77.1735306   9.7337103  83.6055908  77.9953995  10.1131592  83.2945023
  77.1187439   8.8861952  83.1640549  77.9163513  25.9722824  70.8319092
  77.9653244  25.5267048  71.6776581  77.2706528  26.6664562  70.9639435
   7.2580094  60.9519882  25.4482231   8.1448584  61.2956352  25.3403378
   7.0910220  60.4628601  24.6425571  72.3967819  55.1632309  66.4870377
  71.5658798  55.2502861  66.9542007  72.3759308  54.2776985  66.1242218
  16.1981487  25.1144772   7.3487158  17.0921745  24.9874210   7.6662140
  16.2955456  25.2483177   6.4059367  10.6305437  66.9980927  35.7085457
  10.4002638  66.1268845  36.0313301  10.5402565  66.9328766  34.7578468
  77.4173737  70.0379562  75.9621048  77.1970062  70.9461823  76.1689453
  77.0575714  69.8976898  75.0862656  48.0908928  69.5574493  19.9774914
  47.1959076  69.4782715  20.3075848  48.6427116  69.4377670  20.7504101
   2.0469007  17.2456055  28.2399559   2.1234932  16.5021610  28.8379993
   1.6902866  17.9512634  28.7794991  23.2569180   3.9330347  25.4708633
  22.9209442   3.1253524  25.8594570  24.0418396   4.1353302  25.9799881
  57.7542534  50.5933685  32.9150581  57.5127487  51.4566040  32.5793076
  58.7038651  50.6370392  33.0271225  84.4954834  14.9400978  76.9465408
  85.2383881  14.3444023  77.0438843  84.8673401  15.8112545  77.0845261
  70.0994873  30.3743992   4.3785052  70.1720581  29.5629883   4.8810749
  69.4670563  30.9022884   4.8659425  71.6156540  16.7167587  26.8633671
  71.0771255  16.2634563  27.5120087  71.3749390  17.6387157  26.9543800
  47.4315643   6.3338466   1.0510974  46.5835571   6.1786432   1.4670627
  48.0016365   5.6527658   1.4079989  33.3142471  56.1753387  57.0297585
  32.5524559  56.6421204  57.3732910  34.0640526  56.6047935  57.4415779
  27.0830421  18.5601463   5.4052353  26.4960270  18.5525360   4.6492028
  27.8820381  18.1359329   5.0923738  72.4160919  15.9667826  45.3971939
  71.7592545  16.4340801  45.9133644  72.8941193  15.4403353  46.0379524
  16.5911846  61.7441750  57.8903770  16.1796837  62.1205673  57.1124153
  16.9910431  60.9315987  57.5804291  29.3620281  59.4820518   2.6722255
  29.7548923  60.3534813   2.7222388  29.8965683  59.0148277   2.0301969
  28.6507912  64.5276566  49.9205704  27.7658501  64.6374054  50.2685165
  28.8967705  65.3997879  49.6121788  26.7212677  13.7777843  87.5667343
  27.2636337  13.5483103  88.3213272  27.0710487  13.2479458  86.8503799
  13.8312025  62.1235924   1.3421428  14.0283356  62.6841278   2.0925918
  14.6297636  61.6131248   1.2081580  51.8074799  28.0153217  11.9457054
  51.3952827  28.8496780  12.1696968  51.1002922  27.3735847  12.0112200
  79.7917786   0.9844922  40.4124451  80.3685913   0.4992185  39.8225021
  79.0633774   1.2648020  39.8582878   7.9703217  14.8995419  84.3808441
   8.3351002  15.4059849  83.6551132   8.7279701  14.4696550  84.7775803
  67.2894058  54.5416870  19.1140137  67.1685333  53.8351746  18.4796162
  66.8144302  55.2836189  18.7396259  73.8861313   7.3579288  58.3745766
  73.2807083   7.3851099  59.1154976  74.2292252   6.4643388  58.3782845
  58.9086037  68.0763092  14.0026131  59.6798477  67.9910583  14.5630989
  58.1970520  68.2918930  14.6054811   8.0951529  31.3073559   5.0323997
   7.5200305  31.9551449   4.6251702   8.7241802  31.8267345   5.5332003
  85.0632935   3.8732562  34.9993744  85.6460266   3.4396143  34.3759956
  84.6021576   4.5308480  34.4786415  66.1428299  23.4617233  26.7922230
  66.6575928  23.6342754  27.5805588  66.0582428  22.5086498  26.7652493
  20.1781216  54.8775558  55.0509567  20.4417858  54.9724960  54.1357002
  19.3558598  54.3889427  55.0138855  61.7481995   9.5966558  84.0327225
  61.1549301   9.7865963  83.3059616  62.4650383   9.1032600  83.6340561
   7.2450438   6.1231251   8.3785286   7.8500023   6.2211657   7.6432428
   7.0756264   5.1822081   8.4254789  26.7699051  40.7528419  79.5377884
  27.4605522  41.3492355  79.2487335  27.2368698  39.9726753  79.8369751
  76.8847046  59.0685043  56.7291298  76.5827484  58.1763802  56.5583458
  76.1273193  59.5077934  57.1159325  42.7093582  43.0073090  11.6757517
  42.7613182  42.2921295  12.3098297  43.6213264  43.2054977  11.4629927
  17.3607826  70.2135696  37.4504395  18.0884914  70.7687225  37.1702957
  17.7210503  69.3267670  37.4472847  76.3278732   6.5135093  71.0285797
  76.0149460   5.8820009  71.6762695  77.1963959   6.1945701  70.7832642
  84.7288437   7.5415969  79.4562607  85.3752289   8.1910620  79.1794815
  84.7082443   6.9046998  78.7419968   0.4185181  29.3548012  23.3539085
   0.8598389  29.5848255  24.1715603  -0.0984151  30.1299477  23.1344624
  12.9813480  65.7756653   5.7000360  12.9986162  64.8296127   5.5554008
  12.5241756  65.8821182   6.5342383  82.0085983  49.7214127  85.3768005
  81.2083206  49.2232246  85.5428925  82.4000778  49.8411980  86.2420273
  80.6880722  65.2812347  64.3397064  80.5554581  66.2074585  64.1378403
  81.1447906  65.2824402  65.1809158  67.4890823  51.1452065  22.4644775
  68.2914047  51.3753128  21.9958973  67.1942291  51.9686890  22.8532791
  19.7762718  64.2826233  75.1567078  19.4099121  63.5662460  74.6382294
  20.6892414  64.3397598  74.8748322  50.4944382  52.3313828  47.4875793
  49.7400818  52.6707420  47.9692574  50.3418694  51.3877487  47.4375000
  38.0658722  17.0439796  10.1207333  38.4243240  17.8152695   9.6815786
  37.7247734  16.5007324   9.4102640  30.9910851  66.7810059  41.9185867
  31.4222260  67.5680313  41.5855103  30.0914211  66.8470764  41.5984764
  37.1386566  46.6959801  30.2914028  36.8442879  47.6067810  30.2955017
  36.3322906  46.1833954  30.3485317  52.1454964  26.5725403  18.9843655
  51.8051147  26.1963654  19.7960682  52.3887672  25.8146572  18.4527016
  73.6373672  25.2795296  80.4069824  73.0545349  24.9680519  81.0994568
  73.1866074  26.0391731  80.0382080  67.2928543  69.5016403  70.8342361
  66.6315613  69.7033386  71.4962387  66.7897568  69.3235931  70.0396118
  42.3672180  69.9553146  80.5097580  41.9248085  69.1202850  80.6621780
  42.0480423  70.2428360  79.6543655  13.4695549   2.4783802  42.2561913
  14.2565041   2.7540603  41.7861443  12.7644444   2.5659537  41.6147995
   2.2695036  14.1589012  48.9442978   2.3738558  14.7646446  49.6780701
   1.7707725  14.6537952  48.2942390  43.7335358  56.5093193  39.2593918
  43.7048683  55.7295036  38.7050476  43.6456947  57.2408867  38.6483879
  17.2593517  29.2198830   3.6088083  17.4470425  30.0512199   3.1730556
  18.1188908  28.8816051   3.8597901  50.0717850  50.0775185  76.9281311
  49.6978912  50.3516045  76.0906830  50.9618759  49.7986221  76.7132111
   6.0375228  65.6307907  26.0249844   5.7666502  64.7143860  26.0802937
   6.3265047  65.7408752  25.1191139  26.7007637   3.0465593  61.3050728
  26.6986961   3.7578282  60.6645088  25.8607235   3.1284211  61.7565842
  36.5912170  58.8665276  19.3711510  36.7537804  59.5610199  20.0094948
  36.4247704  58.0875359  19.9019032  38.5668373  51.2407303  60.3084564
  37.6197281  51.2156029  60.4447861  38.8850174  51.8721695  60.9536514
  45.2744408  61.5263443  20.8903408  44.8514099  61.1718063  20.1083069
  46.1890831  61.2552910  20.8116188  85.1069183  41.1454887   1.2686174
  85.2842941  41.0836105   0.3300333  84.5552368  40.3866920   1.4586433
  65.3357010  11.2079325  84.4936142  65.4673233  12.0208435  84.0056839
  64.4559784  11.2894382  84.8619614   8.0372324   4.1531115  81.3232727
   8.5410223   3.3394632  81.3434067   7.2244492   3.9205165  80.8743668
  67.5401688   3.7061713  21.6532669  67.5261688   4.0907507  20.7768345
  68.4120941   3.3189609  21.7310181  77.7173691  28.6118698  63.5745201
  77.2701874  29.1523418  62.9232521  78.4211273  29.1695423  63.9061165
   7.0683570  45.7068138  14.2699385   6.1144300  45.6278229  14.2659883
   7.2920237  45.9529724  13.3723803  54.9644547   6.8861175  81.9325333
  54.2762184   6.2401490  81.7735138  54.9768028   6.9937506  82.8835831
  75.2043076  12.3530655   7.9665575  74.4176407  12.8465309   8.1986847
  75.8368301  12.5754719   8.6496964  47.1231728  20.5137405  22.7303009
  47.4104538  19.9119358  23.4169827  47.1884308  20.0042324  21.9226036
   6.1493926  18.4609051   6.2047558   6.5193563  17.6715889   5.8093596
   5.8496623  18.1780891   7.0687056  83.1941681   1.3566794  10.0372534
  83.4455795   1.2527814  10.9549837  83.8559265   1.9443901   9.6726875
  63.1315765  30.9759789  31.4757862  62.2255249  31.0865917  31.1875668
  63.1940308  31.4984360  32.2753944  86.0674744  54.9202423  34.8374214
  85.2704697  55.1747627  35.3024216  86.3749847  54.1398735  35.2986031
  63.0266571  41.9269753  24.3104954  63.0224648  42.6545296  23.6884975
  62.2189713  42.0363083  24.8124142   4.9553208   3.3885343  42.8818092
   5.1272578   2.6864522  43.5093040   4.5091734   4.0632501  43.3936119
  55.2125893  17.0157871  11.1706352  55.1134796  17.9678307  11.1658239
  54.8790855  16.7359524  10.3181696  84.4627151  61.1765251  60.1197853
  85.0993881  60.9666901  60.8030472  84.9066391  61.8209114  59.5684853
  51.0842743  70.7586899  34.6004028  50.7650757  70.3797226  35.4193840
  51.3898087  71.6325226  34.8439026   8.4083109   4.2673392  33.4701004
   8.8012981   4.9216628  32.8924751   8.0826941   4.7710595  34.2160721
   3.3774979  55.4677925  63.0479927   3.2082801  56.0351334  62.2958488
   2.5145319  55.1374359  63.2977676  56.4957047  45.1775055  17.4528484
  56.7470284  45.3713989  18.3558846  56.8736153  45.8921814  16.9403477
  71.5360794  17.4858837  63.7550240  72.2755737  17.9839134  64.1033707
  71.0879364  18.0987148  63.1720695  59.7253113  12.3568850  78.6340485
  59.8252716  13.1675119  78.1349258  60.1049538  12.5544357  79.4902496
   3.7159095  23.7530022  65.0220261   3.8718870  24.4499950  64.3847656
   2.8107915  23.4836636  64.8656616  38.7346573  65.9153900  33.1595116
  37.8623695  65.5252609  33.1034203  38.6160812  66.8128738  32.8485489
  49.4696770   7.5145063  82.3788452  49.2004395   7.3875299  81.4691086
  48.8301773   8.1319008  82.7339478  44.2699089  27.0549679  10.4110794
  45.2199821  27.1510010  10.4772091  44.1432610  26.3792553   9.7450409
  62.1225624  58.2973976  44.0144653  61.8170586  59.1839867  44.2064629
  62.0930443  57.8459625  44.8580055  17.8544865  15.3947668   2.1258249
  18.3597050  15.0949898   2.8815489  18.3902779  16.0872154   1.7389467
   7.2615371  41.6815758   0.7927222   7.5532365  40.8896446   1.2443770
   8.0147772  41.9478302   0.2654943  51.3367805   7.5909691  71.0498810
  51.2280579   8.2882624  70.4031982  50.9363213   6.8225589  70.6431732
   5.9726467   1.1971450  58.0707169   6.2919493   2.0878551  58.2153320
   6.6464138   0.6359121  58.4544983   2.0008211  62.4690170  33.3541336
   1.1666939  62.5334396  33.8192291   2.6021857  62.0859680  33.9927788
  33.4650688  70.9375305  60.7224693  34.0853767  70.4728241  61.2841606
  33.7710724  70.7634659  59.8323593  53.8732147  48.4142952  66.5600510
  53.2028313  48.2272453  67.2171860  54.5382690  47.7397575  66.6976318
  13.3917961  32.8103142  43.4754143  14.0666342  33.4169655  43.1707802
  13.7442322  32.4486961  44.2885895  37.8959122  45.5274010  -0.1407976
  37.5015564  44.9206657   0.4857737  37.8546638  46.3797913   0.2927459
  43.9460831  34.3197289   2.6018600  43.4436378  33.5880051   2.9601390
  44.8278198  33.9678001   2.4797492  66.6624527  23.9115181  29.7586632
  67.3529968  24.5721188  29.7039909  65.8601608  24.4146576  29.8979836
  64.4071579  71.7322845  32.3951721  64.1081772  72.0131531  31.5303268
  64.4923248  70.7816849  32.3221054  77.4569778  11.2599201  53.1028671
  77.0285263  10.4156246  53.2436714  77.7229462  11.2431660  52.1835136
  26.4660206  22.6263676  68.3415909  26.6555882  21.7981911  67.9006577
  27.0534267  23.2583313  67.9270859  43.5334816  52.9338837   9.2053165
  43.0771255  52.3509521   9.8120813  44.4128418  53.0215797   9.5731068
  50.4175835  28.1437397  68.3539352  50.2514458  27.6894684  69.1799240
  50.5452385  29.0585213  68.6051483  36.9489670   1.8576771  27.8004761
  36.9763374   1.5503774  28.7065945  36.0157738   1.9193399  27.5965652
  65.2450943  67.1989746  59.1004524  65.9612045  66.8967285  59.6590805
  64.4514313  66.9129868  59.5527191  64.2339096  69.1450577  28.5030136
  63.3745766  69.4545898  28.2167244  64.3265915  69.4848785  29.3930511
  51.1677551  56.5209770  31.7447948  50.3614922  56.5577202  31.2301846
  51.0237656  57.1404915  32.4601288  67.8447952  20.1082630  70.6197281
  67.9013290  20.6562023  71.4025421  67.5646439  20.7073555  69.9277496
  75.4638901   5.5711818  25.0104179  75.9220276   4.7419224  25.1470661
  74.5550385   5.3842878  25.2455654  44.4196053  53.7593269  49.6494751
  45.1934929  53.4595337  50.1263924  44.5428352  53.4274216  48.7601585
  63.0132523  60.4387627  71.4152298  62.0766144  60.3905487  71.2238770
  63.3252602  59.5396729  71.3126678   2.7435305  51.5936737  26.3110104
   3.0413983  50.6847000  26.2753239   1.8033036  51.5445595  26.1384029
  49.3414001   2.1456814  66.4303131  49.2061348   2.5745480  67.2752991
  48.5607376   1.6054091  66.3082352  15.8966513  41.5857582  23.7866707
  15.3599310  42.1487885  23.2288513  15.5320215  41.7004204  24.6642399
  22.6972542  42.4797058  85.2288437  22.8018780  41.7371750  85.8237686
  23.2541199  42.2669029  84.4799500  38.7257843  32.3013611  12.3156805
  39.2832947  31.5314598  12.2031431  38.9496613  32.6342201  13.1847706
  72.1580200  40.9835815   5.2470589  71.6203613  41.7721405   5.3201036
  71.7764816  40.3741760   5.8789487   4.1961007  37.4122353  86.8852921
   4.9370761  37.8807678  86.5010223   4.5751467  36.6010704  87.2237701
   2.0499866  57.8054161  49.1075745   2.0349591  58.2603760  48.2655411
   2.6070392  57.0416603  48.9572334   6.2887549  17.0895176  24.6047668
   6.7417293  16.4308224  25.1312332   6.2292938  16.6996002  23.7326069
  77.1787262  33.8374138  28.5888748  76.8727417  32.9308548  28.6163731
  78.1251450  33.7670784  28.4641075  19.4396648  65.6945572   9.0148888
  19.3676033  66.3252106   8.2984343  18.7723312  65.0359268   8.8222485
  66.3585434  57.7699623  51.3011322  65.5212708  57.9426994  51.7316742
  66.9990234  58.2585373  51.8181534  37.5305824  46.8705444  17.3966923
  37.6063347  47.8243752  17.3702755  36.7937775  46.6726913  16.8185825
   9.2225380  38.6767845  44.3685074   9.3256130  39.4528580  43.8177681
   9.1901989  39.0195007  45.2616692  30.2789726   4.0368977   2.9449940
  29.4314709   3.6000655   2.8604219  30.9175434   3.3238544   2.9396839
  40.1061020   4.7236772  83.7289276  40.7137794   4.5478878  83.0105515
  39.8915749   3.8587050  84.0782623  61.0357971   6.3102856   2.2586911
  61.0838661   6.3643241   1.3042274  61.9440575   6.1953378   2.5381246
  67.5633926  17.6806145  80.3691788  67.8690262  18.0986195  79.5641327
  68.2805939  17.8049202  80.9907913   0.3900892  56.5931969  50.7295341
   0.9340321  57.2305984  50.2668533  -0.4925856  56.9619026  50.6952782
  75.1754379  12.4347029  79.2501602  76.0604706  12.4708166  78.8873444
  74.9719772  11.5003452  79.2927628  85.3155594  16.4664707  38.6224976
  86.0281601  17.1037388  38.6706047  84.6718445  16.7785130  39.2584991
  32.7815361  58.9037285  50.8532257  32.5103607  59.8154716  50.7463646
  32.0647087  58.4960289  51.3391953  80.6674652  10.5138836  16.1993656
  81.1962585  11.1258364  15.6873865  81.0691147  10.5190687  17.0682030
  27.8106155  29.5248985   5.0647326  27.8105011  29.8610134   5.9609799
  28.7110176  29.2352848   4.9176583  48.4466705  17.2092113  86.5648575
  48.9092407  16.4497032  86.9189911  48.1704369  17.7028618  87.3370209
  61.3481560  25.2816048  21.9457016  60.8799744  24.8515415  21.2301006
  60.8981323  24.9870720  22.7375107  82.6772537  15.0782108   2.5021284
  81.9864807  15.2900705   1.8742952  82.9117050  14.1716881   2.3034315
  46.8754616  40.7363129  82.6665344  46.0463028  41.0195885  82.2811966
  46.9115219  41.1830444  83.5123215  63.3352203   6.4311180  86.1474838
  62.4571037   6.1257930  85.9196243  63.9231491   5.8603096  85.6527634
  47.3053360  62.2325935  22.7152538  46.3755722  62.1779747  22.4943829
  47.3901520  61.7242966  23.5218964  84.3992157  66.7570343   1.8771750
  85.3154144  66.4864273   1.9370717  84.2731323  66.9728394   0.9531825
  39.3794327  12.6472054  68.3436508  40.2123413  12.4123306  67.9345856
  39.0838890  13.4182930  67.8595886  63.0283432  64.1455612  73.1545639
  63.2182083  64.9621887  72.6927185  62.1103935  64.2249603  73.4139862
  62.3188248  42.7103539  64.6874008  61.8754959  43.1261368  63.9479332
  62.4274292  41.7979126  64.4192810   6.6999812  57.2568398   3.1727743
   7.2686200  56.9026718   3.8564754   6.8669705  58.1992569   3.1867523
  16.6915150  45.9852600  36.6252441  15.7854080  46.1685715  36.3770561
  17.0444450  45.4839096  35.8901825  42.7036400   7.5885329  82.1260757
  43.0241432   6.6921620  82.2262192  43.3578072   8.0164852  81.5736694
   4.4629364   0.8148461  67.9744110   4.0840473   0.7193313  67.1006012
   4.9138336  -0.0146765  68.1319427   5.2950325  17.8899021  27.0639400
   5.3437037  18.0280685  26.1180153   5.3897734  16.9436626  27.1729698
  84.2378159  61.5652428  63.1484528  83.5573120  60.9780884  62.8192215
  85.0306091  61.2974586  62.6836967  13.5079212  14.9887514   2.3489490
  13.5306225  14.9295387   3.3040459  12.6384983  14.6676903   2.1096699
  61.9402962   1.2452873   4.3559842  61.3279572   1.5473580   3.6851444
  61.8690376   1.8949639   5.0553226  53.9596710  39.6171646  37.0854301
  54.4965668  39.9063530  36.3476334  54.5925636  39.3522491  37.7528877
   8.3921318  42.0848770  46.1358185   8.4688139  42.0936432  45.1817360
   8.1583624  41.1814804  46.3490219  38.2759743  40.5240059   9.5111742
  38.2575874  41.4666252   9.6765795  39.2042923  40.3181992   9.4011755
  78.6162338  54.9108276  60.3577538  77.9973679  54.1985550  60.1968079
  78.7375336  55.3208199  59.5013504  65.8612442  37.8929520   9.2781734
  65.3992538  38.2905388  10.0162287  65.3536987  38.1534081   8.5095425
  85.3787766  32.9415245  48.5458336  85.6963730  33.8390579  48.6448059
  85.5547562  32.7247810  47.6302528  28.0946217  30.6064968  70.5408401
  28.2935619  31.0752678  69.7303467  27.5321865  29.8821087  70.2666931
  79.9122467  32.7292366  87.3534927  79.0773392  32.4150925  87.7005768
  79.8142395  32.6695747  86.4031906  43.1612206  70.1803589  23.1537952
  42.5721054  70.9322968  23.0924320  43.8759880  70.3862991  22.5513592
  60.9894218  40.3874397  63.2522354  60.3513260  39.7950745  62.8545265
  61.1427650  41.0569191  62.5855141  26.3549900  10.0223455   0.0688676
  25.7576294   9.2786427   0.1482419  27.2233982   9.6257095  -0.0002535
  69.2508850  12.2133322  34.0597343  68.4422073  11.7175903  34.1882324
  69.1703873  12.5787439  33.1786995  83.9790802  58.5331345  60.0401649
  84.2183456  59.4596024  60.0654907  83.2042007  58.4705315  60.5986214
  57.9759636  41.6457176  30.7007790  57.7340050  41.9211349  29.8165646
  58.8128014  42.0799179  30.8663139  34.7128944  33.7996140  67.8530350
  34.0964127  33.3764763  68.4506454  34.2023659  33.9661293  67.0606613
  79.7459030  11.0420799  63.0150146  80.2104416  11.6877670  62.4825478
  78.9365845  10.8718529  62.5330811  79.2526779  44.4833679  56.0753555
  79.2821960  43.5284615  56.0160789  80.1453476  44.7364426  56.3105850
  64.5033188  31.8432560   8.4614153  64.9797058  32.3062630   9.1505566
  65.0505142  31.9443340   7.6825719  57.4248657   9.0993471  49.7845993
  58.2159958   8.8830347  49.2910919  57.4137383  10.0560913  49.8119621
  70.4265137  17.2179832   5.2968025  69.7053757  17.7519875   5.6300235
  70.5541840  17.5218430   4.3981361  65.4811859  10.6478767  61.4413681
  65.3921814  11.3617907  60.8099899  65.1953354   9.8689728  60.9640503
  43.9439163  47.4387093  79.3295593  43.5079308  48.2314529  79.0169754
  44.3306999  47.0524063  78.5438156  79.2236481  65.7500076  54.1548615
  78.2853317  65.7363052  53.9661903  79.3082047  66.3361359  54.9068871
  20.2771568  34.1948090  87.4994431  19.4099731  34.3978271  87.1487198
  20.2740345  34.5720062  88.3791809  66.9888687  25.4636745  60.1480255
  66.4960632  26.2834435  60.1111450  66.3231506  24.7900696  60.2869911
  79.8229446  59.9847221   4.2505808  79.3868408  60.6284790   4.8088145
  79.1075058  59.5241089   3.8121576  61.8287086  24.8729591  44.1654396
  61.3011856  25.2470703  43.4597511  62.6844597  24.7148457  43.7667923
  58.5572929   3.9664664  54.9724541  58.9861488   3.4381742  54.2992363
  57.6667595   4.0941396  54.6455193  25.3585300  38.1107826  68.4771194
  25.8302517  37.6775436  69.1884689  24.4350090  38.0195122  68.7116623
  57.9315987   7.6146913  55.2560730  58.4685707   7.3016739  54.5281181
  57.6290283   8.4786482  54.9763222  13.8269758  13.4055443  16.3401012
  14.3364878  14.1771517  16.0926151  13.1385698  13.3504095  15.6773119
  18.1068783  54.6265221  31.8372116  17.4917088  54.5589523  31.1069832
  18.2387848  53.7227631  32.1236687  13.4778767  48.3965759  81.0612640
  12.7156124  48.3142281  80.4881973  13.1098490  48.5946922  81.9223862
   9.2597456  15.7221375   1.5072902   8.3870907  15.8820972   1.1479611
   9.8309135  16.3191090   1.0239421  49.6602058  16.8912258  69.2104797
  50.2630806  16.3164272  69.6820450  49.2313271  16.3185654  68.5745926
  77.6158752   6.0889788  13.3823309  77.2925415   6.7857738  12.8112268
  78.5440750   6.0102100  13.1621494  34.5436630  54.9165649   7.4198866
  35.2586517  54.2902832   7.3067732  34.9516373  55.6719322   7.8432193
  65.2843933  24.0411816  19.0178051  65.4653473  23.8777905  19.9434357
  64.3303986  24.0025806  18.9498062  63.8081436  24.7744045  73.3467484
  64.4861450  24.6735573  74.0148544  64.1717682  25.4102840  72.7305756
  45.3403244  48.5975266   5.7694612  44.6225052  49.0859528   6.1724606
  46.0394440  48.6163826   6.4229946   3.4118690  65.7385712   3.9581563
   2.5457308  66.1181870   4.1062431   3.3656721  64.8718185   4.3616877
  28.2980251  49.7402534  27.1634483  27.8832531  50.3777046  27.7447014
  28.3714218  50.1939735  26.3238144  14.2179823  64.5513992  47.7165909
  14.5836477  64.0904922  46.9615555  13.6044664  63.9271965  48.1041489
  73.0105972  18.6609001  22.3348045  73.9076538  18.9926605  22.2965984
  72.9426041  18.2531319  23.1981316   1.0437944  11.4803419  84.3544464
   0.6917968  12.3605490  84.2219162   1.8556707  11.6180286  84.8424377
  84.8608246  19.7532539   1.9256326  85.8078613  19.7657547   1.7870882
  84.6640625  18.8446236   2.1534724   3.0608628  25.6385326  24.2884445
   2.1452310  25.5876541  24.5627823   3.2927547  26.5607624  24.3977547
  63.6703491  13.0012646  70.7413177  64.1324234  12.3057556  71.2092743
  64.2882156  13.2892857  70.0693665  40.2700691  65.5592804  70.4872055
  40.9767761  65.0267258  70.8521423  39.5239601  65.3948212  71.0638428
  37.3609772  42.6584129  15.1133986  38.0448570  43.2637596  15.3999243
  37.4147224  41.9275208  15.7291403  74.5116272  53.1504745  73.9463577
  73.8008194  53.6946526  73.6074677  74.0897980  52.5762329  74.5855331
  41.9784012  57.1314583  56.8192635  42.2031593  56.2677383  56.4732895
  42.8193665  57.5178528  57.0636177  22.7237511  47.0528717  10.2394056
  21.7685833  47.1073608  10.2091541  23.0057468  47.2996368   9.3586006
  79.3088455  42.0041580  35.6152534  78.8587112  41.1950493  35.3724480
  80.1776276  41.7191772  35.8984985  44.6709137  52.1903610  85.4960938
  44.5052948  51.6495285  86.2682953  44.1415977  51.7908249  84.8058548
   8.5935888   7.8419719  22.5644569   8.2206917   8.5211229  22.0023785
   9.5335169   8.0229626  22.5674553  35.7278557  60.2728310  84.3049011
  36.4088020  59.6038666  84.3758392  34.9160881  59.8116112  84.5159454
  58.0004539  49.4257851  50.6253090  57.4040184  48.8158836  50.1911201
  57.4250107  50.0372925  51.0848198  32.7639618  11.4381332  13.5127430
  32.0522537  11.8487282  13.0217047  33.5438461  11.9343615  13.2642088
  56.7794533  20.6858158  48.6570244  56.5788536  21.4914246  49.1334534
  57.1241913  20.0924397  49.3243294  57.0440903  35.1237869  17.1652718
  57.9114037  34.8595009  17.4721184  56.5402451  34.3102684  17.1415710
  74.2965775  19.8003159  52.4167595  75.1666794  20.1622429  52.2489433
  73.9223480  19.6630440  51.5465050  27.2210770  54.6476402  39.2441788
  26.2860584  54.4659767  39.3389091  27.5441322  53.9497147  38.6742973
  57.7418327  58.0634003  81.5025635  57.4932785  58.8522987  81.9843292
  58.6881638  58.1437874  81.3832932  41.8513412  49.9076920  82.5525284
  41.6166534  50.5160141  81.8517456  41.2641068  49.1619568  82.4290009
  72.1777267  54.6436310  46.0995636  72.4514999  54.7724724  45.1914444
  71.5094604  55.3132133  46.2455559  66.7890015  26.6958218  18.8183861
  67.2755051  26.4059258  18.0466938  66.2236633  25.9550896  19.0373306
  18.2661858  16.0721874  83.3022919  18.0453453  16.9631290  83.5737381
  18.4455986  15.6098843  84.1210175   3.9706261  30.3771954  21.9941120
   4.8592868  30.7306004  21.9538746   3.5013559  30.9747734  22.5762787
  47.5246849  10.7095013  63.5978279  47.9693184  10.9109898  62.7744560
  46.7625732  11.2885876  63.6064262   0.2064375   7.5097055  65.6911011
   1.1426085   7.3578124  65.5616989   0.0532273   7.2915769  66.6104355
   2.6183503  47.4243431  33.8727074   3.2799051  47.7796097  33.2791061
   2.8333335  47.8029900  34.7251396  74.9092178  29.5076103   6.3115106
  75.6944199  29.8202648   5.8621392  74.4418259  30.3051567   6.5598974
  65.2298431  29.1933460  33.9710693  65.7200317  29.3985310  33.1749268
  65.4598083  29.8940983  34.5812263  27.4396095  49.0531616  76.6677551
  27.3337936  48.4216270  77.3792267  28.2446079  49.5240860  76.8832550
  46.4363937   8.0618029   7.2389665  46.1290550   8.7347193   6.6315475
  47.3299217   7.8713822   6.9533429  85.0322113  16.6550961   5.2750912
  84.6275711  15.8981686   5.6988387  85.0057220  17.3439255   5.9392033
  47.5679779  16.3972912  73.4703140  47.2017822  17.0617828  74.0539093
  47.8301888  16.8833847  72.6885300   3.7415514  14.8900194  45.2549934
   2.8105302  14.6695032  45.2266312   4.1031432  14.3161650  45.9304008
  75.0579300  21.8119698  37.4717293  75.5470428  22.0514584  38.2588997
  74.3774948  21.2158680  37.7846336  79.4340515  10.4148932  29.2140903
  79.2874680  10.8373280  30.0604305  78.5601273  10.3345518  28.8319454
  82.7664108  57.1956215  77.9660034  83.6024094  57.4926605  77.6066818
  82.3457489  56.7318802  77.2419739  15.8428431  40.3080368  33.5802422
  15.0806627  40.8778572  33.6833000  15.4867773  39.4208069  33.6278992
  13.5355310  22.0988274   0.5681526  13.7276649  22.8761787   1.0925965
  12.6453247  22.2410240   0.2463687  51.2262573  24.6921959  56.6911507
  52.1082497  25.0606785  56.7415848  51.1951408  24.2614136  55.8369331
  66.1573334   9.1152496  10.9506159  66.8999634   8.5163994  10.8724136
  66.0002518   9.4199953  10.0569229  73.1624222  50.8113823  23.6833324
  72.5891342  50.1607208  23.2781048  74.0419846  50.4445267  23.5937977
  78.0299149  36.8719635  48.9558716  78.4339371  37.4430733  49.6091919
  78.0616684  37.3773079  48.1435585  13.6493587  63.0989342  44.1470375
  13.2815037  62.5933762  43.4222450  13.1181850  62.8530731  44.9044266
  20.2917538   0.9568906  67.8044739  20.9297180   1.6661056  67.7254486
  20.7775326   0.1693513  67.5594635  64.9500504  11.6876259  80.8386841
  65.2996521  10.8070698  80.9751816  64.6283951  11.9537992  81.7000351
  84.2374039  62.7022095  20.3284931  84.3961868  63.1225014  21.1737003
  84.9770584  62.9720345  19.7841225   2.6142175  69.3782120  40.6788826
   3.1919069  68.9690247  40.0346184   3.0023732  70.2389297  40.8361168
  81.6692200  31.7181320  53.5556831  82.5416260  31.5514202  53.1988411
  81.8303146  32.2001762  54.3668022  37.8277130  64.1217804  25.3856239
  38.0885239  64.4199829  24.5142536  37.3991661  63.2797241  25.2322903
  23.6662693  45.0522842  21.0979481  23.0941753  44.7281570  21.7935658
  23.3817711  45.9549789  20.9550037  32.4941216   4.3111238  63.4054108
  33.2941551   4.7459445  63.1102676  32.4844055   3.4797790  62.9310646
  19.4298382  41.7345695  41.8537674  18.9021358  41.0824432  41.3927956
  19.2377510  42.5583115  41.4056778  33.0565491  58.5074005  69.5427628
  32.3601875  59.1295128  69.7532272  33.7011070  58.6242561  70.2407074
  42.0348244  52.0457611  45.7207947  41.8216515  51.8193016  46.6260605
  41.2034912  52.3339386  45.3438721  21.5710487  14.0560970  51.7678604
  21.3047390  13.6368799  50.9495850  22.4717541  13.7626829  51.9052200
   7.1773190  42.5572472  35.7436409   7.6223092  42.0028419  35.1026649
   6.4205647  42.9070854  35.2733574  83.7676468   2.8886883  75.5980988
  84.2409058   3.6160383  75.1940918  83.0491867   3.3053012  76.0740051
   3.3218305  57.9956055   9.6851540   4.2350159  58.2367477   9.8406353
   2.8987589  58.8141632   9.4259138  58.2721291  57.0544357  62.4242630
  58.2421646  56.1096725  62.5751152  58.9593010  57.1705360  61.7681046
  16.5861588  56.0750999  72.8762131  17.3623257  55.5412064  73.0457916
  16.9342556  56.9211617  72.5947266  68.2134628  37.3519897  74.0111847
  68.8253555  37.1149826  73.3143005  67.9361572  38.2420235  73.7939835
  79.5604401  57.1809692  24.0427761  79.8451309  56.9816704  24.9346638
  79.9394531  56.4828377  23.5087414   7.2061930  63.1175919  60.3079071
   8.1327829  63.1387939  60.5471001   7.1684022  62.5378151  59.5472107
  83.0183487   2.2070951  84.5300751  83.3180923   2.3843212  85.4216919
  83.7551270   2.4618051  83.9746323  70.5199356  49.5042534   5.7747698
  70.2049866  50.2179909   6.3294015  71.0748444  49.9337883   5.1237645
  64.0982971  66.2652435  27.5030251  64.1567307  67.1266251  27.9163647
  64.4050980  65.6560364  28.1745663  72.7573776  33.9606323  59.4969139
  71.8883896  33.6945496  59.1964073  72.5914230  34.4641571  60.2938805
  33.7212219  47.2946320  18.8242950  34.0331917  46.7356949  19.5359783
  34.1123428  48.1499252  19.0024338  59.4056435  18.7671967  83.3183746
  60.3573990  18.7322464  83.4141312  59.0921097  17.9727287  83.7505188
  57.7097588  24.0786839  -0.2311229  57.2040634  24.8555336   0.0076379
  57.9587479  23.6881866   0.6065809  33.3107109  62.8989601  74.2542191
  32.9621468  62.0217781  74.4132385  32.5366516  63.4605942  74.2138824
   7.5042453  70.4957428  16.3737316   8.0160608  69.7305145  16.6358509
   8.0238800  71.2437515  16.6681709  43.5007133  16.2172642   5.9771523
  44.1878548  15.5664606   6.1204185  42.8412971  16.0197220   6.6422682
  34.9958572  52.8891907  64.2736740  35.3097649  53.4817276  64.9567490
  35.1908913  52.0136871  64.6078720   6.7333574  58.6029701  17.6078205
   6.7951107  57.9405251  16.9196453   7.4129939  59.2403069  17.3884411
  79.9181519  32.0051003  83.1104736  79.7389832  32.9398651  83.0087662
  79.3006210  31.7145042  83.7816238  30.4852104  58.1785660  28.8648643
  31.4055557  57.9538155  28.7281780  30.0002460  57.4692802  28.4430180
  83.6241913  19.5865288  73.1881332  84.4026184  19.7202740  73.7288666
  82.9816895  20.2048435  73.5361481  43.7448997  10.2799339  84.3176956
  43.1027260   9.6539783  84.6523972  43.3385391  10.6420641  83.5303192
  48.6917038  45.0194855  49.2639618  48.7389107  45.8779297  49.6847649
  48.0668831  45.1375008  48.5484886  33.0019455  49.9327660  13.8166819
  32.5639534  50.6642418  14.2518072  32.7162361  49.9906197  12.9049501
  11.9160423  52.2129898  66.2687607  12.0874395  51.4589043  65.7046585
  11.3601084  52.7858124  65.7405167   9.0008211  49.2234154  42.7139320
   9.8945923  48.8815651  42.7372589   8.9705935  49.7610283  41.9225464
  12.8625278   1.6578764  80.3469315  12.6797142   2.5596035  80.0829239
  12.4468470   1.5704995  81.2047195  32.1994820  63.3464241  56.2050552
  31.6374149  63.5080795  55.4473076  31.6523952  63.5638618  56.9598045
  56.2454185  35.9947815  88.1065750  57.1951256  35.9349861  88.0030670
  55.9164124  36.1391907  87.2193680   1.3706383  70.7033081  37.5886650
   0.9076577  71.2494431  36.9533577   1.7264853  71.3244171  38.2241364
  20.6428127  27.0152626  78.3541489  20.3149509  27.3031788  79.2061081
  20.8911896  27.8244343  77.9071808  62.8337555  57.2868080  70.5391083
  62.5859375  57.6291656  69.6802750  63.7672729  57.4842033  70.6153717
  79.9143524  66.1759033  46.6708450  80.1360931  66.8051300  47.3572388
  80.7508850  65.9739456  46.2517281  34.0401611  63.3804474  33.1518593
  33.8187294  63.2810364  32.2259445  33.3212013  63.8969383  33.5159492
   0.3211400  38.9736595  27.5702858   0.1985905  38.3851967  28.3152180
  -0.4398343  39.5537567  27.5955849   7.2127576  18.6834698  52.2084999
   7.0442877  19.6071529  52.3946686   8.0023336  18.6883335  51.6674118
  43.5404129  68.3446274  56.5533981  43.5716133  68.4188461  55.5995903
  44.1465378  67.6326523  56.7581863  72.9490051  67.8919601  25.0790958
  72.3253174  68.1830215  25.7443199  72.7338638  68.4123535  24.3050556
  59.6898575  16.0756264  46.8445702  59.9288750  15.3282509  47.3927765
  59.2253952  16.6677380  47.4361038  24.5302410  44.2822647  32.2050819
  25.0773869  44.9437714  32.6284904  24.1106834  43.8187790  32.9299164
  80.9464569  59.7919273  29.0911198  81.6525726  59.1686935  29.2620411
  81.3820267  60.6435432  29.0556335  85.4061508  40.6581154  31.2415848
  86.3318634  40.6369400  31.4841595  85.0720596  39.7980499  31.4963474
  32.8540039  17.2441349  85.4505997  33.2979240  17.4038506  84.6177368
  32.4076576  18.0680523  85.6459656  56.1767464  57.6228905  67.5436249
  57.1081581  57.4087067  67.4904480  55.9188995  57.3531418  68.4250946
  81.4477615   0.4093685  30.6279793  80.6219101   0.6374251  31.0548286
  81.7591095   1.2332314  30.2530861  84.2703781  17.9718857  75.8748703
  83.5822830  18.6347351  75.8166428  84.1252213  17.4085636  75.1147156
  66.5133209  17.0854053   8.6594400  65.8653107  16.9831982   7.9623981
  66.1454544  17.7588749   9.2315817  30.8622322  20.5382862  88.7742920
  30.1588573  19.8892136  88.7884216  30.8573723  20.8772850  87.8791428
   6.1322789  62.4035950  88.6063309   6.2136283  61.4506493  88.5675430
   5.5905380  62.6287155  87.8499756  47.2867928  50.4142914  73.4969330
  46.7687912  50.2044067  74.2740173  47.1939125  49.6466904  72.9326706
  61.6001549  50.2453270  61.2831154  61.0391693  50.6371269  60.6137733
  62.2041588  50.9458466  61.5294609  33.1454315  43.3941460  68.6148682
  33.1843529  43.5925179  67.6792603  33.3127899  42.4531517  68.6673584
  55.2648964  61.9901543  41.6923790  55.1889420  61.8861427  42.6408730
  55.3304482  61.0957184  41.3578339  50.3939209   1.3750281  49.3769531
  50.7928963   0.8665869  48.6708832  50.2531395   0.7401139  50.0793037
  80.3323135  42.0129318   2.5909925  79.5594940  42.1208572   3.1453686
  81.0385818  42.4354706   3.0797455  37.0933876  56.2453423  60.1063271
  37.8568535  56.6910248  60.4733620  36.7108917  55.7757416  60.8475456
  37.3525047  50.4353828  82.9835358  38.2919655  50.6003494  83.0637360
  36.9626656  51.3057175  82.9012527  74.7910309  70.6597595  23.9804115
  74.4483414  71.1080170  24.7536278  74.1058731  70.0351639  23.7423458
  72.9471207   8.4654112  22.5720177  73.5960159   7.7765756  22.4282207
  72.9908218   9.0042915  21.7821255  32.6109581  61.0368195   4.1956038
  31.9813824  61.6445656   4.5835643  33.4659233  61.3765869   4.4598427
  25.2026825  37.6182556  80.4548416  24.8597832  37.5433235  79.5643158
  24.6401024  37.0463676  80.9770355  15.0234756  38.3495483  63.9509926
  14.8309841  38.1587982  64.8690338  15.9609423  38.1778069  63.8621445
  61.7787399  42.2964287  56.1597443  62.6768837  42.0297089  55.9637032
  61.2502480  41.8740807  55.4825821   8.5274134  32.0269775  10.8090420
   8.6029072  32.3539886  11.7054768   7.9128628  31.2957973  10.8717775
  84.0441589  30.8751526  49.8634148  83.3257523  30.5841980  49.3017464
  84.4063110  31.6382275  49.4130898  20.7182312  58.8220177   1.6803128
  21.1781902  58.8670578   0.8420761  21.3860970  59.0359688   2.3317838
  26.2043247  45.9467545  21.1918068  25.3326187  45.6032982  20.9958477
  26.1558170  46.8727951  20.9544678   0.1626192  18.8584003  38.8092422
  -0.0657259  19.4888706  38.1261597   1.1165277  18.7924767  38.7651443
  49.7722740  71.0921478   3.1977458  49.8799706  70.1457520   3.2925043
  49.9865990  71.4452438   4.0612388  81.7168732  66.2466965  73.8435669
  81.0739365  65.5495453  73.9734039  81.2079086  67.0554123  73.8998413
  72.5140610  56.8791962  32.9240532  72.8074646  56.6853523  33.8143158
  73.2496872  56.6222229  32.3681374  50.6084137  42.5539169   5.1875496
  50.3567390  42.7917786   6.0799141  49.8081779  42.6673241   4.6747184
  71.5098724   9.5112286  65.6469269  71.9053040   9.7644911  64.8128281
  70.7697525  10.1089983  65.7524109  79.6291275  63.9740257  23.5781040
  79.1356812  64.7933884  23.6153736  80.5419769  64.2480087  23.4893627
   7.3377805   7.6271906  70.1242676   6.9164510   8.4651222  70.3155365
   6.6126404   7.0332699  69.9301987   6.2919683  26.5674744  57.3234062
   5.7724385  26.6264172  56.5216293   6.9289079  25.8753929  57.1457520
  46.8943062  53.7587013  59.6724777  46.5327797  52.8731689  59.7094040
  46.8624992  53.9918900  58.7446594  77.5332489  14.9976530  62.1596069
  77.4166336  15.3767366  63.0307732  77.5309143  15.7505379  61.5685158
  48.5732307  60.3273773  24.3966427  47.7283478  59.9072266  24.2357674
  49.2181396  59.6398735  24.2303162  73.8638992  28.5270329  23.0194244
  73.7145157  28.3908176  23.9550343  73.5360336  29.4103489  22.8506413
  41.9567566  67.2586594  44.4699326  41.4655876  67.1681442  45.2865067
  41.4554214  66.7515335  43.8314056  12.5071726   6.7518687  16.7071648
  11.6819239   7.1134305  16.3839474  12.3120127   6.4717569  17.6014137
  47.2108803  25.4995365  38.8214951  47.0930519  26.2787399  39.3648109
  46.4372749  24.9645233  38.9990540  33.4629860  28.2791424  85.5830688
  33.1435394  28.2808781  84.6807480  33.2772522  27.3956699  85.9011993
  34.7792625  61.6823006  64.8896027  34.4184532  61.0511169  65.5122299
  34.0120468  62.0590134  64.4586792  34.3701286  45.4466743  81.7786942
  33.5382957  45.2621307  81.3425446  34.1200638  45.7749329  82.6423721
  37.9427338  38.9230537  47.5070076  37.3455086  38.1750183  47.5065613
  38.1281776  39.0809326  48.4327049  76.1377029  31.7860985   4.8582840
  76.6965942  32.3680115   5.3733106  76.2887878  32.0502396   3.9507413
  29.8433208  32.1514053  88.6893997  29.2000866  32.8289833  88.4811401
  30.6542263  32.4581718  88.2837448  80.4153366  60.8059540  42.6505547
  79.8261566  61.1262054  43.3335915  80.0212708  61.1093979  41.8327141
  51.1783295  63.6385765  56.7541809  51.7529449  63.3032341  57.4423637
  50.3610573  63.8488731  57.2059212   8.6325302  39.7053452  39.8429375
   8.0088654  39.1203003  39.4128265   8.6887217  40.4642181  39.2622566
   8.7743483  46.5201950  81.9496078   9.2388678  45.7496681  81.6228943
   7.9711018  46.5537682  81.4300919  64.2707520  22.8700123  24.5536137
  64.9353333  23.2408447  25.1341743  63.6987724  23.6078300  24.3421955
   1.3853475  71.4585190  32.2689400   1.7724547  70.6051712  32.0735359
   1.9290531  71.8126831  32.9726334  80.8361664  64.9568481  82.5717316
  80.6588135  64.5237274  83.4067078  80.9869919  64.2389679  81.9568100
  35.3253288  43.6959152  87.0549698  35.4224930  42.8911972  87.5641022
  35.7490120  44.3689728  87.5876236  50.1044922   2.3529086  33.3921432
  50.7611198   2.9254217  32.9955330  49.7686653   1.8322006  32.6625404
  47.7825851  43.0043793  88.9707336  48.2568169  42.2112503  89.2202911
  46.9750748  42.6841202  88.5687485  72.9126358  56.0520096  43.7786140
  72.7659607  56.9799461  43.9620590  73.2239227  56.0330505  42.8736420
  72.8724670  71.0320282  36.0531616  73.1556320  70.4674988  35.3338890
  71.9941177  71.3176880  35.8019028   7.1511807  42.0695686  75.3511810
   6.3922343  42.4353180  74.8967972   6.9302306  42.1381607  76.2799988
  50.6717110   9.3027964  24.2688637  50.1320496   8.5323133  24.4459362
  50.5641823   9.8538370  25.0441208  75.5084534  23.0334435  32.3320084
  76.3125000  23.3876762  32.7118225  75.0599365  22.6158695  33.0673294
  30.5888233  59.9760742  87.2633362  30.0645294  59.3379173  86.7795029
  29.9496136  60.4743996  87.7725677  71.8684921  66.9069519  46.7727432
  71.7811508  66.2224731  46.1093483  70.9688187  67.1039886  47.0334854
  22.1363888   7.7983336  72.8023987  21.8536415   8.0775108  73.6732254
  21.5469704   8.2542467  72.2015991   1.0494220   1.4333668  14.1065025
   0.4478934   2.1535807  13.9175920   1.4858414   1.2607239  13.2722578
  29.3913250  45.3667145  45.4757652  29.4991398  44.6218300  44.8843651
  29.8242970  45.0947113  46.2849503  58.8037109  22.8210163  38.5776787
  59.5081863  22.9779072  39.2064323  59.2458344  22.4670753  37.8059998
  50.2525940  36.0661049  39.9523582  49.3514481  35.8069801  39.7599373
  50.4663391  35.6051369  40.7635612  86.6414642  18.4258022  31.5228214
  86.3022537  18.4906006  32.4155540  86.3711166  19.2429428  31.1039791
  67.1862640  63.2125778  72.8874283  68.1106415  62.9940147  72.7691116
  67.0057144  63.8644981  72.2102051  53.3915596  30.4290199  83.5843964
  54.0767784  29.7842617  83.4083405  53.8644447  31.2051105  83.8848801
  83.2131805  13.1098337  10.7466707  82.7809372  13.8930712  10.4061718
  82.5305176  12.4388723  10.7431870  70.9804459  46.2421265  87.8360748
  71.2839127  45.9210091  86.9869385  70.6295471  47.1132889  87.6512070
  55.7398911   9.2844496  60.4056358  55.6601486   8.7505217  59.6151962
  55.2345390   8.8109989  61.0664673  45.6078568   3.6414683  62.5402946
  44.9915695   2.9234335  62.6846848  45.0897217   4.3177080  62.1038666
  57.4662094  65.5449982  23.6655960  57.5555801  64.8591995  24.3273563
  56.8065720  65.2082138  23.0592232  14.0550528  16.6677761  72.4470291
  13.8038673  17.3267002  71.7997589  14.6029606  17.1426067  73.0719833
  34.9061623  64.5937729   0.6132661  35.2133522  63.7740021   1.0003644
  34.3903275  64.3217239  -0.1457694  44.3233490  55.8195724  10.9182205
  43.4078331  55.6531601  11.1426468  44.7159767  54.9490547  10.8528500
  17.5343266  53.4377632  10.3578720  17.2984715  52.8963585  11.1111889
  17.9103870  52.8220787   9.7287893  53.2906418  11.0237494   5.7809544
  53.4013252  11.0620012   4.8309450  53.9172363  10.3597469   6.0685468
  52.0082970  18.5684299  30.3599701  52.1158829  18.5289497  31.3102856
  52.2879486  17.7066174  30.0512581   0.1657251  35.1186790  27.7530575
  -0.2929748  35.5797234  28.4553852   0.7604548  35.7726135  27.3857765
  84.4460526  12.2971115  49.0507965  85.3911285  12.3159723  48.9001274
  84.0876083  11.8732357  48.2709999  79.1066360  35.6027603  69.2898560
  79.9176025  35.2850342  68.8928604  79.2804260  35.5918655  70.2310791
  44.1886673  34.8035278   7.9066482  44.0414963  35.3918076   8.6472569
  43.6304779  35.1503487   7.2106819  22.2671471  62.0471001  36.8341942
  22.7674103  61.9998932  36.0194931  21.9295177  62.9425011  36.8563995
  69.0722961   6.7986364   4.8521175  68.1432648   6.8367467   4.6247859
  69.4989853   6.4683423   4.0614996  19.5972099  27.3729839  28.4062595
  18.7192497  27.6201344  28.1158524  19.4954872  27.1788692  29.3380337
  44.9747963  47.7499504  74.5925293  45.5008659  48.3017960  75.1712723
  44.1243248  48.1873512  74.5523834   0.0168616  59.8879433  38.6765823
   0.6050987  59.2279320  38.3097076  -0.5511724  59.3983688  39.2714653
  50.5849991  45.6369476  51.7869339  50.9318962  45.6914253  50.8964691
  50.0155640  44.8676338  51.7754936  60.7316399  49.0589371  43.1349564
  60.2764320  49.8479805  43.4289474  61.3837547  48.8911171  43.8152618
  38.2947922  35.1029739  17.5248127  38.6919441  35.6169167  16.8216991
  38.9616623  35.0804710  18.2111111  76.8362045  21.5552826  52.9118042
  76.3016357  21.8734589  53.6392822  76.7145462  22.2076130  52.2219505
   1.5658951  14.6023569  54.1153450   1.5951271  15.5422726  53.9366379
   0.9665087  14.2518148  53.4564896  63.6183929   4.1937733   4.4572129
  63.2322502   3.7281163   5.1990280  63.9406471   3.5007794   3.8808925
   9.5352907   1.0145006  74.9600754   9.5427866   1.4913896  74.1301651
   9.6881971   1.6868173  75.6240311   3.2688642  58.8597984  21.1412106
   4.2114224  59.0258102  21.1571903   3.1664481  58.1176453  20.5454350
  15.7350340  57.6301422  36.9743309  15.8107719  56.6894379  37.1342468
  16.5615215  57.9942970  37.2914124  75.1259842  32.6926384  84.2335434
  74.8316956  32.6558533  85.1436386  74.5970306  32.0336151  83.7839584
  59.8291397  28.7949963  21.1538982  59.4081345  28.1262722  20.6137199
  59.9931679  29.5208664  20.5518703  13.1357765  49.4615593  24.0051250
  12.5631056  49.1509438  23.3038425  12.5500507  49.9210014  24.6068497
  24.2233391  36.7254219  14.7403154  23.3718758  36.2898445  14.7014170
  24.6278763  36.3895454  15.5401707  30.4887466  60.5162201  83.0207672
  30.9881687  60.4817543  82.2049103  29.9530525  59.7230721  83.0073547
   1.1488580   5.2631235  74.2156296   1.5143455   4.7652822  74.9469299
   1.8937525   5.7474666  73.8595734  28.0171032  43.2230072  10.7590694
  27.9703617  42.4711456  11.3496199  27.6820889  43.9552422  11.2765894
  60.2330780  15.1809855  19.0813122  59.4223557  14.8992319  18.6575489
  60.3142128  14.6110439  19.8460445  84.5577545  55.3695564  57.2898254
  85.5131149  55.4288826  57.2916374  84.3370895  55.0321007  58.1579666
  12.9013319  70.4960861  76.9160233  13.3173132  71.3569565  76.9616928
  12.3858833  70.4361725  77.7203598  25.0458069  46.4928551   2.3340456
  25.8882141  46.1176567   2.5905783  24.5664387  45.7614708   1.9448007
  20.3696613  69.6490173  34.3017616  21.2826099  69.3649750  34.3473167
  20.3129768  70.3738174  34.9244080  44.6059189   2.7745221  58.6189728
  44.7842445   3.6137550  59.0433807  45.4264030   2.5485890  58.1808052
   4.6311512  59.0101624  61.6580887   5.0206594  59.4397430  60.8965302
   5.3660545  58.8676338  62.2546082  25.6355114  59.6482277  59.8992920
  25.6179199  60.2326126  59.1413879  25.5722122  60.2331963  60.6542969
   4.8530750  42.4572372  81.1581268   3.9055066  42.5818367  81.1050262
   5.2177391  43.1627617  80.6238174  52.4881210  43.8269577   9.1187553
  52.4954681  43.4421806   9.9951811  52.7089043  44.7476463   9.2595310
  26.1252441  61.1399536  34.8978157  26.3723526  62.0473709  35.0760384
  26.0458717  60.7389221  35.7633247  85.3681793  19.6788158  50.9688148
  86.1375427  19.1189613  51.0731468  84.6542282  19.1815567  51.3678589
   4.7919064  36.9323425   4.0864248   4.8884220  36.6214790   3.1862693
   5.6873512  36.9769707   4.4217134  39.0933609  24.0605412  68.6127014
  39.0748596  24.9958858  68.4101639  39.5675468  23.6662903  67.8806229
  35.7748756  55.2076492  78.6568069  34.9928398  55.6553307  78.3339615
  35.6723175  54.3030891  78.3610306  31.8048248  59.5550423  18.0678368
  31.8134384  59.1299706  17.2102394  32.4404068  60.2664070  17.9889584
  62.7180214   9.1496277  56.2494926  61.9297028   8.6280193  56.0987930
  62.7233925   9.7872782  55.5356255  16.6964970  43.8122253  61.2589607
  16.8422012  43.2162628  61.9936905  17.2478390  44.5703659  61.4525414
  50.5533676  15.1936789  34.7301750  51.2229881  15.5743942  35.2984123
  50.8462334  15.4009094  33.8427505  39.7423096  59.2680397  66.3019943
  40.2723122  59.9679222  65.9205551  38.9014397  59.6825600  66.4952393
  77.9305267  68.4717102  86.8440399  78.2082138  69.3872604  86.8142548
  78.7450256  67.9772263  86.9352417  18.6129761  12.8537922  21.8954639
  18.7367325  11.9489145  22.1820183  19.4845409  13.2450838  21.9546165
  17.2152596  67.0491638  55.2174225  17.4601479  66.1258698  55.1557770
  16.7492085  67.2283783  54.4007759  63.1096191  57.1351357   5.9688101
  63.6802521  57.8621101   5.7195668  63.2303009  57.0492668   6.9144812
  55.6866760   1.4394467   2.3621535  56.1007614   0.5916269   2.2010062
  54.7520523   1.2778714   2.2332985  31.3157120  12.1911936   7.6423602
  31.3560162  12.8147545   8.3674660  32.1717072  11.7628441   7.6469679
  65.0957794  31.4515266  29.1507511  64.7948380  31.0268688  29.9540749
  65.9044189  30.9916725  28.9252071  24.9757862  47.0074654  11.8481245
  24.5648499  47.6056519  12.4722519  24.2597694  46.7270737  11.2780972
  40.3351517  46.3732758   2.1532376  39.8453979  47.1235123   2.4901593
  40.9415970  46.7499352   1.5155989  70.6067505  25.2378330  13.6669054
  71.3541489  25.7209759  13.3144989  70.8844223  24.9735050  14.5439806
   0.5890922  41.6705208  13.3121347   1.4567077  42.0686378  13.2415838
   0.2592177  41.9640541  14.1614008  78.9886017  11.9001980  36.1745872
  79.4214935  12.7261772  35.9587250  78.0621185  12.0615911  35.9962387
   6.2967920   1.4858587  26.8470001   6.0238867   2.4009225  26.7805729
   6.8836150   1.3562469  26.1019688  56.6894226  17.8756313  22.7897224
  56.1106873  17.4449921  22.1605587  57.1495552  18.5396767  22.2763462
  43.8982391  10.6150713  73.3635254  43.2747459  10.6648731  72.6389542
  44.5556908   9.9839535  73.0708160  13.1038361  51.5745544   3.2758803
  12.9114809  50.6910973   2.9616592  12.7978191  52.1500206   2.5748634
  72.4535217  68.9271240  45.1276245  72.9383163  69.6788254  45.4684143
  72.2229309  68.4184265  45.9049835  32.5154266  69.3694229  79.6831131
  31.8858109  69.8299408  79.1283722  32.1333733  68.5008392  79.8089447
  42.6044960  30.8553600  53.4078522  42.6942101  30.7194691  52.4646034
  41.7237206  30.5412903  53.6123810  79.0519257   7.6606855  31.7456932
  78.5002899   8.3598309  31.3947945  79.3824158   8.0091095  32.5737076
  82.1639023  49.2456398  72.5236893  83.0537796  49.4401321  72.2295380
  81.8831558  48.5160370  71.9713364  45.1395416  14.5008802  61.5102844
  44.6326675  15.2160053  61.1256981  45.7711830  14.9359713  62.0829582
  67.1396103  68.1773987  68.2492142  68.0469971  68.3845749  68.4727020
  66.7431488  69.0249329  68.0473709  34.4549446  70.0725555   2.2451124
  34.5283661  69.8860245   1.3091390  35.2409477  70.5786209   2.4508581
  56.0663223  54.8407326  34.6288719  55.3050766  55.3689651  34.3886490
  56.7436295  55.4814110  34.8457108   8.3808861  22.0718498  57.8845787
   8.2490540  22.5791302  58.6855278   9.2387657  21.6628532  57.9985847
  18.8293018  21.2524071  69.3671188  19.1622028  21.3938999  70.2533417
  17.9176350  20.9892120  69.4929047  53.3254852  62.8657913  70.2297592
  53.2851257  62.2866936  70.9908447  52.5621948  62.6249237  69.7047806
  53.6368904  66.1734085  31.7494831  53.9992867  66.0895157  30.8675194
  54.4032402  66.2657242  32.3155365  80.7729492  53.0068932  78.2409210
  81.2650528  53.1969147  79.0396423  81.3795776  53.2155113  77.5304947
  36.9472885  37.5387306   9.2595415  37.4181480  38.2604752   8.8428841
  37.1482811  36.7764969   8.7165546   5.7255726  46.7987785  55.0217552
   5.4072556  47.6958694  54.9210930   6.6608348  46.8530426  54.8253555
  54.1728935  47.3679466  71.1178055  53.4925041  47.5430794  71.7679062
  53.9232483  46.5292778  70.7298050  57.8239517  63.7781448  60.8683052
  57.5239449  64.0190201  59.9918327  57.3745766  64.3896179  61.4517403
  30.5566750  52.9102097  64.9913025  31.2595959  53.2499809  64.4375076
  29.7630005  53.0259247  64.4688873  37.2243881  70.8332214  36.5860291
  37.4629326  71.7109375  36.2877922  36.2672005  70.8338242  36.5909195
  42.1129684  54.6925850  55.4604416  42.3628120  53.7772255  55.3342552
  41.6550713  54.9292564  54.6538734   8.3066015  16.9648952  13.2541676
   7.9741030  17.3171101  14.0797710   9.1384668  17.4184322  13.1180143
  27.8534184  40.7456093  85.6983185  27.0777531  41.2807617  85.5304260
  28.5886288  41.3025131  85.4422760  36.6177330  68.8269730   0.0488371
  37.5177383  68.6945953   0.3466620  36.1068268  68.1801376   0.5354753
  59.0827637  26.4916458  39.5166626  58.4909706  25.7663345  39.3168221
  58.5988770  27.2747936  39.2544327  30.4924889  34.1598663  68.3592224
  30.0852566  34.9089890  67.9242325  30.5060844  33.4737473  67.6919250
  50.2918320  37.0187340  48.9503098  49.4971046  36.6448898  48.5696793
  50.5530510  36.3908424  49.6239166  40.3759613  37.1354485  72.6909103
  39.8848267  36.6875229  73.3796616  41.2000923  36.6522217  72.6314621
  11.3854904  17.4648647  88.0612411  12.0599289  16.7865963  88.0975113
  10.6090050  17.0131016  87.7307663  55.6328659  20.3919830  80.1616821
  55.6205978  20.8887768  79.3435898  56.4094238  20.7090626  80.6228180
  59.1034088   4.2750263  64.8055115  59.0706177   5.0662432  64.2677994
  59.5578270   4.5461717  65.6031418  14.9016209  62.6116295  23.5390759
  15.8037586  62.4340630  23.2729034  14.5091200  63.0448265  22.7811069
  70.4453201   4.8593054  36.2920418  69.6592560   5.1578002  35.8346214
  71.0443726   4.5974445  35.5929070  52.0794296  30.0116634   1.4316050
  52.7493210  30.5616341   1.8378158  52.1649399  30.1833076   0.4938105
  -0.0348100  32.6792679  41.2266884   0.3067689  32.0556297  40.5858803
   0.1850540  33.5381355  40.8658028  32.8872070  55.9515419  81.6259995
  32.9177742  56.6292458  80.9507141  33.6111069  56.1666603  82.2141571
  56.2083817   4.6713963  49.8644066  56.9626846   4.1184993  50.0682755
  56.4920349   5.5568738  50.0917854   6.3050933  50.1460114  35.6619644
   6.2479029  49.4708939  34.9858131   5.6514940  49.8894272  36.3125038
  59.3569870  11.1839304   1.4259243  59.8820381  11.9607792   1.6184268
  58.6408577  11.5081606   0.8797845  39.7432671   2.3436451  33.3688431
  40.4612427   2.3242965  32.7360992  39.1303749   2.9887028  33.0159988
  69.3772507  61.5875015  10.9139566  68.6862030  61.5802879  10.2516632
  70.0649872  62.1359711  10.5365505  50.9616089  57.9125938   4.8271961
  50.5202065  57.1773834   5.2524796  50.3339615  58.2240028   4.1750336
  33.4044914  11.9496374  80.7284393  32.6172905  11.9516125  80.1838837
  33.2995262  12.7072754  81.3039398  26.5495319  38.5323944  10.0317898
  27.4444561  38.7861862  10.2574673  26.0732613  38.5709610  10.8611946
  51.5329552  30.2409077  71.6042175  50.6886292  30.5124798  71.9642105
  51.5722160  30.6589985  70.7440491  76.3084259  25.7129650  80.4344559
  76.5318222  26.5245838  80.8900909  75.3522110  25.6786690  80.4612198
  46.7377777  62.8564529  71.2527466  47.3781548  62.3263588  71.7272415
  46.2116089  62.2200127  70.7686844  48.2977142  42.7099838  42.0390549
  48.8610191  41.9969597  41.7382011  47.4074821  42.3866234  41.9006310
  54.0197678  36.8667183  47.2380905  53.3369484  37.4035225  47.6403770
  53.7881432  35.9683723  47.4737892  62.8172798  30.7323170  11.1111393
  61.9352760  30.6576557  11.4754610  62.7100334  31.2819862  10.3348703
  15.4410496  21.0868664  68.3458405  14.5273771  21.2199688  68.0934143
  15.4649830  21.2985172  69.2790451  30.8438568  68.5732651  73.9219513
  31.1060276  68.4870758  74.8385086  30.1806641  69.2634735  73.9264221
  70.3808060   6.0649896  85.4574509  70.8892136   5.4918942  86.0313110
  70.9094925   6.8594580  85.3829727   0.4431655  40.8472672  81.8583755
   0.1621541  41.6324234  81.3884811   1.3181071  40.6637001  81.5163040
  35.5157585   3.5068855  11.3926992  36.2546692   4.0237246  11.7138300
  35.9180832   2.7325370  10.9993153  17.7689552   4.1709261  51.2386131
  18.2341347   4.9794707  51.4533081  16.9149685   4.2667499  51.6602211
  56.2530594  26.1242523  52.1678047  55.7114258  25.4096546  52.5027924
  55.8842545  26.3209419  51.3066864  20.0308895  16.1191883  66.3874664
  19.0929947  16.1651897  66.5731201  20.4463444  16.1256447  67.2497787
  43.5937309  64.1237793  46.3272018  43.2133675  63.2842064  46.5854034
  43.3476372  64.2255936  45.4077988  16.1481934  39.3738632   6.4384990
  16.0241432  39.6452255   5.5289912  17.0221977  39.6910248   6.6659923
  42.2336349  45.2381287  75.6354294  41.6572151  45.9987030  75.5612488
  41.9077263  44.6254005  74.9762039  85.4373322  52.8378410  39.7816048
  85.7069931  53.3195915  40.5635452  84.5853043  53.2095032  39.5532570
  23.4701691   7.1087370   5.3129954  23.4760265   7.5221958   4.4497170
  23.6984482   6.1949334   5.1424565  21.0806770  57.0338745  86.3874130
  21.6187725  57.5311661  85.7714691  21.6140614  56.2706947  86.6094284
  57.0591125   4.8614073  83.7911758  57.3993149   5.2405224  82.9807663
  56.1158295   5.0192480  83.7519302  82.2624359  65.8743362  15.2995214
  82.3635483  65.7298050  14.3587141  82.3865738  65.0090332  15.6894798
  17.2132988  20.0872192  11.1539288  17.3543873  19.1416912  11.2019463
  17.2137737  20.3761024  12.0664949  59.5464401  64.4031143   5.4066925
  59.6482124  63.6407394   5.9764805  58.6002388  64.4924545   5.2928677
  80.9915695  38.8667870  46.1780548  81.5641251  38.1044922  46.2635803
  81.3321609  39.3380508  45.4177017  11.9688692  48.0525513  75.7997894
  12.3958836  47.2337990  76.0518570  12.3401089  48.2623520  74.9428177
  84.9284668  65.9212952  16.6471214  84.2278671  66.4587708  16.2776356
  85.3131714  66.4674683  17.3326321  27.3370304  58.7265282   4.1903167
  27.3148155  59.5499001   4.6779623  28.1405296  58.7764435   3.6725037
  29.9326706   1.4550869  86.6363678  30.8147888   1.7897234  86.4747543
  29.4856873   1.5416213  85.7943726  39.0819626  17.8061199  86.0048065
  39.7261047  17.7437572  85.2995224  38.6116486  18.6209049  85.8282776
   8.3629665  16.1860561  53.4161263   8.1756077  16.8662624  52.7692490
   9.2766371  16.3332081  53.6606369   1.3124762   8.9281435  73.8589172
   1.2691996   8.9074421  74.8149185   1.8997661   8.2077541  73.6300964
  25.4583416   5.8441858  13.3178883  25.9603500   6.2980738  12.6409807
  25.7763157   4.9418602  13.2873554  74.3522491  50.6640930  18.8552036
  74.4387589  50.7850494  17.9096260  75.2489395  50.7151070  19.1862221
  49.5759659  34.9199677  68.5121613  49.8104210  35.1012001  69.4223404
  50.0367966  35.5905800  68.0080414  40.0392647  64.4397278  11.3661089
  40.3007889  65.1794281  11.9144545  39.1710663  64.6778412  11.0408916
  84.0186539  43.2340851  69.3370972  84.0726395  42.2922096  69.4989090
  83.3272934  43.3252220  68.6813965  53.8277016  43.9468307   6.7425423
  53.8837318  42.9972153   6.6361160  53.1349754  44.0747528   7.3906145
  26.4097176  15.4001131  73.5568771  26.3273201  15.7134142  74.4575882
  27.0795650  15.9625225  73.1679916  84.9568863  26.5330601  66.9752502
  84.7280045  26.9183006  66.1294174  84.6035309  25.6442871  66.9371185
  39.2686768  17.1612835  12.6323757  39.1662788  18.1129913  12.6325808
  38.6239967  16.8511639  11.9964151  55.3142433  61.6317940  49.2538528
  55.3742485  61.1176109  50.0589905  56.2200661  61.8649292  49.0504799
  44.2911110  21.9657459  84.6137238  43.7716026  21.4784985  85.2532043
  45.1213264  21.4914970  84.5683212  63.3389206   8.8147707   1.7473177
  62.9815140   8.2347250   2.4196565  64.0437241   8.3080988   1.3438684
  61.6599159  29.6354313  53.9292412  60.9267883  29.1257553  53.5843048
  62.2446709  29.7510033  53.1802826  84.3215866  52.4432755  82.0531158
  83.6534576  52.8191719  81.4799347  85.0946198  52.3567810  81.4952850
  50.4473801   1.6440976  69.4696198  49.8440590   1.2445242  70.0961761
  51.0893784   2.1008382  70.0131760  78.8119507  44.8028412  16.0859318
  78.3298111  45.2287064  16.7947407  78.8496094  45.4614754  15.3923807
  33.3690529  40.5622711  58.4711418  34.0086365  41.2632332  58.5969086
  33.5848541  40.1918564  57.6153069   7.2724428   3.3711016   8.6542549
   7.5970669   2.5315609   8.9798660   6.6690454   3.1373088   7.9489298
  22.2564011   1.6256285  76.9667282  22.9653835   1.0540940  77.2615585
  21.5322742   1.0296652  76.7751541  84.8708878  30.4981499  81.4603577
  85.4323196  30.8063221  82.1717300  83.9821014  30.7028580  81.7508469
  58.5920372  26.4791393  78.0767975  57.7037430  26.3234634  77.7559738
  58.4829674  26.6440525  79.0133591  74.8552475   9.9631634  81.9057007
  74.4160004   9.9501133  81.0553284  75.6364441  10.4977379  81.7635880
  56.1322327   7.5033541  34.8593979  55.6053505   8.1793070  34.4331169
  56.4327126   7.9107294  35.6717949  65.7318497  61.5731697  79.1682663
  65.0314178  61.8408508  78.5733109  65.8165665  60.6298828  79.0294800
  47.6302795  45.7669563  20.9706364  47.6193733  46.6487961  21.3427601
  48.2525291  45.2848511  21.5152512  13.9381275  43.2739754  13.0846214
  14.5892134  43.0700912  13.7560005  14.2795458  42.8668785  12.2884188
  17.6713085  47.4281235  10.7367287  18.1403732  47.4593315  11.5705366
  17.4507332  48.3409996  10.5516939  58.0051003  21.5409222  81.1591339
  58.1455956  22.4785938  81.0277405  58.2355347  21.3903561  82.0758972
  49.0497169  56.2892342  44.6502304  49.7784882  55.7156067  44.4134254
  49.4675522  57.1007347  44.9385109  57.9193153  34.6932030  26.0083141
  58.6447220  34.9274101  26.5872498  57.7222824  33.7825317  26.2276039
   1.7649424  39.4277344  32.7169189   2.6863794  39.3807106  32.9718208
   1.6447880  38.6922722  32.1161766  45.5350952   9.6218824  65.3988724
  46.3334885   9.8765163  64.9363098  45.7435036   8.7717323  65.7862244
   7.8778777  54.9717102  19.4373169   7.5962520  55.7139511  19.9721031
   7.3668623  55.0494041  18.6316757  83.3715668  66.4899673  36.9301643
  82.7556229  66.0273056  37.4983025  84.1746216  65.9709625  36.9746094
  29.6038723  11.2494087  77.9101486  28.8742790  11.8077106  77.6414032
  29.5914459  10.5227003  77.2872772  84.4244614  25.8139782  27.6211033
  84.3756027  26.6070766  27.0874004  84.8089905  26.1050053  28.4479446
  40.1034393  32.1931992  76.3036346  39.5158958  32.3137550  77.0496140
  39.5276909  31.9314499  75.5851364  81.0725632  42.0694847  13.7554436
  80.8759995  41.1392250  13.8659401  81.2329102  42.3875809  14.6438885
  79.7458649   6.8869328  19.9801254  80.0439148   6.3341985  20.7025394
  79.2417221   6.2971787  19.4195347  79.6302567   9.7180605  76.3425980
  79.9472427  10.4065018  76.9272308  79.3348007  10.1848927  75.5609283
  75.0759430   3.0946932  85.8183975  75.2247162   3.0481505  84.8739777
  74.1371613   2.9384952  85.9209671   0.4530953  14.1039858   2.5974541
   1.1292206  13.4523392   2.7830439  -0.0497447  13.7282629   1.8748084
  38.2014198  69.4646988  85.2154312  37.6350021  68.7570953  85.5231705
  38.2414055  69.3440857  84.2667084  47.9207306  36.3577728  48.3750877
  47.7833138  35.8670082  47.5648422  47.1049156  36.8417778  48.5032349
  40.5616989   2.8493209   0.8763205  40.5276031   3.8045504   0.8252718
  40.0812378   2.6349003   1.6759539  70.3814392  43.3414803  37.8651657
  69.6215820  42.9535828  38.2992058  70.0252609  44.0835457  37.3765907
   3.8112063  26.9233055  85.6699295   3.5538366  27.8415527  85.7524567
   3.7008891  26.7263203  84.7397308  67.0322418  43.2296219  35.2944450
  66.1671753  43.0749397  34.9150238  67.0100403  42.7730370  36.1354370
   3.8442409  51.5163269  82.1935043   4.6096749  51.4536552  82.7648315
   3.2621787  50.8190460  82.4955597  12.4493876  62.1629143  59.7383003
  13.3155947  62.0734711  60.1356850  12.3096943  61.3345680  59.2794304
  23.0367718  42.6364746  53.2878265  22.9740944  43.1626396  54.0849800
  23.9744358  42.4782143  53.1784172  43.7390900  68.9542847  62.2578049
  43.6835136  68.8433228  61.3086853  43.0549583  69.5908890  62.4649925
  36.5859489  43.2023087  46.5602341  36.4729881  42.6056213  47.3001213
  37.4878807  43.5130997  46.6387138  43.4569893  30.0538578  88.2654419
  44.1995468  29.5934486  88.6564178  42.6867180  29.6417847  88.6567383
  72.1950684  33.2763824  50.7538643  72.6096954  34.0846214  50.4520988
  71.2627792  33.4883118  50.8002434  63.3452492  68.4156494  73.3020935
  64.0269928  69.0839081  73.3720016  62.7558060  68.5973434  74.0340576
  73.3067245  50.2431068  31.1009865  74.0635071  50.7330933  31.4225788
  73.6613998  49.6777763  30.4148102   1.3031245  59.9198990  32.2586823
   1.5372642  59.9662018  31.3317184   1.3716155  60.8230057  32.5684204
  38.7332573  58.6213684  13.7717113  37.7839088  58.7436600  13.7679558
  39.0836601  59.4746704  14.0273037  25.8817348  60.0426712  68.1813431
  25.1968651  59.9949760  67.5143280  26.6839027  59.8002510  67.7187500
  60.6712685   8.6136684  86.5134888  61.3237610   8.8439713  87.1748810
  61.0204926   8.9721088  85.6975250  67.2402802  16.5118713  76.6156769
  66.7696609  16.0901318  75.8967361  67.7088852  15.7973003  77.0469971
  57.5457115  52.6014061  11.9071779  57.5182381  52.4030876  12.8432045
  58.2606392  52.0622025  11.5689888  56.8033943  32.0949631  82.6149750
  56.0512695  32.0305481  82.0264282  56.4223022  32.2975998  83.4693375
  50.4326210  12.7461281  19.4037132  50.2060699  12.7699375  18.4740162
  50.9979401  11.9788656  19.4929028  62.4270515  30.2691479  27.6844826
  62.8440361  29.6320248  28.2645073  62.9035454  31.0842381  27.8419952
  20.4658203  70.8385010  72.7426834  20.2541313  70.1540070  73.3774185
  19.6245804  71.0668945  72.3472290  84.7648315  30.6671486  28.3795509
  84.6448746  31.6045837  28.5313931  85.0857010  30.3282795  29.2152786
   3.7147319   6.8497396  28.8226585   4.4569016   7.1420779  29.3517647
   3.0564959   6.5785298  29.4625034  83.3988724  19.6090050  57.4850769
  84.0316162  18.9632664  57.7995415  83.0397034  19.2230377  56.6861649
  11.0940132  19.5883846  19.1685314  10.4870911  18.8673820  19.0011024
  11.5684557  19.6983414  18.3444881  72.7332687  69.5598145  20.2431946
  72.8128662  70.4311447  19.8550262  72.0730743  69.1188126  19.7085114
   2.9214966  54.8183823  21.8211460   2.6985178  55.4909744  22.4646759
   3.2647104  55.3070641  21.0730629  26.1549320  28.2347794  17.7804947
  26.8243580  27.8380814  18.3379269  26.4624233  29.1297951  17.6368828
  19.5063419  41.4941330  80.1939468  19.0564575  40.6521835  80.2643661
  18.8885059  42.1271553  80.5597305  80.8403091   8.9976549  22.1455784
  80.2391891   9.2327480  21.4387455  81.6329575   9.5024996  21.9637337
  41.9705238   1.6939433  13.6904202  42.5305634   1.1323643  14.2263470
  42.5797348   2.2747939  13.2346706  83.6116409  46.2239304  40.0210876
  83.0651321  45.7774010  39.3744316  84.4768600  46.2679100  39.6140251
  24.6245251  53.7822609  42.0192146  25.2713947  53.7421646  41.3148117
  24.0348587  54.4913330  41.7628174  84.5214157  18.7237301  48.4800987
  84.0822678  18.7432346  47.6298065  83.9898682  19.2922459  49.0372963
  50.3254700  62.2816811  23.0255184  49.8702698  62.7598877  22.3324509
  49.6877747  62.2267570  23.7372456  23.1292191  52.4303093  82.1832123
  22.8842163  53.3439560  82.3296890  23.8196106  52.4706116  81.5214233
  39.2527428  23.1304111  75.1460800  40.0608482  23.4727497  75.5281830
  39.5369225  22.6734829  74.3544464  12.3361244  44.7131042  36.9297371
  12.8478527  45.4967422  36.7290535  12.2149239  44.7427292  37.8787689
  48.3829384   4.3711581  87.1139297  48.4236221   5.3274889  87.1110458
  48.8628006   4.1133885  87.9010239  30.1383152  64.8274078  61.0246162
  30.0704594  64.5051575  61.9233856  30.1060467  65.7803574  61.1087761
  24.1310101  16.7992783  53.8328018  24.5134716  17.5186405  54.3352661
  23.5867691  17.2302456  53.1737862  73.8427277  44.1708679  79.4650192
  73.8050079  44.6752052  78.6523361  73.0269852  43.6701660  79.4742584
  40.0578423  47.0049629  63.3712425  40.3622665  46.7115707  64.2300110
  40.4026756  46.3542862  62.7597351  70.4016953  49.5000191  71.2568359
  71.0347595  50.1267700  70.9066391  69.7486725  49.4063034  70.5632858
  47.1278381  11.2587261   9.2683411  47.3741837  11.7699604   8.4975061
  47.9280396  10.7940798   9.5133238  57.9709473  42.1457939  64.1249771
  57.1994362  42.1348572  64.6914444  58.3395767  41.2660866  64.2053375
  33.0400734  30.5278053  14.0306988  33.2246666  29.6921883  13.6018639
  33.7267761  30.6145554  14.6918678  41.4221115  27.9801846   2.7209148
  40.4664230  27.9395008   2.7560496  41.6961365  27.9703808   3.6380012
  43.1199608  71.1497955  53.1276474  43.0232544  71.7003479  53.9046745
  43.9761963  70.7350769  53.2330055  16.8773441  11.2375860  11.4990854
  16.0514526  11.5242672  11.8888912  17.4723759  11.1410809  12.2426281
  34.5907936  50.5367012  73.4950943  35.2000465  50.5867615  72.7585220
  34.4709320  49.5986977  73.6434555  65.4681702  60.7541962  34.8684654
  65.7231750  60.8987236  35.7796822  64.7688065  61.3887215  34.7119408
  12.1281939  59.9612274  51.3076820  12.8075600  60.5799332  51.0395470
  12.1955500  59.2437057  50.6777191  60.7260399  11.6614828  28.3312397
  61.5731163  11.2310200  28.2154980  60.5126991  11.5260162  29.2544765
  41.9154129  27.6988811  74.5711212  41.9213219  27.0621529  73.8564377
  42.8244667  27.7331219  74.8689194  25.5791245  38.4738503  87.2557755
  25.4196815  37.8875389  86.5161438  26.5301113  38.4690475  87.3645477
  46.6289406  38.4753036  17.2397041  46.7009010  38.4405975  16.2858429
  47.4171600  38.9388618  17.5226498  14.2128849  42.4490700  83.2321472
  14.7457476  42.6340866  84.0054855  14.8456631  42.3722878  82.5180511
   4.5186262   9.9545774  45.8507729   5.3684745   9.6088552  46.1236572
   3.9265740   9.7285805  46.5681496   4.3371229  32.4226379  48.0173111
   3.9694464  32.4454803  47.1338387   4.0746121  31.5699291  48.3640175
  27.0023251  55.2889671  19.8397312  26.6940804  54.3878441  19.9356003
  26.4998627  55.6368828  19.1030369  26.9842358   4.6248116  76.4218063
  27.9143410   4.5292401  76.2168579  26.6115704   3.7595043  76.2527008
  43.5291214  13.1195974  71.6422653  43.7090607  12.2531748  71.2773438
  44.1730080  13.6930218  71.2265396  18.8237820  44.7701721  78.7642288
  19.3605003  44.7072639  79.5542984  18.4966698  45.6697350  78.7678986
  17.2061367  63.7197571  52.0738220  18.0124207  63.2244682  51.9295120
  17.5034866  64.6026764  52.2935333  69.0431442   6.1094465  12.5835400
  69.4822617   6.1835861  13.4308386  69.1510239   6.9714561  12.1816273
  60.7343445  62.3096466  39.7353439  60.1358490  62.0750198  39.0261269
  60.6027145  61.6286278  40.3949776  41.3509598  36.7519722  55.9515724
  40.8282776  36.7932816  56.7523994  41.3793526  35.8207664  55.7318535
  69.0309219  64.3108673  32.1190147  68.2936783  64.9211349  32.1022339
  68.8058090  63.6820984  32.8047295  75.1433029  61.3058701   4.5048251
  74.4176865  61.3109627   5.1290760  74.8064575  61.7761383   3.7421894
   8.7133570  47.8252258  51.6878891   8.8880053  48.4221840  50.9603119
   8.8788910  46.9539108  51.3278389  85.5968933   6.6097617  19.2483482
  85.5300140   7.4708290  19.6610508  84.7554779   6.1911106  19.4299717
  70.8343964  28.9711246  84.3657913  71.0080490  28.3457088  83.6622772
  70.5479507  29.7653885  83.9148712  43.5717888  66.4516449   5.0622668
  42.7363396  66.0090485   5.2118087  44.2202950  65.7476349   5.0685596
   5.2912021  68.7960052   3.2290664   5.4145842  68.8434448   4.1770949
   5.5878625  67.9171906   2.9926085  71.8809280   8.1986866  84.8266754
  72.7044067   8.0875912  84.3515167  71.9510574   9.0647631  85.2282028
  59.9744720  37.7419624  33.4950867  60.2727661  38.6323509  33.6807175
  60.2391548  37.5847588  32.5887413  66.9758072  34.9802322   7.5768166
  66.7957001  34.3105164   8.2365704  66.1204987  35.3659782   7.3873978
  37.3886070  55.0513153  24.0962753  38.2279625  54.7222099  24.4178467
  37.1329765  55.7184372  24.7333260  25.0838432  52.2678680   9.9905338
  25.4060173  52.0453186  10.8639784  25.6728153  51.8067131   9.3933086
  67.0252075  66.9594955   7.6981859  66.9979630  67.1529312   8.6352396
  66.1413422  67.1554871   7.3873687  46.9438438  28.7388172  66.1681366
  47.6077385  28.5455341  65.5062256  47.3950500  29.2924957  66.8053818
   9.0014677  44.1785431  85.9778061   8.2801886  44.8066673  85.9397354
   8.8328981  43.5760651  85.2533569  12.2750788  54.1665421  17.2035275
  12.8747826  53.5980186  17.6866093  11.5595570  54.3358002  17.8164005
  26.5650997   8.5733194  57.2709351  27.2322636   8.4083214  57.9371910
  27.0221100   9.0700064  56.5922050  74.2208328   6.9688234  44.0182648
  74.6022949   7.1088982  44.8849258  74.6757431   6.1984186  43.6780205
  38.6358871  26.3442974  11.9956970  39.3723450  26.7774754  12.4272261
  38.0918121  26.0235271  12.7149477  27.9309654  35.8565102  16.6954765
  28.4059391  36.4132347  16.0784740  28.5971584  35.5674362  17.3190575
  38.4620476  65.8867264  50.3130646  38.9764061  65.0960083  50.1505051
  38.2864990  66.2416306  49.4415970  43.7205124  52.7361374   0.9658939
  43.7541275  52.5988464   0.0191873  44.6361656  52.7132225   1.2438968
  70.1266022  66.2059326  66.5548401  70.8122482  66.4473267  65.9320602
  70.4735641  66.4695206  67.4071198  86.0147629  25.3346615  13.6763563
  85.9347916  26.2597027  13.4436893  86.1972351  24.8938751  12.8465109
   3.4140017   9.9456892  29.5577850   3.7874277   9.0887785  29.3516560
   3.5814254  10.0611982  30.4931240  38.7973404  46.1193542  41.8305779
  39.5067749  46.2085571  42.4669571  39.2100830  46.2966881  40.9853401
  14.4895401  64.1359482  76.0407257  14.4996414  63.2726860  75.6273117
  14.1030006  63.9839935  76.9031296  33.9159355  22.4954720  10.1169729
  34.0874138  23.1525364   9.4423676  34.7750969  22.3129673  10.4974527
  44.4012909  55.2066269   7.0780559  44.3496666  54.2915039   7.3539500
  43.5417252  55.5698929   7.2911687  11.1150150  13.8092480  18.6484127
  11.8610077  13.9342604  19.2350121  11.4069347  14.1672421  17.8100491
  45.4633369  58.2915955  80.1133728  46.1399994  58.8155746  80.5421066
  44.6722603  58.4556274  80.6267166  79.7489700  55.2014694  19.2809563
  79.3318176  55.3417282  18.4309330  80.0308838  54.2869339  19.2614117
  44.7491684  68.3239517   3.1232073  44.3983917  67.5673447   3.5930336
  44.5018005  68.1749573   2.2106066  15.9186878  41.2386475  74.5020599
  16.1793976  41.7629662  75.2592621  16.7407398  41.0402756  74.0536118
  18.9925079  28.2948799  83.2991104  19.3066368  29.1729259  83.5149689
  19.5324173  27.7099400  83.8306961  43.9456940  34.2401505  23.1882782
  43.8005371  33.7341690  22.3888111  43.7361183  33.6325836  23.8976250
  16.7767391  43.7967300   5.5403905  15.8667431  44.0212593   5.3461537
  17.1843739  43.6848259   4.6815877   4.3837547  52.3675117  23.1479053
   4.0712066  52.1150436  24.0167007   3.7680967  53.0407562  22.8581829
  12.8046303   4.6344995  64.3448563  12.7221317   5.5254121  64.6849976
  12.0119553   4.1893768  64.6444550  72.2762604  17.4908619  71.5413284
  71.3805161  17.8046741  71.6653824  72.2712860  17.0896378  70.6722946
   7.7798014  52.1444092  73.7859802   8.6214170  52.3412285  73.3746719
   7.3122625  52.9796562  73.7863846  18.2334480  47.6440392  44.7410507
  19.0431881  48.0257263  45.0799713  18.5095329  47.1336441  43.9797974
  34.0951271  58.1347466  84.9618225  34.4038353  57.6889954  85.7506409
  33.2357178  57.7498665  84.7900238  80.5499725  26.1418915  44.8670273
  79.9786377  26.5726471  45.5028381  81.1183624  25.5823708  45.3962708
  63.5155983  13.4116611  76.1961365  64.0627136  13.4271441  76.9814072
  63.2612190  14.3248463  76.0634155  30.2979488   9.4481487  20.9908447
  31.0856075   9.0198574  20.6555920  30.3735065   9.3775148  21.9424400
  38.1500053   6.0663576  23.6659298  38.9249458   6.6247005  23.6030693
  37.4122620   6.6694880  23.5753651  85.8950119  65.5096893  27.0117855
  85.8535767  66.0858307  26.2485218  86.3048325  66.0432510  27.6926613
  59.4713249  33.8617210  17.9001884  59.4213943  34.4736595  18.6345387
  60.3973503  33.6250839  17.8481464  20.1471405  29.2483521  64.8515549
  20.6486416  30.0629921  64.8845673  19.8216686  29.1311169  65.7440491
  82.7874146  42.9766006  41.4284172  82.3227158  42.9110374  42.2626801
  82.4201736  43.7553864  41.0102577  67.6122437  67.4546738  83.4677353
  67.7269287  68.4041901  83.5065155  68.4759293  67.1002731  83.6791077
  24.8008404  69.3137894   4.0766201  24.9674263  69.9338150   4.7865834
  25.0711975  68.4664078   4.4302988  81.7311249  53.2985725  58.5628967
  82.0904388  52.4130287  58.6170883  82.3913651  53.8509750  58.9814262
  17.5793495  11.0521898  87.0802307  17.2424870  11.7931738  87.5839157
  16.7970505  10.5739269  86.8054581  64.1188889  20.7941399  45.2531052
  64.0229950  20.5980949  44.3211174  63.6062546  21.5918217  45.3840446
  84.1831055  24.3463650  82.2469559  84.3213196  25.0037155  81.5650330
  84.7798386  23.6340084  82.0174103  52.6881332  58.5669136  73.1185608
  53.1256714  57.8682823  72.6320343  51.9489899  58.1343956  73.5461426
  73.5885925  23.1529026  10.1049833  73.1671524  23.1079941  10.9632387
  72.8721924  23.3299389   9.4953403  27.7055817   9.1769066  21.8172188
  28.3255806   9.1961994  21.0882053  27.5856647   8.2460146  22.0050812
  27.1260719  59.6429176  39.4092674  26.3914490  59.4669838  39.9971542
  27.5799026  58.8034058  39.3351669  43.3887787  71.0633316  14.6326084
  42.8456230  70.2818985  14.5297289  43.9580460  71.0623398  13.8630838
  73.0810776  13.9716425  47.1398048  73.9666290  13.9110985  47.4980774
  72.7776947  13.0648241  47.0965271  22.9264088  47.0075989   7.4665003
  22.8967514  47.2847672   6.5507879  22.0184784  47.0660286   7.7639556
   4.1018443  63.2578392  31.7932396   3.2299778  62.9641151  32.0574493
   4.4280343  62.5595398  31.2256050  66.7310715  48.4500580   9.5702744
  66.1107025  49.0058556  10.0419388  66.6068268  47.5790138   9.9472027
  78.9803085  29.5975266  82.0025635  78.1306000  30.0302219  81.9188538
  79.6160355  30.3129387  81.9862671  28.3767605  48.1121178  36.6186523
  27.8381920  48.2870827  35.8469276  28.7837467  47.2644691  36.4395256
  20.1631336  13.5645084  88.4399567  19.5158710  13.1458225  89.0073929
  19.6562843  14.1836777  87.9146271  84.0380478   8.5004578  14.2507772
  84.7928238   8.6423073  14.8221054  84.1124573   9.1813545  13.5821409
  54.1273460  41.6633034  62.5071030  54.9719543  41.8461685  62.0954857
  53.4923820  42.1410294  61.9734116  84.0252151   9.9205227  30.1515160
  83.9089966   9.4972601  31.0021477  84.6439972   9.3574972  29.6863842
  81.5014343  66.5941391  55.8769836  81.6138535  67.2567673  56.5585365
  81.7955322  67.0241852  55.0739899  43.4695778  46.0687752   5.2373562
  44.1787186  46.7059288   5.3232737  43.7488899  45.4942055   4.5245543
   5.7642751  70.6661758  54.2803001   5.0572929  70.4978027  54.9032440
   6.1112642  69.7988358  54.0716362   5.4665432   9.4718332  72.6760941
   5.2766891   9.3597450  71.7446289   4.6385798   9.2757654  73.1145782
  68.0529633  56.3071785  82.2459412  67.4255066  56.9874992  82.0016022
  67.8254623  56.0845833  83.1486740  46.3199883  24.3057594  50.4133186
  45.8675194  23.4993992  50.1657524  45.9014816  24.9866352  49.8865433
  50.3768387  58.3554535  34.0671120  50.3213120  58.9060783  33.2861137
  49.5016441  57.9783897  34.1570473  44.8579597  38.6110039  79.2188263
  45.2955055  39.4597931  79.1529617  45.4372368  38.0850754  79.7702484
   9.8114471  49.3403854  65.6745071  10.5665064  49.7147598  65.2206726
   9.9823732  48.3986588  65.6872025  13.8363962  69.6736069  24.7999611
  13.3713255  70.4452744  25.1231842  14.4479027  69.4510269  25.5019226
   0.6847869  20.5388813  88.1267700   0.3193066  20.7925072  88.9743118
   1.5097163  20.1037807  88.3422012  38.0309219  56.0130577   9.1724463
  37.6570930  55.1915398   9.4911785  38.1777878  56.5320854   9.9631872
  51.4617691  69.3229675   9.3609266  51.3510208  68.4725494   8.9357777
  52.1691208  69.1854477   9.9909859  18.2638016  35.6684380  18.3295593
  17.3567753  35.4096832  18.4925957  18.3461227  35.6650162  17.3759117
   9.7635260  51.8402023  51.6908493  10.2251415  51.2129478  52.2473526
   9.4312391  51.3151703  50.9627304  53.3000984  63.3601494  44.9658699
  53.9633789  63.0346680  45.5744362  52.7508202  62.5984802  44.7804451
  24.5262775  24.6784115  72.9572372  23.7089977  24.8782597  72.5007858
  25.2073078  25.0742741  72.4134293  62.6468353   3.4332309  25.1597919
  63.4183846   2.9545510  25.4627876  62.0182915   2.7505221  24.9251156
  56.2871475  47.7269249  13.1766281  55.9556923  46.8909492  13.5045261
  57.0280380  47.9312210  13.7472172  79.6962357  19.8922787  78.3489990
  79.3971252  20.7860622  78.1819229  80.3946152  19.9904690  78.9961929
  62.1584549  44.7274170  54.4441490  61.7540779  45.2951622  55.1001816
  62.9638176  44.4180908  54.8588028  82.3389816  31.7110500  75.5318604
  81.9541473  30.8369884  75.4674530  82.8661041  31.7997723  74.7378159
   5.9661403  25.4303932  39.7994156   5.7740917  25.0974827  38.9227638
   6.3301039  24.6784821  40.2667389  51.6576538  56.7010078  56.5007629
  52.6008644  56.7368774  56.6598167  51.2686577  56.6637535  57.3745651
  85.7636871  66.5520401  85.8188248  86.5256882  66.0539551  86.1146240
  85.8455582  67.3984985  86.2581787  19.4850349  28.7754555  67.3300400
  19.5893402  27.9803734  67.8527222  18.7607174  29.2425461  67.7464752
   3.4926422  -0.0443808  20.0108032   3.9979150  -0.3030365  19.2400723
   3.6421950   0.8977298  20.0901356  62.6107140  15.9762259  62.2986145
  62.9563179  16.0857944  63.1844978  63.1839371  15.3233032  61.8969460
  33.8869057   0.4070135  21.4935532  33.0558205   0.6430186  21.9056587
  33.6529388  -0.2583992  20.8464699  85.9149933  59.8429871  86.6222916
  86.3245850  59.0981064  86.1822662  85.2227707  60.1237106  86.0237427
  34.5736122  70.7997360  30.4138184  33.7383957  70.9881592  30.8417740
  34.3368759  70.5803680  29.5126705  56.3862953  64.4138489  87.3368301
  57.2145233  64.1015549  87.7011642  56.2656593  65.2805710  87.7247391
  35.5455856   6.0778670  83.9163284  35.4320183   5.6676455  83.0589828
  36.4920120   6.0754681  84.0595169  26.8779869   3.3123894  21.1032295
  27.6634846   3.4655159  21.6283760  26.1694870   3.2520151  21.7440224
  40.5890923  39.2298470  23.9502468  41.5287247  39.2056046  23.7693043
  40.2243271  38.5229912  23.4177666  48.5150719  15.6506891  82.0444260
  47.8007927  15.5867004  81.4104385  48.2539330  16.3627567  82.6283798
  83.5749512  53.6560860  68.6479950  83.3524780  53.8787651  69.5519562
  83.9710388  52.7866173  68.7060394  78.0147247  32.9209595  37.0678406
  77.8850250  31.9726715  37.0804596  77.6439972  33.2244568  37.8964996
  68.1762619  36.3695412  70.1717987  67.7264557  35.5257072  70.2148438
  68.5601730  36.3918686  69.2952423  69.7592010  46.2974854  63.7015381
  69.0479050  46.8675385  63.9936409  69.7242661  45.5474815  64.2952576
  81.8179550   4.2398143  88.8964996  82.4747849   4.8573251  88.5748138
  81.1041260   4.7930613  89.2136765  71.8518677   8.3457289   6.4254999
  72.3308105   9.0156260   6.9134369  70.9909134   8.7334452   6.2684245
   6.8519201  53.1057549  69.8910980   7.3125963  53.8180161  70.3346024
   6.1068153  52.9116974  70.4597702  73.0268097   8.7057133  16.0806923
  73.8971024   8.6648359  15.6842728  72.6795654   7.8185315  15.9881659
  60.5119095   0.8274542  45.9261742  60.5002975   0.1527265  45.2473221
  59.7924728   0.5907234  46.5114899  28.3364258  49.9881744  38.6139183
  28.2797947  49.3237305  37.9272308  29.2683601  50.0327454  38.8278008
  61.2217178  54.8577919  40.0611839  61.3965225  55.5317268  40.7180634
  61.0159798  54.0741539  40.5709000  71.1955872  64.2417526  55.0168724
  70.5445175  64.9411774  55.0729370  71.5623703  64.1846695  55.8991661
  74.4583740  42.6079750  42.2077789  75.0306168  42.1049461  42.7872009
  75.0512924  42.9992828  41.5662498  32.2801895   5.3153076  86.5221863
  32.8548851   6.0082097  86.1968536  31.4309807   5.5005031  86.1212158
  53.1380310  55.4889107  68.5304642  53.0247955  54.6186256  68.9125900
  53.7116165  55.9473343  69.1445389  34.0689507  67.5695114  41.2844734
  34.6066093  67.7790527  40.5207672  33.3579521  67.0313568  40.9364586
  36.4484062  71.7589798  69.7348480  35.6831322  71.1910248  69.6452942
  36.9940033  71.3241501  70.3901978  67.8382416  62.7014809   8.3844013
  67.5323410  63.2718239   7.6791558  67.2236786  61.9676247   8.3825617
  11.0351019  69.9572220   0.9932480  11.0944300  70.7321243   1.5520266
  11.1939449  70.2869797   0.1087926  11.9541187  13.6937609  22.0849323
  11.4422836  14.3758163  22.5197392  11.3068628  13.0392456  21.8224411
  52.8915367  16.2826214  61.0182915  53.1031418  16.9130516  60.3298073
  52.1488037  15.7888088  60.6708374   2.1694410  52.8532639  74.6086273
   2.7730279  52.1601601  74.8760605   1.3087842  52.5432663  74.8904114
  38.4979477  46.5089874  12.2547598  38.9687805  46.0203094  12.9298477
  38.7775764  47.4162521  12.3768806  77.2497864  60.5284882  43.6533241
  77.2193375  59.6182289  43.9478226  76.9199600  60.5008011  42.7551689
  36.0710869  54.2982597  17.1978493  35.4321060  54.1544113  16.4998188
  35.5557251  54.6433067  17.9269447  41.0613861  34.3801041  88.7893219
  40.6156731  34.0917587  87.9928055  41.7539291  33.7331657  88.9238129
  26.4205532  58.1425858  87.4523468  25.9706478  58.9697914  87.6242523
  26.2150307  57.5960312  88.2108078  50.6382523  34.4405403  65.1257553
  51.5566406  34.7072716  65.0851440  50.2106667  35.1304893  65.6330719
  44.6394730  28.8686295  74.9214783  45.1990280  28.9764729  75.6905670
  45.0019951  28.1086788  74.4661942  80.0889130  58.0989304  71.2449265
  79.4186783  57.7071381  70.6849976  79.5950317  58.5588951  71.9237061
  56.6879311  40.6572914  68.7254791  56.8536072  41.3784370  68.1182404
  55.8547020  40.2862930  68.4350967  30.7697678  33.6055946  61.9580269
  29.9483547  33.3775444  61.5227089  31.2609863  32.7845917  61.9878845
  29.4753437   3.6154730  15.0221128  29.7957497   3.8645060  15.8890352
  29.7443600   2.7024910  14.9204969  84.7942657  22.8886223  57.1437912
  84.1496811  22.4499435  56.5885353  84.7063217  22.4617538  57.9960136
  71.8691711  35.5398178  86.6699371  72.0692139  35.4760666  85.7360535
  71.8412094  36.4804153  86.8452301  48.2219772  55.8054543  13.9925566
  48.4950790  55.4292679  14.8292961  47.2819061  55.9553070  14.0927639
   3.6184192  33.6456909   4.4720678   3.5711117  34.0767212   5.3254175
   2.8110499  33.9046440   4.0278502  59.1513252  51.4087982  80.5993652
  59.7768364  51.6782417  79.9267807  59.0253220  50.4721107  80.4477997
  31.7529278  14.2332201  12.5204239  32.7060318  14.1819239  12.5924702
  31.4436970  14.2292328  13.4262896   3.9134181  63.4860725   5.6083450
   3.3876345  63.6134796   6.3979969   4.2044702  62.5755882   5.6587129
  83.7449036  61.5424538  43.9658623  82.8488464  61.8687973  43.8833237
  84.2255936  62.2628860  44.3734779  50.2019958  43.1500664   7.8279538
  49.6877518  42.6014252   8.4202194  50.9547310  43.4265938   8.3505964
  61.9812775  28.5253582  42.4861183  62.6712875  28.6655731  43.1345444
  61.8586693  29.3823338  42.0777130  63.6475105  54.9217949  29.2164860
  63.6076279  54.6173363  28.3098736  63.6373253  55.8765717  29.1491795
   8.9771128  63.6211853  47.0743523   8.6375389  64.4274826  46.6860161
   8.9631062  62.9860916  46.3583298  83.2716904  65.8746262  76.1842575
  82.7238770  66.4474640  76.7209091  82.7537231  65.7189178  75.3945160
  75.9396057  39.0845871  81.4995422  75.2892380  39.7855835  81.5425568
  76.7695541  39.5368309  81.3482285  51.6024704  11.0973024  83.0178909
  51.0224495  11.5050287  82.3748016  51.2346573  11.3482418  83.8652267
  27.5647812  53.0303040  14.5177631  28.3883934  53.4627762  14.7432880
  26.9676895  53.7478065  14.3058596  72.7449265  45.8984909  32.5533714
  72.7093048  45.7586555  33.4996338  71.8698273  45.6650085  32.2436485
  83.4664764  70.6123810  44.8630943  84.4194260  70.5490417  44.7989197
  83.1598587  70.5340729  43.9597206  15.3594360  42.4852028  26.5423584
  14.5235691  42.7003632  26.9561996  15.6588411  43.3116417  26.1634350
  48.8049355  61.1506233  28.2572460  49.4678268  60.5341759  28.5683708
  48.0596962  60.5999756  28.0171738  35.9284019  40.8561974  71.3167267
  36.6784515  41.1372299  71.8408279  35.5785713  41.6662064  70.9455948
  53.7891083  39.1901970  82.8857956  54.6601410  39.3917198  83.2277374
  53.1882553  39.6340408  83.4842987  73.7670288  65.9707413  72.5905991
  74.3519897  65.5202103  71.9814453  74.2450180  66.7612457  72.8413162
  75.3648834  51.8021812  32.3826332  76.1681061  51.9263878  32.8882332
  74.9382248  52.6589203  32.3965378  66.0710068  42.3762207  60.2844543
  65.4733505  42.9856110  59.8512268  66.7405319  42.9360924  60.6775360
  33.1788826  64.7300491  30.4984818  32.6051254  64.1403046  30.0093613
  34.0526237  64.5611038  30.1459713  46.3135567  66.1035233  88.1484451
  45.8367996  65.7358551  88.8925934  46.9778481  65.4462509  87.9412079
   9.3794451  47.7328415  77.3084106  10.1072407  47.8146324  76.6920853
   8.9830275  48.6038780  77.3278732  39.9929466  57.7886353  78.2898483
  40.3899841  58.6496658  78.1586304  39.6157227  57.5665932  77.4385986
  80.2757645  60.1164322   9.8160934  81.2276001  60.0154457   9.8098173
  80.1044388  60.8113594   9.1805182  38.9601288  10.8846807   7.8035450
  38.9824600  10.6217661   8.7236586  39.6894646  10.4125767   7.4017782
  19.0041885   9.1242704  75.4869614  18.3535385   9.0451555  74.7893753
  18.5376740   9.5577774  76.2015762  43.3274498  54.6746597   4.2362437
  44.2659760  54.5110931   4.1432228  43.1722832  54.6489868   5.1804338
  69.6468048  23.4073277  15.3584185  69.3599091  22.5040092  15.4923677
  69.8033676  23.4716988  14.4163065  68.8288116  14.7550907   5.1204286
  69.5280533  15.3922729   5.2663393  68.4999313  14.5554867   5.9969153
  36.5124855  30.7291603  52.8918877  36.1938362  31.5866127  52.6099777
  37.1862717  30.9261246  53.5426178  40.5213394  71.5227509   2.8232415
  41.0492172  70.7530670   3.0357473  40.2071915  71.3596191   1.9338999
  59.2384071  29.7038422   4.5920715  59.5741272  29.1572227   3.8816266
  58.8723412  29.0815716   5.2205663  19.1208191  71.3465729  75.8130341
  19.9455776  71.0289078  76.1805801  18.5010300  70.6327286  75.9630814
  11.8139420  55.6079979  32.8781242  11.3948822  54.7521591  32.7877884
  12.2942028  55.5535088  33.7043266   9.0980120  42.1613197  61.9403229
   9.5406523  42.2415161  61.0954170   8.4504461  41.4691925  61.8067207
  31.3787270   3.9793832  20.0349617  31.6768799   4.8410640  19.7436829
  31.3069572   4.0596681  20.9860859  11.5080347  48.9411964  19.8789482
  10.5786705  48.8969345  19.6541042  11.5501909  48.6345062  20.7847061
  41.0101624  45.0565567  19.2266960  41.3024521  44.4135971  18.5806274
  40.4626579  44.5562172  19.8317833  29.9357090  56.1065826  69.1179657
  30.8170395  55.9908295  69.4730530  29.9523678  55.6439400  68.2801590
  52.2457657  15.7835798  66.2209015  52.6537476  16.2435780  66.9545135
  52.5765305  16.2325535  65.4429245   5.1435161  15.8171768  13.6690454
   4.6288056  15.3613424  13.0030727   5.8261590  15.1922693  13.9134264
   8.5069504  59.9902534  42.4143791   8.8913107  59.5510712  43.1730728
   8.0163851  59.3033066  41.9630699  28.0670891   2.9786932  33.8324013
  28.2415867   2.3785684  34.5574074  27.8742332   2.4069483  33.0893364
  33.6093216  37.3730392   7.4559312  33.5440331  36.7429962   8.1735764
  34.4365807  37.1595535   7.0243068  56.9535675  63.4821548  18.4517136
  57.8112030  63.0788231  18.3174953  57.0372009  64.3556595  18.0693207
  79.6063004  51.7912407  39.3126945  78.9311523  51.8801842  38.6400185
  79.5912704  50.8629951  39.5458565  20.0572777  13.0349417  13.7433710
  19.4321098  13.1677008  14.4559517  19.8082867  12.1940155  13.3598623
  83.3576660  35.4286613   8.0619373  83.9314651  34.6890526   7.8620276
  83.2972412  35.9141350   7.2391996  13.1446724  37.6976738  80.7017822
  13.4992800  37.8210716  81.5822678  13.4968367  36.8541336  80.4177856
  73.8468170  42.6078873   0.2236421  74.0155029  43.5349922   0.3917281
  73.5530701  42.2612991   1.0661513  52.0534019  63.3325157  61.9580612
  52.5391960  64.1470490  62.0875854  51.2197418  63.6087914  61.5773811
  49.1210976  47.5091858  53.3598862  49.2935753  47.2064857  54.2514343
  49.5778580  46.8805580  52.8009377  79.9942398  56.9333191  31.5415020
  79.9872665  56.8692322  32.4965286  79.1521606  57.3320312  31.3220558
  85.1345215  71.5647202  71.2760086  85.9368668  71.0549240  71.1638718
  85.1928558  71.9103165  72.1667328  23.6031246  60.3911743  47.0662460
  23.9659958  59.6225700  46.6260109  23.3478413  60.9770813  46.3536606
  79.8381271  52.0167809  35.4177055  80.2186203  51.2095032  35.7637596
  79.6012115  51.8023300  34.5154228  62.7341652  20.5436554   2.3437071
  63.3898354  21.0453110   2.8281338  63.2177391  19.7980862   1.9880159
  17.7767582  38.2037506  75.6584091  16.8819714  37.9979935  75.3877640
  18.2950382  37.4562607  75.3602905  57.1134834  44.0989189  51.3991051
  57.9421959  44.0564804  51.8762474  56.6533775  44.8447952  51.7840767
   9.6863213  67.5688858  14.8288269  10.2869864  67.8888550  15.5019188
   9.4135256  66.7063675  15.1416788  62.8018074  25.7601280  13.8611536
  62.0857353  25.7560387  14.4963350  62.9475479  26.6867542  13.6704807
  38.3431816  55.8078194  87.6666794  38.9906082  55.1085701  87.7567978
  37.9428291  55.6546936  86.8108139  19.5416775  23.1106758  52.7931786
  19.2078056  23.6258259  53.5276031  20.3419228  22.7063694  53.1283989
  76.9776306   8.5960178  11.8826780  76.5278473   9.4266949  12.0372763
  77.7354050   8.8300810  11.3467436  30.6530609  51.6374092  20.2413940
  31.4081993  51.2191849  20.6550198  30.8088436  51.5379982  19.3022022
  23.8589802  57.3504028   7.0540380  24.4500771  57.4708633   6.3108521
  24.2283745  56.6107559   7.5364323  73.2004547  42.5851555  31.8095989
  73.2475281  43.4199486  32.2755737  72.3659058  42.6185951  31.3420010
  34.3529854  55.4192734  49.9585152  33.6595955  55.7883415  49.4114914
  33.9643860  55.3617554  50.8313904  73.2146225  41.0690956  78.2576294
  72.7663040  40.2624969  78.0033875  72.5470276  41.5801773  78.7151642
  24.9233551  52.5545349  30.7327232  24.5345898  52.7632599  29.8832951
  25.6666794  53.1527176  30.8094063   9.3762093  35.4872055  88.7187195
   8.6709557  35.2158470  89.3062668   9.4535513  34.7696381  88.0899506
  49.9713211  63.0528374  79.6284561  50.0063248  63.6175232  80.4005585
  50.8787346  62.7823639  79.4882050   1.5949293  12.2982273  36.5025940
   1.5661870  11.7859125  35.6945496   0.9787214  11.8575172  37.0876541
  33.1307030  45.4511986   7.1682258  33.3937759  44.7524109   6.5692916
  33.9087524  46.0028572   7.2491245  78.3623047  27.9344425  53.8136864
  78.6761780  27.9365902  54.7179604  79.0215530  27.4343395  53.3325195
  86.2838898   6.3118439  68.1225662  86.6749573   5.7673154  68.8057785
  86.3522568   7.2050672  68.4597702  19.6368999  47.2732735  12.7675095
  19.7751312  48.2204361  12.7705631  20.5182095  46.9027557  12.7201548
  13.9822741   9.2537947  75.9682312  14.5757227   8.5853128  75.6259155
  14.4469471  10.0793676  75.8313446  61.9194412  14.8526039  54.7091331
  62.8656044  14.7535629  54.8149796  61.7287483  15.7220001  55.0612946
  22.4898853  70.2338562  14.6896133  22.1771660  69.3317642  14.7579250
  22.0809517  70.6856537  15.4277744  29.4359264  46.1916084   2.4462428
  29.1150932  46.8511124   1.8311393  28.7401047  45.5350609   2.4779537
  65.9794006  40.3823433  13.1666307  66.3466873  40.1685295  14.0243130
  66.1266785  39.5964813  12.6403542  40.4503708   5.4025736  11.2557535
  41.1432076   4.7536249  11.1329765  40.4573288   5.9161043  10.4479971
  23.5355053  32.1560631  73.7577133  24.1276188  32.8806763  73.5562820
  23.8656750  31.4247818  73.2357483  32.4255714  68.2814026  30.2327843
  31.8566208  68.9992218  29.9548092  32.6365623  67.8158493  29.4234810
  70.7773590   3.9434652  55.9750328  70.2559891   3.4460979  56.6051407
  70.1316986   4.3416510  55.3912506  36.6237602  43.4023132  79.1240234
  36.5851593  42.7273445  79.8016357  37.1149521  44.1183205  79.5268860
  32.5282402   0.8883759  63.9057655  31.5718727   0.9026139  63.8684807
  32.7541122  -0.0417929  63.9057961  81.8063812  11.2657461   7.3927903
  81.6553345  12.2095451   7.4443841  82.6526794  11.1348972   7.8204432
  65.2283859  12.0521097  49.8406944  64.7948151  11.2131033  49.6847496
  66.0020447  11.8293314  50.3584251  25.2146454   2.7401919  89.0120392
  25.1699467   3.6326106  89.3552856  24.5087109   2.6959970  88.3671036
  81.9162369   9.8556557  28.5903587  81.0952377  10.2062387  28.9357433
  82.5671921  10.0667696  29.2596302  65.7088394  69.5282364   1.2365726
  65.5649643  70.1286545   0.5051157  66.3623428  68.9083710   0.9126415
  65.7257233  38.5555725  70.6940613  64.8768997  38.7529335  70.2981110
  66.2104187  38.0990105  70.0064163  36.8242188  58.7250748   5.1029634
  35.9598045  58.3911552   5.3427916  37.1681442  58.0785904   4.4865170
  64.4191895  17.8440475  87.9904099  65.3232956  17.8732700  87.6774139
  64.1796494  18.7621498  88.1166840  30.1922188  24.9238644  83.7797089
  29.5770168  24.8776836  84.5115738  29.7088871  24.5613327  83.0372849
  23.5057220  62.0483208  40.5930405  24.2173157  62.6670914  40.7573128
  23.2008247  61.7969856  41.4648781  18.1997776  47.8539085   4.1019001
  17.9209404  48.5861740   4.6516933  17.6598911  47.9262085   3.3148000
  31.7163067  36.0163536  88.9147797  31.0681362  36.5210991  89.4060440
  32.0898552  36.6439934  88.2961044  64.8559494  47.9943695  72.0040970
  64.4067612  47.1491776  71.9933777  65.6153183  47.8692665  71.4349365
   9.5204697  67.3307114  54.4731712   8.9007177  66.7248611  54.8794785
   9.2430153  67.3794403  53.5583649  16.3505783  68.4447479  60.9998856
  16.2170601  67.6441116  61.5072174  15.6156569  69.0077515  61.2430763
  65.8687668  27.0367737  10.5908966  66.3568573  27.4128323  11.3234119
  65.5319519  26.2068043  10.9284391  17.4529228   8.0355206  85.0038986
  16.8379841   7.5419483  85.5465469  17.9698486   8.5434656  85.6292114
   3.3966286  26.5500126  47.9140511   4.2511864  26.6895981  47.5060349
   2.7725844  26.6149559  47.1911545  54.0222588  61.8221817  36.2987251
  53.4116669  62.2749062  35.7169609  53.4617043  61.3698540  36.9291344
  23.0832481  36.1711731  74.8952484  23.2812023  37.1011772  74.7850571
  22.6726570  36.1142769  75.7580414  71.2088776   5.3596249  21.8003006
  71.0389404   6.2668309  22.0539360  71.9864807   5.1126266  22.3008556
  32.0635452  68.9825211  51.9523888  31.2523365  68.9009171  52.4538956
  32.3259125  68.0796814  51.7727242   7.9839311  47.6863174  69.6306458
   7.7865219  48.6022072  69.8266296   7.6013427  47.5386124  68.7657547
  36.3840332  47.2146263  40.9437943  37.2322769  46.8259697  41.1574707
  36.0343361  47.5045166  41.7863579  69.5535126  19.7210217  87.8624115
  70.3871002  20.0799446  88.1666260  68.9758453  19.7788353  88.6234512
  11.6433125  71.1012955  40.8682671  11.8263559  71.9907761  40.5656967
  12.5063839  70.6987762  40.9647942  44.5154991  63.1315880  74.7299347
  44.9313316  63.9462929  74.4478531  45.2254982  62.6237793  75.1226959
  76.4248505  29.8953743  86.0552444  76.3637085  29.1505203  85.4571762
  76.0942078  29.5609055  86.8889313  66.1890488  35.8669701  17.8189335
  65.8479309  35.4830055  17.0111961  66.9343414  36.3968658  17.5361271
  11.5114365  46.3190842  29.5591564  11.6706352  46.6003799  28.6581802
  12.1335764  46.8252869  30.0815868  75.5924988  48.5761528  41.3809128
  75.1097870  48.3674736  42.1807098  75.4897766  49.5223694  41.2791481
  48.7212982  65.8577957  44.0243454  49.4371986  66.2778854  44.5010452
  48.7366829  66.2673950  43.1593475  76.0894470  32.3761711  77.0543976
  76.9306641  32.0403252  77.3639069  75.7585983  31.6928577  76.4714279
  85.5510483  69.3657761  82.8827820  85.8733292  68.7591629  82.2161636
  84.7493210  69.7300644  82.5075989  48.2040863  29.5056248  33.9454536
  47.9484444  29.9827919  34.7348785  47.5429802  29.7453346  33.2960625
  60.6106796  64.3736343  74.0977936  59.8298264  64.8257599  73.7782974
  60.3966103  64.1340103  74.9994507   3.6070621  24.2797813  60.8981209
   2.9646449  24.2127323  60.1916962   4.3962111  24.6157207  60.4731255
  55.1589699  29.5803471  66.1436005  55.5847168  28.7231102  66.1544037
  55.6863899  30.1171875  66.7350922  21.2380543  17.8682022  11.1968069
  21.7352543  18.6161842  11.5277824  20.6450310  18.2438374  10.5460730
  41.3057556   6.8607507  34.5035744  42.0652542   7.0556965  33.9545784
  40.7179489   6.3663054  33.9324036  14.3921127  61.0210457  19.0394325
  13.7750883  61.4901505  18.4777813  14.6256981  60.2396393  18.5383587
  13.9696932  49.7980881  30.0061302  13.5245743  50.0289268  30.8214931
  13.7851305  50.5296555  29.4170837  71.3131104  31.1937218  33.4086533
  71.3501434  30.3942165  32.8836288  72.1360016  31.6439075  33.2178230
   5.2504487  37.5463982  18.5255566   5.6776495  38.0897903  17.8633976
   5.7607160  37.6937218  19.3218937   9.4263210  65.0237885  79.3537369
   9.7359047  64.7705154  80.2233658  10.1967831  65.3951874  78.9239960
  24.0957165  19.9715290  65.9159241  24.6821632  19.3522911  66.3505020
  23.8025360  19.5119381  65.1291275   5.0847983  61.8710823  65.0972672
   5.7144547  61.3574982  65.6032257   5.3747873  61.7789230  64.1897125
  21.6096668  44.2598686  87.1420670  21.8854923  43.6973839  86.4183578
  21.4673138  43.6578445  87.8725052  62.3330956  46.2647324   1.5513190
  63.0753860  46.8465614   1.7147741  61.9484062  46.5901222   0.7374597
  20.2665386  51.1511230  40.4759521  19.4630299  51.6700974  40.4403419
  19.9951839  50.3152733  40.8553696  46.2453537   9.9212532  80.7597961
  46.0881844   9.0571327  81.1403580  45.4818497  10.0811291  80.2050629
   9.8446417  69.0006180  75.9215927   9.0463247  69.5047379  75.7641754
   9.8541002  68.8562927  76.8678055  50.6166382  40.7767792  11.1549950
  51.1809959  40.0342674  11.3704233  50.3811607  40.6403084  10.2373037
  64.8555527  22.5367031  12.6854868  65.7241440  22.2272415  12.9424143
  64.3039627  22.3625298  13.4481421  31.8520927  55.6199532  48.5252991
  31.1344204  55.5189247  49.1505737  31.7128868  54.9212914  47.8859825
  45.9916458  46.1004372   0.4608975  45.7907677  45.6833649   1.2987098
  45.5596733  45.5485420  -0.1910569  61.0794830  60.1253395  46.8635368
  60.7903061  60.7506485  47.5280647  61.8779984  59.7421799  47.2265701
  84.0384293  45.8573647  30.6434689  84.2093582  45.0074539  31.0492630
  83.1221313  45.8124084  30.3703156  67.2290192  20.2555752  49.0090256
  66.7995911  20.2418938  48.1536713  67.5439606  19.3602486  49.1332588
  25.8523712  61.4775505   6.2463799  25.7347488  62.2881355   6.7417045
  25.2165871  60.8707428   6.6255817   5.4949360  25.9521008  51.9669647
   4.8049383  25.8302555  51.3148232   6.0422730  25.1710815  51.8853302
  20.2415161  19.3831730   5.5885048  19.2861595  19.4078102   5.5344687
  20.4821644  20.2305965   5.9629302  55.8222427  27.0549622  32.1215057
  54.8908005  27.2709198  32.0766487  56.1106644  27.0477543  31.2088223
  47.2524986  10.3206129  18.2119751  46.6238594  10.5284729  18.9032345
  47.0754852   9.4053965  17.9945412  69.7516403  70.9182281   2.5528171
  70.5317993  70.8098297   3.0967247  70.0584946  71.4056931   1.7883264
  16.1250820  54.9407806  78.5675659  16.6482792  55.4227753  77.9271164
  15.5499058  55.6016922  78.9530563  16.0773048  51.4409904  35.3032799
  16.6230793  52.1965485  35.0853500  16.5081120  51.0448380  36.0607109
  51.1868324  69.4872971  43.6131821  51.1452293  68.7492065  43.0051308
  50.3468971  69.9336472  43.5058823  69.7594681  46.3940201  22.5334225
  68.8425064  46.6545410  22.4465752  69.8342285  45.6004639  22.0034122
  58.1691437  43.6673813  67.1673965  58.4881859  44.5549583  67.0041351
  58.9142342  43.2137451  67.5614548  35.0333443  51.6156082  30.1220970
  35.6561165  52.2251968  29.7261333  34.2556190  51.6735611  29.5671043
  36.7772675  58.4748917  16.6748428  36.5121994  58.2909203  17.5760231
  37.2873268  57.7080879  16.4139271  47.6639175  20.9564743  74.5008850
  48.2945900  20.6445370  73.8518982  48.0171394  21.7965851  74.7935944
  66.3622589   1.2200812  41.7200890  67.2230682   1.6108240  41.8702927
  66.3662491   0.4216229  42.2479897  81.2470245  21.1608696  30.8484154
  80.7899475  20.4944057  30.3354435  81.5695343  21.7844753  30.1977730
  74.3638763  40.5039024  39.4099617  73.7387924  41.0138474  38.8947411
  74.6753616  41.1127701  40.0796585   5.8797154  38.8335228   6.9405022
   6.5401158  38.3783150   7.4628887   5.0809240  38.3209724   7.0648236
   0.2272200  28.1389313  81.6020889  -0.1810869  27.4657898  82.1465149
   0.1473894  28.9429855  82.1152649  23.7317181  64.9413757  13.1099119
  22.8147545  64.6711960  13.1590567  24.0766277  64.4802475  12.3453007
  45.3525200  10.0812721   5.9605365  45.8844719  10.8232851   5.6730070
  44.4590721  10.4236279   5.9884329  35.1919708  57.2874870   8.8889894
  35.4278374  57.0819588   9.7936201  35.9724541  57.7074814   8.5274849
  72.4708176  19.8003330  78.3908081  73.3574295  20.1583939  78.3466949
  72.4596481  19.1064625  77.7315292  83.2237091  44.0976257  61.2822838
  82.4979935  44.5919647  60.9012375  84.0032120  44.6065788  61.0596275
  16.5031300  67.3814545  40.4158020  16.2087345  66.7519913  41.0740891
  16.9244766  68.0768433  40.9209099  63.4929695  56.2407875   3.2761919
  63.5782967  57.1459122   2.9766943  63.5101471  56.3019066   4.2312841
  74.0343628  35.3724747  30.4487915  74.5302048  34.5765381  30.6407623
  73.5211258  35.1532211  29.6711369  68.8451462  45.7780342  27.4254761
  68.5080948  46.1528206  28.2392101  69.1065521  46.5361595  26.9028416
   2.9102833  14.5591888  85.2921677   1.9584874  14.6164684  85.2082901
   3.2314062  14.5724001  84.3905334  48.8142471   5.3662882  20.3317108
  48.8068237   4.4446478  20.0733395  49.7226410   5.6420603  20.2092304
  68.4590302  52.9957771   9.2722874  68.4158478  53.3674049   8.3912296
  67.5479126  52.9647484   9.5640659  77.6508713  52.7673569  72.7888870
  78.1132584  52.5565224  71.9777298  76.8407364  53.1877403  72.5004501
  63.4143448  28.1368904  10.8682232  64.2684250  27.7091465  10.8064394
  63.5558205  29.0086689  10.4991446  17.9296188  34.7829475  86.2843246
  17.4061966  34.0818901  85.8960266  17.4517555  35.5845833  86.0715866
  33.4570847   4.6399956  33.6655197  32.5631828   4.9766645  33.6036301
  33.9890366   5.4090333  33.8700638  59.4402122  25.5987415  67.3535461
  60.0879326  26.0570278  66.8181305  59.4452896  26.0667820  68.1884918
  56.3415298  27.0124264  66.2779312  56.8340187  27.0449619  67.0980682
  55.4423904  26.8226891  66.5458450  70.5812607  37.9266243  33.9333763
  70.1050720  37.2928276  33.3969231  71.4626617  37.9418411  33.5603790
  63.9178391  42.2163963  51.4758377  64.0976791  41.5819092  52.1696091
  64.2137070  43.0532799  51.8340530  56.2616959  29.7160511  74.3492050
  55.6287117  29.7514477  73.6320572  56.4468575  30.6332932  74.5507278
  59.2521057  70.0111694  64.7346420  59.2246704  70.4026489  63.8615837
  58.5586128  69.3515015  64.7232361  63.4037971  18.8963547  34.3988762
  64.1882706  18.3481274  34.3820915  63.2112961  19.0673122  33.4769516
  52.0458336  39.4738235  75.6193161  51.6882095  38.6002007  75.7778168
  51.5552406  39.8002167  74.8649826  39.8653374  60.2262383   6.4774823
  40.3878326  59.6962051   7.0793958  39.7885704  59.6882553   5.6895008
  81.7341843   8.0482750  76.8166199  81.8168411   7.6253572  77.6713333
  80.8579254   8.4334345  76.8237076  32.3951607  20.4346008  70.8266602
  31.7437401  20.7452564  70.1978683  32.2421799  19.4914322  70.8837738
  16.4629536  23.5200787  84.9730988  16.2486782  24.1302853  84.2674332
  16.5278778  22.6681366  84.5415726  77.8827591  13.8925619  43.4516945
  77.0751648  13.3827982  43.5162239  77.6342926  14.7719841  43.7364998
  83.0564575   2.1458621  12.7479725  83.0528641   1.3969710  13.3441105
  82.8359070   2.8943598  13.3023567  51.9669456   3.5323992  79.6319962
  52.6752815   4.1578870  79.4795074  51.1884804   3.9606140  79.2758255
   4.4472780   8.7847843   5.7033587   4.6059632   9.3054447   4.9159813
   5.2625699   8.8483114   6.2008476   5.9570928  17.0422783  16.4389019
   5.7302079  16.5619640  15.6426277   6.1972251  17.9162827  16.1311970
   8.0745392  29.7714291  77.7934418   8.5717545  29.2329769  77.1777496
   8.1465158  30.6605682  77.4463348   1.2623905  51.9860115  46.6274986
   0.6270844  52.2984238  47.2717171   2.0828667  51.9147263  47.1153221
  10.6789923  35.3745346  60.9175987  10.3937407  35.9379425  61.6369247
  11.6317253  35.3404045  61.0034256  24.6424198  17.7123184  63.4358368
  24.0597057  17.5380573  64.1749649  24.9132633  16.8450241  63.1347122
  31.4367847  38.3731422   9.4330502  31.2858257  37.4282150   9.4566813
  31.2817001  38.6177254   8.5207129   0.3937646  26.4127274  20.6648121
   0.9021634  25.8758221  20.0569496   1.0086406  27.0820827  20.9650154
  64.9719772  56.2338257  36.3839722  64.8390732  55.3636627  36.0079613
  65.4882202  56.7019844  35.7278061  84.8293381  33.2406349  71.2437057
  85.6590500  32.7962875  71.0694504  84.3627090  33.2128334  70.4084091
  62.8997574  22.1545334  10.1422501  63.2114906  22.6473560  10.9013157
  62.4258118  21.4120731  10.5168991  65.8842392  39.6836700  86.0153503
  66.8366318  39.7125549  86.1067810  65.5558319  39.7334709  86.9130707
  84.6367035  35.2768478  76.6734161  84.7960358  36.0421066  76.1209412
  85.2126999  35.4018326  77.4276276  71.6370850  61.2437248  22.3651810
  70.7161179  61.4556808  22.2131081  71.6225357  60.3566360  22.7244682
   3.3946705  27.3804321  19.0911121   2.7192919  26.7221851  18.9273853
   3.0625927  27.8846970  19.8338604   6.9372692  51.1180077  53.3123093
   7.1335044  52.0002785  52.9971504   7.2175078  51.1227646  54.2275543
  61.3781052  46.2204170  56.7654686  61.4235039  45.3491020  57.1591415
  61.6039848  46.8175430  57.4786682  15.2255154  53.5526352   0.2213450
  15.0392866  53.8040924  -0.6832654  14.4219217  53.1285057   0.5223177
  26.3187542  49.3964577  72.0090942  26.9782925  48.7659302  71.7198257
  26.0016270  49.0463943  72.8416367  21.0708389  70.3122025   3.9163556
  21.5796413  70.6975403   3.2030056  21.3245583  70.8150253   4.6903234
   5.3003268  30.3342705  68.7437973   4.4274468  30.2504787  68.3600082
   5.3618007  31.2543659  69.0004654   1.0323149  70.5854721  70.9917831
   1.1822140  69.9397888  71.6823349   1.6833812  70.3756104  70.3222351
  15.0970402  39.6893005  27.6144371  14.5450077  40.1640472  28.2358112
  15.7797155  39.2922668  28.1553173  23.2068615   3.1124194  74.8767624
  22.9790897   2.4205375  74.2557526  22.9082394   2.7817030  75.7239227
  20.2025833  48.9609680  36.8977661  20.6462784  48.4514542  36.2197075
  19.7364063  48.3088303  37.4208641  49.7123833   1.6678635  84.2393875
  49.4279594   2.4663045  84.6841660  50.6684380   1.7069279  84.2651825
  50.8887634   8.0979128  84.5798798  50.3209686   7.9431038  83.8249741
  50.3144569   8.4963646  85.2338181  60.7689133  16.3308849  39.9244652
  60.7950821  15.5715761  40.5066986  61.6581955  16.6840057  39.9512520
  78.3197556  23.1785736   0.3946505  77.5687027  22.6038437   0.2468947
  78.9411469  22.9425106  -0.2941008  27.6450977  18.6321392  83.3605804
  28.0274734  18.6276379  82.4830856  26.9686222  19.3083382  83.3236008
  60.2289276   4.2782278  31.9646721  59.7961693   4.8238130  31.3079472
  60.1956100   4.7981582  32.7676620   4.1806769  46.9705887  59.7398453
   4.0207272  46.8532944  58.8034210   5.1265888  46.8607216  59.8368607
  45.1536522  62.7006836  32.2858734  44.5014267  62.1546631  31.8469086
  44.8927269  63.5981979  32.0794373  70.8882446  22.5995636  77.2656479
  71.0520248  22.5080204  78.2042847  70.2185669  23.2807808  77.2046890
  49.9409180  20.2036343  25.0641060  50.4954109  20.3001842  24.2898655
  49.6023750  19.3101673  25.0063419  21.8550777  20.0196171  76.6288757
  21.1269360  20.0140247  76.0075760  21.7600460  20.8463764  77.1018066
  18.1314621  39.2753143  78.4851151  18.1147518  38.9120102  77.5997009
  17.2125816  39.2973900  78.7523270  83.5312729   3.4044549  53.0565834
  84.1298828   3.9441240  52.5401955  84.0888672   2.7266581  53.4385719
  60.2665596  25.8077068  15.2824945  60.3827477  26.0143986  16.2098618
  59.4062424  25.3906631  15.2360172  59.8012390  45.5685272  33.1553383
  60.1654816  45.2725677  33.9895859  58.9654083  45.9724350  33.3887520
  20.9906979  39.7724876  25.2496624  20.1975613  39.3284073  25.5495892
  20.6753731  40.4416237  24.6421623  27.0753193  46.2909317  15.2622366
  26.5373783  46.4614563  14.4890785  27.0900269  47.1245766  15.7323961
  67.4950256  53.0304070  67.3554153  68.2241745  53.1485825  66.7466431
  67.0523148  52.2392960  67.0481873  47.1395073  67.7143402  37.5715485
  46.8912430  68.6006851  37.3088913  47.0540810  67.1948547  36.7721291
  66.5336609  46.4413223  17.0738277  67.3125229  45.9575653  16.7989006
  65.9468842  46.3996582  16.3187180  64.6989288  25.2454796  64.5491943
  63.8756447  24.7592468  64.5043869  65.3714142  24.5977726  64.3383102
  35.9080048  67.2967987  16.6745720  35.9650269  68.2270432  16.4563389
  36.0971260  66.8457260  15.8517733  21.5778332  64.5947037  39.0765915
  22.1144104  65.3630295  39.2715149  21.9041672  64.2825241  38.2326241
  86.3337097  70.1818314  47.8894501  85.7796021  69.5069504  47.4973679
  85.8739700  70.4337158  48.6903419  49.5928192  18.7128487  36.6033173
  48.7764435  18.2473431  36.4214706  49.6453705  19.3803883  35.9193153
  55.5466156  69.7745132  45.7470093  55.4619331  68.8340149  45.9035950
  56.1680870  69.8416290  45.0220909  30.8180199  18.7062531  82.5717926
  30.5746841  19.6319237  82.5595169  31.0084438  18.5208397  83.4913559
  49.2214127  35.8656578  86.2367096  49.4305916  34.9422150  86.3771591
  48.5205994  35.8560219  85.5847855  65.5605621   7.5066519  13.2729082
  65.5751038   8.0449467  12.4815426  64.7753754   6.9669528  13.1810789
  36.1334610  21.4229546   7.3229780  36.6242218  22.1251545   6.8960118
  36.7173462  21.1079311   8.0129585  20.8315639  55.4191856  51.8005180
  20.1335869  56.0041809  51.5058327  21.1076183  54.9577446  51.0086250
  64.7572327  63.8182755  22.0420742  65.3663483  64.5483017  22.1528740
  64.5974274  63.7807007  21.0990562  47.8874855  27.6939793  71.7849503
  48.7635231  27.7219067  71.4002304  47.8177414  26.8153439  72.1582642
  79.1911392  31.7465878  75.6351700  79.4211426  32.2143326  74.8323364
  78.9508286  30.8682632  75.3401642  24.0638199  40.1551399  71.6698303
  25.0035744  40.0310974  71.5367661  23.7009449  40.2030411  70.7853775
  86.2576828  18.0726738  84.5856323  86.4340973  17.9776897  85.5216293
  85.3091354  18.1890469  84.5312881  47.6838608  60.5002785  20.6068192
  48.3278923  60.7394714  21.2733345  48.0713654  60.7949677  19.7826633
  65.6772766   1.4435254  10.8915386  64.7228317   1.3930833  10.9437113
  65.8694839   1.3837212   9.9557447  26.4057846  52.3125534  62.4155922
  26.6490364  51.5546455  61.8839607  27.1911926  52.8595963  62.4263229
  70.1058121  57.1380844  56.1140556  70.8877640  57.5093956  55.7055168
  70.0941162  56.2260056  55.8238678  36.1043587  11.7329931  66.6487732
  35.8792267  10.9034834  67.0700302  36.8940735  11.5386820  66.1439743
  69.8614883  23.5311432  24.3554287  70.1615295  24.4320965  24.2350368
  70.2956390  23.2392120  25.1570053  65.8622360  32.3615723  42.6615028
  65.4052658  32.0374870  41.8853722  65.1999054  32.3482285  43.3524246
  19.8715305  65.8546753   3.1979711  19.9545841  65.3382797   2.3963051
  19.0999050  65.4951096   3.6356237  50.8212204  50.9378090   9.6617699
  51.1689377  51.8210258   9.7852583  49.9416008  50.9719696  10.0377188
  11.6459465   8.3231144  81.9926987  12.1390982   9.0768328  82.3166428
  12.2950964   7.7928934  81.5304184  37.0402870  28.8570862  68.6264420
  37.6414528  28.4962177  69.2780609  36.4565849  28.1298714  68.4103851
  12.3505812  68.8421707  33.4479179  12.4337025  69.2031631  32.5653038
  11.4601612  68.4924469  33.4807739  47.6786308  61.3430519  78.3071823
  48.1759033  60.6465797  78.7359924  48.3391609  61.9878159  78.0537796
  46.2051430   5.1285954  69.4002457  46.5325623   5.5578713  70.1906586
  45.2915611   4.9241080  69.5996933  85.2333679  32.5121155  35.8461494
  85.0778503  33.3981171  36.1733246  85.9367676  32.6136055  35.2049294
  71.1790771  48.7245598  52.1781693  71.3372116  49.0710831  51.3000183
  71.2324066  47.7745438  52.0739594  69.8320007  23.5806961  18.1119404
  70.4092331  22.8284740  18.2430763  69.7927094  23.6896782  17.1617756
  57.9079552  69.1733475  81.0252228  58.5392036  68.4607239  80.9255753
  57.2723999  68.8432693  81.6603165  57.9350739  30.6790905  23.2570763
  58.7359543  30.1833248  23.0866718  57.5027542  30.2001152  23.9641228
  73.9563217  18.0828037  49.8845901  74.8660812  18.0785160  49.5870209
  73.6819305  17.1674404  49.8293419  22.9799232   7.1793718  61.9217567
  23.0789413   7.7249475  62.7019958  23.4341164   6.3653989  62.1394463
   7.7183075  41.8556633  11.6251936   7.2359591  42.0014648  12.4390202
   8.2530613  42.6424866  11.5194664  66.7801514  33.8559608  71.1090546
  66.2564316  33.9891624  71.8991241  67.6317673  33.5625038  71.4328690
  42.1164207  68.9998093  71.0770416  42.9178963  69.4288559  71.3766937
  41.5900307  68.8952255  71.8696365  76.7475128  44.0530357  79.6347809
  76.9584961  44.9848900  79.6928329  75.8450317  44.0311661  79.3165359
  70.6227875  13.9770889  50.5354919  70.5488052  13.0262403  50.4539719
  69.8663940  14.2317476  51.0639267   8.4397507  29.9375401  80.3877182
   8.1891479  29.6854458  79.4989700   8.5235453  30.8903885  80.3517761
  74.4618530  52.5202637  58.6237068  74.7745132  51.7809944  59.1452026
  75.1338196  52.6413498  57.9528656  45.6601601  51.8338928  65.8640289
  45.2101707  52.6425362  66.1086349  45.0810356  51.1356888  66.1695709
  45.7836189  28.7082157   0.2753876  46.6238708  29.0435772  -0.0372534
  45.8744431  27.7563343   0.2317241  82.0486450   2.6497777  34.2486343
  82.5838318   3.1623948  34.8544579  81.2825623   2.3947613  34.7627525
  15.6598969  71.2337341  46.0673141  14.9841557  71.7612000  45.6414223
  15.4802217  70.3380737  45.7814255  79.8254852  18.8867111  46.0084572
  80.0701981  19.2958336  45.1784172  79.5017090  19.6098042  46.5456123
  10.2086277  39.6791115   8.5140696  10.6067934  40.0202179   9.3149080
  10.7205439  40.0708122   7.8064365  40.1731720  22.1563587  10.5516663
  41.0648537  21.9846001  10.2489548  40.1700859  23.0880127  10.7713108
  19.8319225   2.7054949  87.9393005  20.5438423   2.0657299  87.9494247
  19.6405029   2.8361449  87.0105820  31.3856964  52.2383957  70.2304459
  30.8127575  52.1271782  69.4717560  32.1546097  52.6922340  69.8854294
  20.5556984  45.3851357  33.5683136  19.7121944  45.0408783  33.2746811
  21.0336761  44.6158066  33.8779945  73.9465332  60.8597679  69.3181686
  74.6604919  61.3313484  68.8890915  73.4919739  61.5282211  69.8307800
   8.4326200  65.6446838  66.5292435   9.1272469  66.2202377  66.2091370
   8.8953247  64.9405518  66.9834747  70.2032928  36.6103897  67.9351807
  70.6611099  36.0570831  67.3023376  70.8776245  37.2032013  68.2669754
  49.1843491  34.2129021  22.1855812  49.2669678  34.8842125  22.8628902
  48.3405380  33.7969780  22.3622627  15.7928867  13.5860319   8.0575237
  16.3098564  12.8271132   8.3277416  15.4527149  13.9477692   8.8758526
  59.2276306  66.4003983  33.2240601  59.2900810  65.4502716  33.3220520
  58.7687836  66.5258636  32.3934288  23.8377419  36.0191689  86.1169205
  24.3960686  36.5464211  85.5455170  23.7845459  35.1685257  85.6812592
  20.0897102   6.6919765  70.3517456  20.5965691   7.5008402  70.4229126
  20.5966873   6.1435256  69.7530746  77.2642365  14.7396088  82.3496323
  76.8019485  14.9360781  81.5348206  78.1306458  14.4454393  82.0685120
   5.7222362  54.7378349  24.5669537   4.9197640  54.3321266  24.8950844
   6.1793337  54.0306587  24.1117668   2.7566271  51.0563812  68.6180420
   3.6070774  51.1496811  68.1887817   2.5159144  50.1408615  68.4762344
  51.4208565  35.4777260  23.6161137  50.5440941  35.3425865  23.9756336
  52.0034637  35.4057236  24.3721657  17.5143070  24.8561611  65.8775864
  16.5582008  24.8149109  65.8973160  17.7275829  25.0321732  64.9611969
  75.6124420   4.3641796  73.9617004  75.3326874   3.5844140  73.4821854
  75.8126373   4.0452099  74.8417053  15.1146736  11.6951685  75.6798325
  15.7469425  11.4059687  76.3377304  14.7268686  12.4871235  76.0521851
  78.5734634  24.3028374  28.9540405  78.5864868  24.0301552  29.8714867
  79.4558182  24.6359730  28.7906342  59.3150902  40.5999260  16.7554512
  60.1471748  40.4859734  16.2962303  58.9384880  41.3936081  16.3753567
  18.3517494  65.5682907  86.0041504  18.2409992  65.1205063  86.8428726
  17.5662594  66.1080475  85.9152527  45.0914650  44.9960861   3.0075138
  45.0995216  44.0732155   3.2614355  45.7399483  45.4073906   3.5789416
  70.1986542  35.9070015  28.9935913  70.0571823  36.7188721  29.4805088
  69.6522293  35.2609787  29.4411507  83.8326111  46.1796722  69.5243988
  84.6350403  46.6956787  69.4464645  84.1299591  45.2700386  69.5049438
  82.7030029  63.1237602  16.1318512  82.9057693  62.5109367  15.4250536
  83.5499725  63.3116570  16.5362854  29.8663197  37.5797615   1.4775496
  29.9768696  36.8988495   2.1411512  29.8030453  38.3935127   1.9775895
  57.7778015  46.8962135  52.6703033  57.6968117  47.1163788  53.5983124
  58.6294670  47.2498360  52.4136887  83.7474976   1.0165417  68.9780197
  83.7638397   1.9653616  69.1033401  84.3876801   0.6810018  69.6055679
  86.6124496  16.9981346  65.9992905  85.9106674  16.9244728  66.6460495
  86.2020264  17.4268417  65.2482986  49.5362663   0.4001893  63.5662689
  48.6655998   0.5568461  63.9318237  50.1315346   0.5175061  64.3066177
  53.2542381  61.2438965  82.2326736  52.9567375  62.1536713  82.2268906
  53.4125481  61.0495338  83.1564636  59.5767708  13.7678566  27.0971184
  59.9543533  13.0062914  27.5372143  58.6686821  13.7929688  27.3987370
  24.5351391  35.1393166  10.4308062  23.5921764  35.2879524  10.5012283
  24.7607384  35.4444618   9.5520439  13.3796682  38.2513618  83.2780304
  14.0869503  38.3146210  83.9198914  12.6618538  38.7547226  83.6622238
  71.8096619   1.9033518  68.8557968  71.4458542   2.7708275  68.6787109
  71.8004227   1.8300128  69.8101425  38.6873055  66.1939011  15.3352861
  38.0400124  65.5337753  15.0873489  39.1569023  65.8038254  16.0725460
  62.1766434  32.4175453  18.3616943  62.5804977  32.8689270  17.6204872
  62.3063545  33.0098343  19.1023693  57.3142242  42.8286552  86.2041779
  56.6083870  42.4367447  86.7184067  57.6459808  42.1099663  85.6659851
  65.7712021   8.7610826  25.6666088  65.7578278   8.6996450  24.7114773
  64.8490295   8.8231268  25.9155674  48.6575165  23.5554466  22.3212318
  48.5474777  22.6250496  22.1250591  49.0001678  23.5729198  23.2148304
  66.7904892  14.6497688  49.0306702  67.4864960  14.0531406  48.7552757
  66.0892715  14.0746622  49.3369102  66.9415894  70.1550980  39.1914635
  66.4304581  69.9995651  39.9856873  67.6016846  69.4619141  39.1918716
  82.8614426  13.3325024   0.3315731  82.2432022  13.2724218  -0.3967076
  82.7361145  12.5188246   0.8198897  50.9024315  27.1269093  85.3036652
  51.7416611  26.6899090  85.4484177  51.0515938  27.6852112  84.5405884
  21.3139706  37.2189636  12.5546598  21.7236443  36.5405235  12.0178938
  21.3435364  38.0056000  12.0100803  81.4434509  21.2287979  20.3599854
  81.1994781  21.7301140  19.5819149  82.0059433  20.5292797  20.0275612
  82.5011215  47.4873924  23.4510937  83.1470490  48.1482773  23.7005615
  82.9161377  47.0047035  22.7362499  13.0393944  57.9454155  58.7354660
  12.2388802  57.6653481  59.1792793  12.7689276  58.6935768  58.2031746
  68.1261368  20.6710854  19.9606209  67.9460220  20.5563850  20.8936977
  67.7804413  19.8781738  19.5507183  37.2972183  45.6313553  19.7804241
  37.3209877  46.0473022  18.9186497  37.0560570  46.3370895  20.3804379
  19.5009232   3.2581720   9.2545843  18.9941006   3.7652197   9.8888292
  18.9295940   2.5263662   9.0216122  19.0816269  58.6468315  24.2843266
  19.4954987  57.7896309  24.1836071  19.1174908  58.8210907  25.2248478
  76.4083252  57.9562187  75.4899139  76.0068207  57.4236641  74.8033142
  75.7163239  58.0680695  76.1417236  59.9352455  32.9966583  52.4806824
  60.6286964  33.4642754  52.0151825  59.2650681  33.6607895  52.6419830
   3.5161595  28.9714432  16.8822041   3.0210228  28.4923668  16.2177067
   3.6031337  28.3534336  17.6079693  66.7206497  51.8545876  37.0410461
  66.3546143  51.7080956  37.9132767  67.2521286  51.0769463  36.8706360
   1.9228499  21.0386868  50.6499786   1.7721761  21.0706882  49.7052536
   1.4081528  20.2892246  50.9493523   1.2792078  23.3075714  67.4415741
   0.4886345  23.2557926  67.9787369   0.9585755  23.2789707  66.5401306
  74.0643311  18.6367359  54.8389397  74.3202896  19.1012192  54.0420876
  74.7613983  17.9953728  54.9767075  69.7357712  69.5502396  65.2480011
  70.1824265  68.7163391  65.1019211  69.9769897  69.7980270  66.1405487
  54.6967278  37.0405693  14.4107761  54.8098106  37.2911263  15.3276548
  53.9691696  36.4186401  14.4204197   3.3398931  13.9867191  25.9698448
   2.5336423  13.6156273  25.6114006   3.3266742  14.9023733  25.6912174
  60.6946602  52.4585190  78.6043854  61.4409103  53.0298424  78.7858582
  61.0205002  51.8390121  77.9514923  44.2193031  61.3825760  57.6280556
  44.8972626  62.0051537  57.3653755  44.3838959  60.6081314  57.0901146
  26.8836727  70.2590714  73.5665970  27.6294537  70.1008148  72.9878082
  27.1533909  71.0014877  74.1072464   5.5106411  65.4163895  70.4083023
   6.4440489  65.2471771  70.5361710   5.1035376  64.5507126  70.4415512
  52.8717728  19.8379517   1.8664097  53.5709534  19.5158558   1.2975236
  52.5395355  20.6168270   1.4200867  82.0434189  58.8952446  13.1496944
  81.2371979  58.5086479  12.8079481  82.0854263  58.5973778  14.0583973
  83.6787643  56.7290611   6.0414271  83.4462357  55.9136658   6.4856024
  82.8383865  57.1443367   5.8476787  55.9987335  21.3044415  13.3322277
  55.5408783  21.9683819  12.8166838  56.8299942  21.7159538  13.5686407
  85.7984085  50.2747231  32.5146446  86.2138672  49.7021751  31.8698082
  85.4621277  51.0093040  32.0012894  11.2037373  53.7701340  50.3486176
  12.0479774  53.3633423  50.1536522  10.6285057  53.0362587  50.5648766
  80.2924728  11.0370207  24.9744816  81.1553802  11.0396738  25.3887424
  80.4024963  11.5720711  24.1884499  56.1587524   0.2678399  47.6015892
  55.9298439   1.1168281  47.2233696  55.7385635  -0.3716791  47.0265350
  41.5595131   6.0051689  19.9723759  41.6756058   6.9199228  20.2292423
  42.1344910   5.5162563  20.5611019  60.4588585  69.1875992  57.1982002
  59.7554779  68.7024765  56.7667580  60.0205345  69.6759567  57.8950577
  48.9614868  55.8102493  48.2857628  49.8599167  55.5384483  48.4733315
  49.0529251  56.6639175  47.8625374  71.2577438  23.9102230  28.9157314
  71.1580505  24.8596954  28.9849682  72.1682587  23.7464504  29.1614532
  76.6720886  20.3528576  27.1299515  76.4556808  19.5464001  27.5979557
  77.1782684  20.8665543  27.7593384  10.4654570  19.7825165  71.0889740
  10.7623758  19.4968967  71.9529724   9.6339197  19.3266602  70.9586945
  38.2932091  43.5558090  18.5339699  38.5569267  42.7862854  19.0384655
  37.8708229  44.1286201  19.1740570  77.0789337  39.1405220   9.4338245
  77.3220062  39.5066910   8.5834923  77.7566223  39.4546204  10.0324163
  77.2769547  54.2829628  30.1350136  76.3796844  53.9808159  30.2758751
  77.2090302  54.9062920  29.4117718  77.0715485  60.6143074  46.4172325
  76.2757721  60.2259216  46.7807198  76.8886490  60.7040405  45.4819603
  60.0154572  24.3453808  57.3850555  59.7990913  24.7568245  56.5483170
  59.2806396  24.5658550  57.9574738  17.5732269  35.2848511  55.9595528
  17.0473766  34.8752975  55.2725449  17.0690250  36.0558205  56.2195854
  52.4291191  54.9562569  40.5044479  52.5570717  54.0096817  40.4423561
  53.3088722  55.3231239  40.4168739  63.2526855  60.6172523  36.9895210
  63.0685120  60.7055130  37.9246788  63.0151215  59.7133179  36.7828941
  18.1713295  36.1715469  73.7764969  18.8930779  36.7316322  73.4908142
  17.4234314  36.4588127  73.2527084  52.7383308  27.6385899  15.9066181
  53.2201118  27.7640419  16.7241650  53.3806229  27.2611122  15.3056145
  83.4850616  63.5262833   5.8683968  83.5047836  64.1340027   5.1291280
  83.2288284  62.6884384   5.4829221  76.3652802  45.2664604  40.9568672
  75.8665543  45.9430809  40.4989433  76.4600296  45.6010284  41.8486748
  23.1339169  47.7658348  20.4634304  23.1618900  48.1236534  19.5760670
  22.5049477  48.3200645  20.9254494  50.6882591  48.6017303  27.1179161
  50.7135849  49.3086357  26.4730301  50.1751595  48.9576149  27.8433838
  75.0301437  27.3785934  86.6840439  74.4379730  27.2653694  87.4275131
  75.7478943  26.7686615  86.8544769  20.2873745  48.6813126  76.1053543
  19.5562611  48.0652542  76.0587158  19.9234104  49.5091476  75.7915802
  15.0380201   3.2456000  60.3894348  15.3920794   2.3856816  60.1626892
  15.1616488   3.3134658  61.3361893  31.9275627  24.5719738  11.0903826
  31.3264580  24.5561523  10.3456306  32.4225464  23.7560730  11.0160379
   0.7499829  32.3165817  86.2197723   0.6437056  31.3942318  86.4525986
   1.6620493  32.5138626  86.4329529  25.5558758  62.5715866  23.4777184
  25.2871723  63.4212189  23.1282043  26.5120697  62.5873184  23.4367809
  63.9304771  11.1591749  22.4334908  64.5574417  10.4797192  22.6814556
  63.0966644  10.8593216  22.7955360  68.7109680  14.5531301  52.3154030
  68.4634781  15.4040699  52.6771774  67.9236603  14.0162783  52.4058380
  65.1385422  46.3342323  63.1734924  65.4279938  46.5069046  64.0693893
  64.7593536  47.1628113  62.8804054   2.6862903   7.1770668  51.1548920
   3.2139289   6.8220000  50.4395180   1.7937528   7.1925120  50.8093910
  12.0571480  27.7459259  13.6006842  11.4831285  27.2034454  14.1414690
  12.7892199  27.9675827  14.1761580   5.3726578  21.4610367  19.4234581
   5.8231544  20.6217194  19.5174274   5.5840964  21.9375553  20.2262383
  11.5765982  35.5771370  82.3512955  12.1635227  36.2791252  82.6323013
  11.2359877  35.2089767  83.1665726  85.7472076  47.8542747  53.7152710
  85.0075378  48.2188377  54.2012939  86.2557678  48.6185684  53.4442520
   6.3154044  11.1451759  88.2093887   6.8545218  11.0855560  87.4207077
   6.5693660  11.9761753  88.6108627  52.9494667  57.0218010  14.4969501
  53.6967659  57.5791206  14.7141275  52.2445526  57.6358070  14.2912273
  80.3694305   6.4048977  63.7774506  81.1290359   5.8242302  63.7320976
  79.8461227   6.0586934  64.5003052   4.6386976  17.3722916  67.8682785
   5.2211833  18.0250206  67.4798355   5.1573172  16.9743614  68.5675049
  11.7399511  62.4682198  46.2312012  11.2692165  63.2978592  46.3108368
  12.0910368  62.3070221  47.1069794  80.2339554  62.3900795  57.6332550
  79.9951172  62.1753807  56.7315407  81.0357666  61.8924599  57.7936058
  52.0293159  51.1780701  20.6250095  51.7730408  50.8064537  19.7809372
  52.9641304  51.3616447  20.5319786  68.8593216  29.9166603   8.1496668
  68.6359634  30.5585575   7.4756417  68.1759949  30.0175476   8.8123245
  48.8367577  34.9760818  12.5479126  48.7083817  34.5069046  11.7235203
  49.6846237  35.4088707  12.4476681  49.8075485   2.2782645  29.1964531
  50.3823013   2.9031928  29.6384449  49.1935387   1.9965110  29.8745670
  10.8347158  27.6370525  17.0937843   9.9909697  27.3393993  17.4339695
  10.6711197  27.8118019  16.1669979  23.7717896  40.2665558   4.4408813
  23.0574837  39.7297401   4.7841468  24.2148438  40.6023521   5.2200947
   7.4778600  67.0873413  34.0839691   6.7971611  67.7174377  33.8476295
   7.2630715  66.3024216  33.5799866   2.6176305  55.7356911   0.7497710
   2.4198792  56.5614052   1.1917208   3.5677950  55.6462173   0.8233455
  78.0217590  71.1426620  88.8305283  78.8655930  71.5362091  89.0525436
  77.5180359  71.8586121  88.4433365  27.6456165  21.3872166  42.3957291
  28.2092094  21.2277813  43.1528130  27.0502090  20.6379356  42.3783531
  14.7882061  34.5840492  80.7247620  15.5879097  34.1001472  80.5184937
  14.6064987  34.3676949  81.6393127  43.0332260  42.4985161  29.6407871
  42.6584282  42.7263756  28.7899990  42.6354485  43.1188889  30.2516384
  63.3179245  54.0165787  26.7902699  62.9423637  54.2658005  25.9458332
  62.7093658  53.3659706  27.1404057  28.4467354  61.2454376   5.5496960
  27.6595345  61.5828438   5.9771380  28.4517612  61.6666069   4.6901469
  39.5110435  54.7101746  44.2439308  39.5583076  53.9979439  43.6061859
  39.5138817  54.2707939  45.0943260  62.6177559  45.9394150  51.8548508
  61.8171997  46.3807182  52.1387444  62.3133430  45.2385445  51.2783546
  41.8770676  63.7361832  20.5090122  42.7386398  63.4207916  20.2361565
  41.2577820  63.1727676  20.0450287  13.6241093  22.8669491  63.2943764
  14.0283384  23.3185291  62.5534935  12.8349028  22.4667969  62.9293251
  78.5502472  11.4553452  74.6293182  77.9528122  11.0508995  74.0002518
  78.9419098  12.1865644  74.1516647  15.2614775  50.4507179  25.8611870
  14.7027750  50.0491600  26.5266457  15.2064066  49.8571587  25.1122627
  53.3394737  18.7243462  74.8581085  53.4498100  19.3678551  74.1581421
  54.2322464  18.5049477  75.1246643  34.5004425  70.8878021  37.5295372
  33.8410416  70.7980652  36.8415146  34.5413971  71.8286667  37.7007904
  80.9539413  69.2403717  21.4155445  80.6447525  68.9382706  22.2695732
  80.3440399  68.8513870  20.7886925  66.7903061  51.9364395   4.5778933
  66.5725021  52.7523880   5.0284700  65.9453583  51.5118523   4.4295144
  12.2415075  53.9436035  58.2890930  11.8327770  54.7998772  58.4154549
  11.6356907  53.4709129  57.7183228  79.0050125  64.7781982  42.3747215
  78.7643204  64.2426682  43.1307068  78.1795959  65.1650238  42.0826912
  35.4147148  19.2398453  12.8035183  35.6956253  18.8721275  11.9656010
  34.6443863  19.7656212  12.5881405  50.8589096  19.3348236  65.5086594
  51.4876251  20.0498962  65.4105759  50.9031715  19.1025162  66.4361801
  74.5434952  47.3738632  84.9301910  74.3991699  46.4309082  85.0091705
  74.0360489  47.7546959  85.6469193  56.0819168   2.4101031   9.2307358
  56.1110001   2.5322497   8.2818069  56.3275566   1.4943149   9.3619823
  45.5030670  70.0380630  85.3925400  45.2416153  69.3497696  84.7808838
  44.6808167  70.4557571  85.6488037  50.0377502  21.7191067   4.9642587
  50.2212105  20.9328442   4.4500942  49.8949585  22.4043369   4.3113413
  59.7625618  65.8500443  36.3327370  59.4381752  66.2987289  35.5519104
  59.2699013  66.2397842  37.0549698   4.2319903  65.4179688  42.6049080
   4.6787148  64.5873642  42.7685280   3.3595636  65.1652603  42.3028412
  83.7349472  42.5377693  38.5444298  84.4728241  42.8809662  38.0404625
  83.9556808  42.7326202  39.4552193  46.6145973   7.3771329  10.0850744
  46.8334541   7.8111424   9.2604713  47.1659431   7.8096981  10.7371006
  68.4945831  67.8050919  39.3823395  68.0326157  66.9775391  39.5164299
  69.2485275  67.7564850  39.9700737  23.0414848  46.2732201  36.2149124
  22.6352444  45.4069710  36.1864357  22.4155407  46.8459930  35.7717896
   7.9486070  30.7093487  40.6182671   7.3486910  30.5425491  41.3452568
   8.7569170  30.2610645  40.8670807  38.4328232  68.4106140  25.8898087
  38.4112206  67.7731705  26.6035500  38.5699768  69.2523270  26.3244839
  25.9571362  60.1567421  14.1259937  25.9326324  60.4155807  15.0472069
  25.8697548  60.9789696  13.6437731   1.0248077   4.8563285  58.8550758
   1.8102838   5.3128920  59.1564217   0.4366090   4.8677621  59.6101418
  58.7822380  43.6098061  23.8207664  58.8951912  43.1220627  24.6365967
  59.3459396  43.1589127  23.1921406  82.8547974  15.6096973  59.2014084
  81.9890289  15.4345512  58.8326187  83.3537598  14.8107824  59.0311165
  36.8649101  32.3780670  17.2401886  37.6632881  32.9047623  17.2025585
  36.9845963  31.8160572  18.0057297   0.2881319  71.3792648  88.1203766
   1.0355482  70.8520279  87.8382111  -0.3880393  70.7382126  88.3396378
   6.4507375  43.4422646  57.0962372   6.5058808  43.6639023  58.0257912
   7.1909990  42.8543625  56.9458618  80.5663605  26.4487267  77.5961075
  80.9135666  25.6673603  78.0263901  81.0667648  27.1722546  77.9733734
  15.0614719  20.2911263  23.1812477  15.0990467  21.1377182  22.7361603
  14.4245863  20.4182739  23.8844147  29.7307930  51.5678291  68.1378098
  28.7994289  51.7606087  68.0299759  30.0120296  51.2561264  67.2775955
  15.7581701  48.3540306  43.9005775  16.6737862  48.1020470  44.0205078
  15.2998705  47.9490089  44.6368866  60.5305977  40.6757355  54.0109367
  60.7157097  39.7968292  54.3418236  59.7200508  40.5777626  53.5112915
  54.4148979  68.0246964  62.3365555  55.3160858  68.2640839  62.1202545
  54.0490799  68.8107147  62.7422447   5.7737837  19.1718063  23.0714512
   5.8568377  18.4743614  23.7217636   6.4755712  19.7857647  23.2877407
   1.9901831  38.1550903  48.7314186   2.3291717  38.1145935  47.8371696
   1.3907658  37.4114609  48.7942390  85.5603867  15.7533035  10.2280207
  84.6358566  15.9159050  10.4152079  86.0062027  15.9227657  11.0579395
  46.5952415   7.5359836  17.8638916  45.8202667   7.4607139  18.4206467
  46.8345184   6.6312385  17.6628571  82.5469971  42.6537933   9.5739098
  82.4230347  43.3337669  10.2361031  83.4902802  42.6468277   9.4114323
  21.8266621  39.5179672  21.3594742  21.9445705  40.3570137  20.9141350
  20.8795357  39.3794937  21.3626194  24.8983288  65.9904556  84.8024521
  25.3743286  66.4383316  85.5017853  24.3252754  65.3745728  85.2591095
  57.6605377  23.9217739  78.9432220  57.9058189  24.6037750  78.3179626
  58.4041748  23.8685589  79.5435562  31.7633324  67.5047607  60.7325592
  32.4551048  66.9193726  60.4243240  31.3711395  67.8542633  59.9323921
  57.5590477  10.9549704  23.7613907  56.8042793  11.5281048  23.8958302
  57.7611198  10.6164703  24.6336384  17.7914505  34.5666733  63.1426086
  17.7809296  34.6219940  62.1870689  18.7137756  34.4398918  63.3650436
  18.9428349   2.7748044  69.1873322  19.6801624   3.2580717  69.5602036
  19.3490982   2.0734611  68.6781158  31.6162987  61.1916122  49.4038277
  30.9269047  61.6635017  49.8710365  31.8218555  61.7490921  48.6533661
  82.1342163  46.2630882  27.6499825  81.3056641  46.4204750  27.1972599
  81.9038849  45.6842308  28.3766899  81.8164673  22.8099899   9.4447212
  82.1041412  23.1752052   8.6080074  82.5853348  22.8744526  10.0112123
  53.4445572  55.2207489  30.3741608  53.4233589  55.5066414  29.4608974
  52.6702499  55.6219597  30.7687607   3.1917844  49.1784554  57.9530373
   3.6196969  49.5838165  57.1988449   2.7172270  48.4322472  57.5866966
  15.8126860  40.5198479  15.0185099  16.0063972  40.8691216  14.1486158
  16.4894352  40.8936806  15.5828600  66.2960129  15.7803736  15.3504324
  65.8380661  14.9487619  15.4726572  65.6321869  16.3687458  14.9907389
  15.9253035  62.0984230  32.6426201  15.9267635  62.8971710  32.1151428
  15.1823578  62.2050514  33.2366676  71.2761536  26.6321354  78.9932632
  71.0568008  27.4061470  79.5119400  70.5105209  26.0636139  79.0758591
  57.9304695  36.7490807  71.7005768  58.3225441  36.5552139  72.5520020
  57.9993286  35.9284096  71.2127380  41.3687935  44.6997032  61.0048294
  40.4604225  44.4942245  60.7837639  41.7835236  44.8878250  60.1629028
  55.0900955  26.9950504  49.9429283  55.4918671  27.4242477  49.1875458
  54.3807793  27.5827751  50.2030945  28.8345871  63.1581230  57.0715294
  28.0500450  63.4029770  57.5622177  29.4432392  63.8826408  57.2159233
  56.0606613  55.1880913  42.6286507  55.7815819  55.5321350  41.7801323
  56.3215408  54.2852287  42.4469528  18.9056263  24.2123547  16.7028294
  18.2444649  24.9027405  16.6531658  18.4654617  23.4911003  17.1525841
  86.5045090  22.9973259  47.5978165  85.7770767  22.4853725  47.9513435
  86.8248520  23.5048828  48.3434677  77.8206100   5.6001410  28.0930691
  78.0152817   5.7339230  27.1654720  78.6216888   5.8630419  28.5462627
  62.7021027  22.9761467  76.2975922  63.3052826  22.6968212  76.9863510
  62.6698341  23.9292870  76.3795395  69.8204956   4.5672073  44.9953690
  69.7002792   3.6176295  45.0044022  70.5608902   4.7204885  45.5823593
  39.8723793  41.9211617  64.0369644  39.7944641  40.9671402  64.0388565
  40.8056984  42.0849800  63.9016266  75.3157654  63.8607368  40.4502106
  75.3544922  63.4027481  41.2898407  75.9887695  64.5382462  40.5156708
  22.4580650  68.6754913  70.7796021  21.5071697  68.6331177  70.6784439
  22.5966873  69.3212814  71.4724045  13.9863825  56.3447495  16.3842010
  13.2913914  55.7446671  16.6546040  14.0522108  56.2237282  15.4369678
  74.3337860   3.4206221   3.4435773  73.9396515   3.8612328   4.1964054
  73.5878983   3.1114411   2.9294937  79.6747971  50.3520241  75.2250443
  79.8562241  49.4405861  75.4543762  78.7236862  50.3887215  75.1236343
  78.7795563  59.5631027  36.8047485  78.2976456  58.7513161  36.6466522
  78.1000137  60.2307510  36.8980370  59.6335144   4.8242178   4.1634192
  59.0786514   5.3314881   4.7559032  60.0874329   5.4828377   3.6376743
  85.0059891  58.5015945  81.1959915  84.1599808  58.1546173  80.9129715
  85.3821411  58.8896065  80.4059372  55.3716240  42.9595871  36.8657265
  55.7123375  43.8431053  37.0055237  56.0774117  42.4998779  36.4110146
  82.3889160  50.7079544  30.3681202  83.0312958  50.0214081  30.5476646
  81.5413437  50.2722244  30.4575081  20.2523861  54.0108223  59.4126129
  19.7713757  54.7369995  59.0157166  20.0195675  53.2500267  58.8804321
  37.8874092  68.7643890  82.4665451  38.2350502  67.9514923  82.0997009
  37.6799469  69.3024673  81.7025604  45.8228722  52.3473206  46.9794655
  46.3637581  52.9153938  46.4308586  46.3129196  51.5266762  47.0307465
  76.7015076  27.0313416  75.4692688  77.0547409  26.5156059  76.1941681
  75.7528915  26.9241428  75.5389862  26.0683975  46.2622604  29.9260635
  26.0274220  45.3653412  29.5942707  26.0536003  46.8091087  29.1405888
  75.2909317  33.8716850  26.1052780  76.1261826  33.6077881  26.4912052
  75.3449326  34.8255577  26.0466137  53.0688629  39.8982239  50.6238251
  53.1812935  39.6456604  51.5402336  52.7444687  40.7979927  50.6614265
  30.2318153  49.4629021  22.3817196  30.7885876  48.7401237  22.0921822
  29.9370308  49.8777733  21.5710316  85.6267548  29.3574581   0.2293990
  85.0741425  30.0237942   0.6378599  85.4398956  28.5573769   0.7205049
   1.4048252  17.0976791  35.1620216   2.1683996  17.6692734  35.0816078
   0.6564831  17.6749535  35.0104637  56.6988335  70.2566528  10.5890779
  57.4403305  70.2521744   9.9837751  55.9394646  70.4409485  10.0362406
  18.0589561  40.0436707  53.2559586  17.7046375  39.1626282  53.1357346
  18.5959930  39.9801369  54.0457611  25.4553242  54.9741974   8.6264925
  26.2064114  55.2430878   9.1554518  25.3700829  54.0351791   8.7914505
  51.9413223  21.7835693   7.0123467  51.3269119  21.7094631   6.2821140
  52.3022614  20.9026489   7.1120105  15.8209715  66.5134583  87.7839432
  15.2111015  67.1655655  88.1289825  16.1854668  66.0911942  88.5618057
  65.9484787  58.4888649   9.5748339  65.3664322  59.0047798  10.1327591
  66.2377319  57.7671089  10.1330795  80.4913788  23.1129646  80.6223450
  79.6314163  23.4530220  80.3752518  81.0868301  23.4631500  79.9597473
  37.9476585  50.4575920  77.9084015  37.7041397  50.1361580  78.7765121
  37.3580322  49.9996567  77.3093491  52.4230614  30.0634747  42.0753212
  52.4330063  29.1080055  42.1320000  53.2443542  30.2859612  41.6369019
   1.8560008  28.7891388  56.3182106   1.1771832  29.4586525  56.2334137
   2.4984477  29.1736164  56.9145927  72.0802841   4.2113714   8.4018831
  72.0081024   3.7822714   9.2544641  71.7620697   5.1012387   8.5539074
  74.1151886  52.6470909  46.1023293  73.4007492  53.2819252  46.1551971
  73.7193222  51.8739510  45.7001076   2.9654255   2.0021346  17.2527714
   2.0690784   1.9739398  17.5874329   3.1683338   1.0924984  17.0345459
   1.0697532  67.4443741  28.2853680   1.8788134  67.1708145  27.8531380
   1.2714508  67.4020386  29.2201176  48.5572319  27.5253658   5.6358171
  48.0208244  27.0589600   4.9947543  49.2338791  27.9563637   5.1136847
   4.0376425  22.3134785   0.5132359   4.4263220  23.0970974   0.1245163
   4.3888583  21.5895309  -0.0052035  19.7076302  37.4208755  84.4242630
  20.2434750  38.0982475  84.8368988  19.9409008  37.4628258  83.4968643
  41.8343658  18.0468063  84.6531601  42.0223389  17.1410007  84.8989487
  42.5714684  18.3023739  84.0985413  71.2585831  21.0657005  37.2156906
  71.8921509  20.9295273  37.9201622  71.3783493  21.9801140  36.9592972
  83.3787537  16.8321514  63.8075027  82.8877029  16.9353848  64.6226349
  82.7848587  17.1513233  63.1280518  76.4738617  18.0868492  49.5429344
  76.6727219  18.2570610  50.4636497  76.7178879  18.8950424  49.0918159
  25.3480396  42.9435768  22.7568188  25.1428814  43.8399658  22.4910698
  24.5725822  42.6525841  23.2366314  35.9953232  22.9376316  72.4189682
  36.8735008  23.2729740  72.2384644  35.7876015  22.3903084  71.6616516
  54.1586723  42.6001053  33.2646332  54.1269951  43.5299339  33.4896851
  53.5618210  42.5131035  32.5213776  86.5452576  49.8469429  52.1745949
  86.0487213  50.6644287  52.2120247  86.5057144  49.5845909  51.2548981
   1.5250400  60.8637657  42.2060661   1.7153436  59.9722595  41.9141197
   2.2006354  61.4007416  41.7919884  55.6204300  12.5669937  33.1207466
  54.7129898  12.2851496  33.0052261  56.1079750  11.7546806  33.2574158
  37.6874008  49.6051216  17.8345852  37.6256561  50.0818710  17.0068607
  37.4628105  50.2536278  18.5018425  11.2184515  65.2103119  31.8279991
  10.5992489  64.9571991  31.1433449  10.8994398  64.7682571  32.6147957
  82.1541290   6.6047535  78.9929428  82.8842926   7.0004897  79.4688416
  81.9143372   5.8394561  79.5154877  59.9876938  18.9254608  24.7704163
  59.7411461  18.0219688  24.5725517  60.3389091  18.8885326  25.6600876
  16.9300423  71.1552277  43.5738678  16.0140114  70.8778381  43.5606537
  17.2758541  70.8007126  44.3929939  57.9261551   3.7866685  86.1454849
  57.3459854   3.0690541  86.3997803  57.5649376   4.1050115  85.3181915
   4.5386987  60.2535706  12.1958408   4.0036631  60.6159897  11.4897079
   5.1988869  60.9256516  12.3652277  10.7070551  64.6015701  52.2751770
  10.3167210  64.1658401  53.0328102  10.0895557  64.4404297  51.5617638
  69.1604919  30.6411171  36.4863739  69.7098236  29.8892708  36.2645645
  69.5527039  30.9974365  37.2835197   9.3921890  67.3512573  21.6325645
   8.4858313  67.2681808  21.3361759   9.4975424  68.2834702  21.8226109
  13.1376295  54.5061417  45.5410233  13.6032267  53.7015839  45.7693520
  13.6838360  55.2077637  45.8954430  22.2131367  43.7251358  35.7091637
  21.9979000  43.5199203  36.6189957  22.9137936  43.1127815  35.4848175
  14.1006508   1.3637675  51.6745605  14.3938789   0.7127583  52.3120842
  14.4245605   2.1969547  52.0167770   0.5650963  15.4130211  41.3098068
  -0.3775750  15.2489681  41.3360596   0.9335998  14.6281452  40.9043350
  80.5528336  23.2451553  70.8115158  81.1608810  22.8158627  71.4133530
  79.7167053  22.8036118  70.9603882  20.9024677   5.6496553  84.6683350
  20.3984051   4.8916793  84.9643478  21.7866039   5.3100438  84.5297699
  47.8818207  53.5722427   6.0885639  47.9411163  53.1718178   6.9559608
  48.5441589  53.1168823   5.5687685  39.5657921  10.0589142   2.5784469
  38.6455154  10.2430296   2.7666650  39.6350441  10.1328983   1.6266266
   2.9184785   0.8567858  29.9943066   2.2904642   0.4678449  29.3855743
   2.6121302   0.5862164  30.8598557  30.5837288  36.1840477  61.5941849
  29.6811047  36.0026131  61.3323059  30.9523983  35.3238068  61.7949219
  84.8513107  45.2973709  27.5331440  84.2789688  45.8965416  28.0123615
  84.2773209  44.8803825  26.8905792   9.1786175  40.3866997  14.8391190
   9.5318174  40.3803749  15.7287493   9.9073648  40.6837234  14.2942009
  53.3669395  22.1491451  68.1886139  53.3625069  23.1003590  68.2954102
  52.9627533  22.0022526  67.3334579  80.0049744  18.4527073  34.4296379
  79.4739609  19.2370758  34.5675926  79.9826431  18.3117790  33.4831314
   4.5650263  21.8794117  33.4586411   4.8318748  22.4125500  34.2075005
   5.1074176  22.1938686  32.7353439  84.6820984  42.7905235  54.9789047
  84.8673477  43.6537132  55.3487816  85.2104950  42.7531548  54.1816368
  64.8178482   2.2127268  28.4313431  64.3146362   2.9185741  28.8372841
  65.7234039   2.5222740  28.4508877  33.8657455   2.1888971  12.9775696
  34.5803719   1.6894021  13.3725958  34.2938690   2.7469268  12.3283043
  23.6834888  15.1447248  72.5004883  24.6291218  15.1502342  72.6487427
  23.3033504  15.1399240  73.3789597  18.1229267  58.6045418  20.4687157
  17.7929649  59.4905853  20.3194313  17.6627140  58.0659561  19.8250046
  21.4772301   2.3705699  82.3435516  21.0664654   2.1742177  81.5015564
  21.9389248   1.5656127  82.5783157  31.3582039  60.2881660  80.2149506
  32.0792618  59.6586685  80.2213287  31.6031628  60.9261627  79.5447388
  32.9449272  49.8551483  26.2638836  32.4706917  50.2818909  25.5502853
  33.5788498  49.2880936  25.8247623  37.0832787  46.2000351  64.0205841
  37.8731995  46.7312317  63.9201393  37.3973312  45.2962379  63.9931297
  68.9917984  33.8098984  21.2760563  68.1767807  34.0516052  20.8361168
  68.7590332  33.7644310  22.2034111  32.6754951  32.7247543  57.8750610
  31.8625603  32.2260208  57.9565010  33.3642387  32.0601082  57.8647537
  67.6900101  55.2199821  32.3180237  66.9175262  55.6689301  32.6614494
  68.4229813  55.6000519  32.8023109   6.6740322  38.6610565  38.4957504
   6.1441760  39.0526543  37.8013916   6.9724331  37.8288345  38.1288757
  26.0145626  67.8959503  33.6063538  26.9490929  67.6917114  33.5721664
  25.9586487  68.8095093  33.3261566   4.4978795   6.8773465  39.3462563
   4.6457472   5.9474735  39.1739120   4.8741779   7.0228539  40.2142792
  40.2006493   4.3647470  24.2034454  39.4765892   4.9496403  23.9801254
  39.8968506   3.8927252  24.9787731   1.2601559  48.9431686  65.8265228
   0.9238647  48.1726494  65.3688812   1.7047024  48.5891953  66.5967865
  59.0588608  11.2675686  43.1947136  59.9945374  11.4275637  43.0716667
  59.0183334  10.5929832  43.8725929  40.0585938  57.4594460  52.0554199
  39.4151535  57.9066391  51.5056610  39.8656425  57.7606430  52.9432716
  33.1862869  27.0245247  10.0878801  32.4658470  26.4650517  10.3780289
  33.0620193  27.1038303   9.1421003  14.1186447  33.1354027  71.2443542
  13.8787403  33.7984276  70.5969925  14.4748955  33.6354980  71.9786682
  46.7229843  29.3930416   2.9262772  46.0582237  29.4420090   2.2393076
  47.1091881  30.2685852   2.9486971  76.1512756  13.6516275  25.1508408
  76.6788177  12.8561354  25.2223873  76.5977707  14.1761513  24.4861984
  17.3483810  10.6586981  20.5650349  16.7043209  10.4065304  21.2267227
  17.7175846  11.4795675  20.8907547  77.9781876  23.6892815  80.2063446
  77.5614700  22.9867439  80.7053604  77.4091263  24.4474277  80.3390579
  34.9132767  56.8465385  15.3740883  35.4042320  56.0582848  15.6061563
  35.3494225  57.5504036  15.8542747  26.0042324  57.6449623  11.9642887
  26.1843643  57.1837463  11.1451025  26.3136082  58.5374947  11.8096733
  83.7704468  45.8697472  21.3063869  83.2460556  45.0727081  21.3837166
  84.4344788  45.6568832  20.6506577  65.6229858  60.8356209  72.8290939
  66.2788162  61.5326157  72.8467789  65.4532318  60.6900368  71.8983765
  23.8591423  18.4148331   6.9512725  23.7589798  19.3513508   7.1219611
  24.3095055  18.0771008   7.7254429  83.8196411  68.9810715  35.8173828
  83.2140274  68.4514694  36.3360252  84.4507599  69.3160400  36.4543457
   7.5544262  37.7091370  49.2711105   7.9760952  37.4774666  50.0986099
   6.6186819  37.7150879  49.4725494   4.8765402  24.5986748  67.2325897
   4.3110929  24.1762562  66.5860138   5.1880331  25.3918304  66.7965775
   6.4683280  27.0626621  75.2313919   7.3109021  27.5147171  75.2755051
   6.4321561  26.7096863  74.3423843  28.9324608  12.0477753  64.0298615
  29.3541946  12.5896082  63.3629417  28.0374355  11.9296923  63.7117119
  73.8451538  39.1367302  85.1022873  74.0631409  39.9089584  84.5803909
  72.8883514  39.1090126  85.1009064  66.1293564  23.4824219   8.7722292
  65.2999954  23.1221752   9.0862551  66.6697845  23.5600052   9.5584574
  21.5274372  44.5319366  79.5965805  22.3578911  45.0017967  79.5203629
  21.7546024  43.7143517  80.0395126  73.3283768  68.4653244  41.4222603
  73.1761322  67.7488708  42.0384979  73.0114670  68.1309662  40.5832062
  59.2910309  41.3388596  37.4351425  58.8020821  40.7576637  38.0177002
  58.6202888  41.7545128  36.8933220   3.6842360  25.8367825  78.4495850
   4.1816559  25.1594181  78.9078293   3.4762106  26.4805622  79.1267166
  13.3015461  35.0348854   2.5953040  12.5329189  34.5718117   2.2621267
  13.5940647  35.5734520   1.8600421  80.8132324  70.6301117  45.2833023
  81.0212936  71.4616241  45.7093620  81.6624298  70.2796555  45.0144653
  52.9588699  17.1378517  63.6934547  53.3545074  16.7512722  62.9122620
  52.0459251  17.2899818  63.4492836  43.6544952   2.5727644  31.5615616
  44.2674065   3.1339290  32.0366058  42.9767952   3.1709461  31.2467060
  58.0038376  49.3130264  66.0352173  57.9643364  49.1723099  66.9811935
  57.1159515  49.5781479  65.7952271  26.6022949  64.8506927  82.7290649
  26.1719780  65.0687027  83.5558243  27.5296783  65.0264740  82.8881073
   6.4023595   4.1950631  74.7223816   7.3524594   4.2293024  74.8336029
   6.2762513   4.0383649  73.7865524   1.9741042   0.6260960   1.5883343
   1.1150678   0.9977674   1.3879627   2.4890380   0.7715363   0.7946579
  39.8862801  48.5240059  46.7150307  39.9469185  48.7289543  47.6480637
  39.3702927  47.7185593  46.6797752  84.0433655  17.7987156  25.2592773
  83.9006500  16.9354038  25.6472950  84.9481888  17.7747555  24.9479103
  56.9638252  40.2763138  81.8630447  57.5783272  39.5510635  81.7506409
  56.8944969  40.6685791  80.9926682  18.3199615  64.6068420   5.8189154
  17.3811131  64.4559708   5.9285989  18.4051838  65.5588684   5.7677102
  70.0519104  38.7839890  70.5456619  69.4721985  38.0619049  70.7880783
  70.8960648  38.3663750  70.3746872  56.1269531   2.3628910  21.1782398
  55.7699966   1.9117056  21.9432526  55.4630051   3.0146029  20.9531231
  44.9953117  11.1116037  68.1105728  45.1795464  10.3667526  67.5383072
  45.8476143  11.3500900  68.4751740  20.0385342  33.4460640  19.3054562
  19.3884773  33.8976173  18.7671680  19.8294373  33.7066307  20.2024593
  71.9632568   7.1127534  45.3108673  71.9939651   6.1876049  45.5545654
  72.7345352   7.2406907  44.7586060  71.0837708  39.8021660  85.2694550
  70.8813095  40.7376404  85.2583008  70.4807739  39.4189911  84.6324310
  48.6550789  53.2308311  29.2427349  49.5061455  53.0088310  28.8650723
  48.7859993  53.1572418  30.1880798  35.4314919  12.7926168  61.7801552
  35.8473625  13.6543827  61.7548065  34.5010681  12.9715843  61.6440849
  46.3422089  33.9308167  77.8510208  46.1194000  34.0352249  78.7760544
  45.8249245  34.6001205  77.4030457  64.2149277  24.9060001   1.4845593
  63.3146591  25.0815811   1.7582706  64.5893173  25.7719765   1.3228605
  11.4403648  71.0948334  45.1155090  12.1192141  70.9412155  45.7726212
  10.7430010  71.5449524  45.5922775  70.6914597  56.1003036  81.2101898
  71.0926132  55.6938477  81.9783707  69.7526093  55.9523506  81.3237457
  75.0905457  43.1077194  11.6313066  74.4176254  43.7119522  11.3177576
  74.7530670  42.2390518  11.4127731  49.7311897  27.4445744  34.7103577
  49.1360397  28.1187344  34.3824272  49.9192619  26.8990440  33.9466438
  30.4883003  25.5159492  65.5611115  30.6990414  24.6317081  65.2612152
  31.3034286  25.8393707  65.9447708   5.8122096  16.4371185  85.7084351
   5.1009130  16.6574783  85.1069946   6.4392576  15.9533854  85.1708069
  79.7625504  63.0803223  34.8028870  79.3633194  62.6612167  34.0405197
  80.3423462  62.4116859  35.1675644  25.6999378  37.2524834  59.8091774
  25.5980225  36.5951614  60.4974899  24.8133774  37.5799980  59.6576042
  63.2971954  29.3331432  79.3716736  63.9398499  29.1784763  78.6793518
  63.7024498  29.9958744  79.9309464   2.8127661   6.9123387  79.6174927
   3.2188532   6.0715828  79.8283310   2.1564567   7.0398092  80.3025055
  51.7867355   1.6748674  57.9921951  51.3464355   1.6335815  58.8411102
  51.4865112   0.8932071  57.5284004   5.1797924   4.0749226  35.9895554
   5.1825795   4.9840250  35.6899605   5.3397179   3.5613256  35.1978035
  10.1239004  40.2076492  17.2089310   9.3501368  40.3632851  17.7505016
  10.7430229  39.7726440  17.7951813  60.9848824  64.6223679   3.1723716
  60.4986992  64.4529495   3.9793131  60.6549530  65.4673843   2.8668919
  38.7338066  12.2936916  81.4140472  38.6503639  13.1621742  81.0203400
  39.1726685  11.7685108  80.7448578  52.2080727  34.5861359  30.5200634
  51.7116356  34.4185600  29.7190018  52.8934326  33.9179192  30.5213108
  11.6853504  61.4250603   2.7801368  12.3944349  61.7495346   2.2250264
  11.5746021  60.5112724   2.5175400  81.8811035   3.7142622  37.6564980
  80.9348526   3.7364466  37.7991371  82.1284485   2.8062398  37.8312836
  29.5152588  34.3369942  81.2937164  29.2128029  34.4802208  82.1905060
  29.6577816  33.3921623  81.2370377  78.7361298  42.3876534  79.3489914
  77.9411469  42.9143829  79.4314194  79.1339417  42.4166412  80.2191315
   7.5553761   6.3427558  54.6758842   6.7751141   6.2615895  55.2243652
   7.2690606   6.8674140  53.9282265  83.8217926   5.7843075  83.5455093
  84.3494873   5.0760412  83.9144592  82.9275818   5.5869536  83.8242264
  70.5610504  14.5382843   7.8441720  69.6174850  14.5378952   8.0051365
  70.8305435  15.4431381   8.0018034  57.0628090   9.4397631  52.7310753
  56.9874573   9.5323935  51.7813492  57.9193726   9.8119736  52.9408112
  73.2801971  10.2456503  24.7437000  72.8931274   9.9586191  23.9166431
  73.8888474   9.5453806  24.9790802   6.6041002  52.8325386  40.5496712
   7.2173700  52.3078651  41.0643044   5.8691044  52.9913368  41.1419525
  71.7140427  19.1615124  32.0204887  70.8805847  19.3390980  32.4564285
  71.9787064  18.3028202  32.3503914   7.0698180   0.5528821  61.2559509
   7.3436012   1.3459734  61.7166901   6.6299701   0.0274018  61.9242592
   8.9113455  55.6370201  55.1917076   8.0687618  55.8301888  55.6027679
   9.4126368  56.4475975  55.2806053  45.2221680  32.8252182  60.5332603
  45.0208817  32.7565346  59.5999870  44.6352959  32.1954536  60.9518356
  38.3231277  54.4957848  49.0885277  39.1063118  54.9397354  49.4137383
  37.7455330  55.2050133  48.8063698   2.3857121  42.7504425  29.6325817
   2.1352274  42.5324440  30.5303364   1.5699704  43.0309677  29.2177277
  42.4020462  35.2021904  16.6507988  43.1873245  35.5935593  16.2681789
  41.7825432  35.9284554  16.7214108  16.4970856  48.1699486  32.2918930
  15.6248446  48.4751320  32.0423126  16.3367672  47.3702583  32.7929153
   8.3042784  41.6329269  38.0899315   7.7665615  41.6652679  37.2986984
   8.0365953  42.4019928  38.5930367  40.0035477  30.2917366  53.4244804
  39.1476555  30.4886913  53.8051224  39.9726181  29.3533516  53.2381783
  69.2266998  33.3638878  72.4767380  69.9842987  33.4884567  71.9051056
  69.1059570  34.2125320  72.9027100  72.5851059  39.6195717  89.1106491
  73.0335693  40.3613052  89.5167847  73.2506409  39.2112885  88.5569305
  72.4326019  21.7294102  21.9710560  72.7976456  22.5513039  22.2988701
  73.0189514  21.0540276  22.3120613  74.4059372  43.6095581  28.4416809
  73.5017548  43.2956238  28.4529705  74.9335022  42.8259010  28.5959148
  84.9450836  66.2453613  48.3058395  85.8247833  66.5230026  48.5613251
  84.7661591  66.7287445  47.4992638  71.8611908  11.0818777  15.6044493
  72.5650787  10.5513659  15.9777174  71.0609360  10.6013327  15.8163443
   5.8444467  49.0603905  51.8298149   6.5600014  48.4721947  52.0711479
   5.8622818  49.7458687  52.4976730  55.3472633  56.6413612  31.6181259
  55.0204773  57.0194626  32.4345093  54.5614967  56.3386459  31.1629734
   1.1625228  21.4062138  54.3670464   1.9823486  21.8114262  54.0843430
   1.0501226  21.6988201  55.2714653  38.8384132  56.1095238  83.6370010
  39.6757126  56.4805565  83.9153824  38.9997749  55.7948570  82.7475204
  62.2860413  34.0685806  35.7954369  62.6788063  34.8994331  35.5277596
  61.3557129  34.2668457  35.9022522   6.8127813  11.3650312  48.1012802
   6.4713135  11.9166050  48.8051262   7.5084176  11.8882189  47.7030411
  26.7489281   9.3062410  42.2119484  25.8504391   9.3373356  42.5405579
  26.8927994  10.1702433  41.8259010  24.2720299  48.5552979  40.0510063
  24.7899704  48.8798637  39.3143768  23.8757439  49.3401527  40.4294128
  74.5913773  20.1289806  86.2483978  74.9598007  19.8574810  87.0891037
  74.0588608  19.3844128  85.9686127  78.6975327  15.0749149  52.7930756
  79.2638550  15.8225517  52.9842529  77.8095322  15.4293756  52.8382225
  26.9669704  45.2732849  12.3498669  27.6637402  45.8211784  11.9885445
  26.1687355  45.7859383  12.2224388  63.5429192  44.6819611  61.9895172
  64.2634430  45.2575569  62.2459641  62.7890701  45.0084343  62.4808006
  43.7227211  63.1320267  43.5188789  44.4798889  63.5855370  43.1483879
  44.1001015  62.4638519  44.0910339  53.5676689  11.7661743  26.3584042
  53.8620567  12.1219044  25.5199394  54.3744812  11.5187569  26.8101406
   9.1694412  55.1267776  22.4587135  10.0070925  55.5166359  22.2085514
   8.5509424  55.4459686  21.8015919  20.2861195  63.1599388  52.6694031
  21.0601292  63.6639481  52.9206276  20.5426064  62.7133484  51.8625565
  41.8669930  49.3566322  55.8953819  41.0259628  48.9031830  55.9526711
  42.4321136  48.7531357  55.4130325  83.9694748  11.0265799  13.0549870
  84.6867828  11.4160719  12.5549946  83.3160706  10.7943058  12.3951778
  61.7401886  50.6665764  50.0693665  61.5090942  51.2986031  50.7500763
  60.9615135  50.6162224  49.5149689  50.3341522  21.4381237  72.7590179
  50.5470352  21.7150764  73.6502075  51.1442833  21.5712337  72.2668762
  40.7242050  62.3972168  28.4385643  40.7778206  61.6246071  29.0010872
  39.9444046  62.8614388  28.7429276  18.7779484   3.3975208  78.2034836
  18.3967724   2.5707431  77.9078903  19.6983128   3.3424277  77.9463348
  54.1059418  50.0362854  15.5561762  53.6613197  50.8462296  15.3060989
  54.4558792  49.6916542  14.7345905  20.6333065  71.3859711  27.4116745
  21.0512161  70.8123474  28.0539742  19.7705021  70.9969254  27.2686768
  68.1073227  55.6008606   7.4558167  67.6344070  55.8198967   6.6529436
  68.9348450  55.2277412   7.1521382  85.0112762  10.3120518  17.3231564
  85.1882935  11.2478037  17.2269020  85.3029938   9.9268703  16.4968586
  81.8262253  37.7762489  83.1493683  81.3546753  37.0277748  83.5149689
  82.7023163  37.4391479  82.9621353   7.6324544  57.7568741  12.1464081
   7.4759603  57.9949646  11.2325945   8.5630627  57.5353889  12.1802139
  45.4698753  47.5818634  34.4597588  45.7333565  46.6764336  34.2954292
  44.9790878  47.8341980  33.6776581  35.4123917  68.0194244  70.5484467
  35.2769432  67.0817413  70.6849213  35.0281372  68.4320145  71.3219833
  58.8006516   0.3938522  42.9826546  59.4152679  -0.1117770  43.5144615
  58.4291763  -0.2445891  42.3738594  31.1048489  54.6259918  24.2210159
  30.3479614  54.4243202  23.6708488  31.2452888  53.8313255  24.7358131
  77.5305252  45.6616249  43.8576965  77.9212341  46.5302734  43.7626648
  78.2159042  45.0580597  43.5709839   5.3091688  36.1436958  54.5974350
   5.6398082  35.2631264  54.4199409   5.2839303  36.5674973  53.7395401
  28.0410881  52.5345955  87.7246399  28.3902874  53.4235382  87.6608047
  27.8984814  52.2675018  86.8165894  52.8043327  22.0313530  71.1202850
  52.8477020  21.7005978  70.2230911  53.6125259  21.7216072  71.5290756
  39.5285797  37.7528992  69.9857712  39.9731674  38.5790863  69.7960587
  39.8803978  37.4807091  70.8333359  69.7108154  26.2354946  36.7431564
  70.1625214  26.9401779  36.2788200  69.9757080  26.3423462  37.6567459
  55.7946510  32.9634285  12.7160082  55.0641670  32.7175941  12.1483908
  56.0079384  33.8599396  12.4571466  81.5373306  46.4431496  34.1012459
  80.8824997  46.3848152  33.4055214  82.2375107  46.9778061  33.7269211
  67.8811417  44.6918488   5.0479512  67.1988983  44.0204544   5.0496755
  68.6514053  44.2515297   5.4071932  50.9692078  10.4289026  28.5091858
  50.6509438  10.7033501  27.6491756  50.1925430  10.0915813  28.9555416
  35.8728943  50.8707809  36.5684738  35.0192680  50.4827309  36.3762093
  36.1710129  50.4155998  37.3559837  26.1231174  12.6246977  14.8368578
  26.8357792  12.0476418  14.5623541  26.2832584  13.4432068  14.3671446
   5.7661738  47.9748421   3.2740304   5.4971881  47.8074608   2.3707795
   6.4170489  47.2979279   3.4594569  75.0257111  16.4669743  57.9639053
  74.9936829  15.7584324  57.3211136  74.4356003  16.1836491  58.6622772
  24.4599247  56.2968903  55.1694489  25.0182629  56.5091515  55.9174042
  25.0652084  55.9699745  54.5038719   4.7390170  41.1821747  31.6978035
   5.2308469  41.9735489  31.9170322   5.1056709  40.8963966  30.8610649
  76.9273224  69.5774841  30.8822956  77.8169098  69.8481216  30.6551132
  77.0382538  68.7340164  31.3210297  36.2688522  15.5151510  81.6015320
  36.1762619  14.6666136  82.0347137  36.7233734  16.0625954  82.2418060
  15.4889622   7.0037479  75.4199295  15.7831745   6.3497739  76.0539551
  16.2273006   7.1039314  74.8190536  65.0612869  13.7937288  52.0283432
  65.2803268  13.1274920  52.6797867  64.8220673  13.2952061  51.2470093
   7.6498246  44.3865623  49.0919685   7.6647215  45.2387924  48.6564064
   8.1477146  43.8117485  48.5106544  63.3185120  37.6233711  15.6640720
  62.3680115  37.5366821  15.7366714  63.4896622  37.6029205  14.7225199
  72.4162216  53.1237526  86.8064957  72.0707321  53.9560051  87.1293259
  73.3404312  53.1354103  87.0553665  28.9691067  17.5909004   3.8091292
  28.3772640  17.3468685   3.0975089  29.7966385  17.7944508   3.3732505
  59.4952621  57.0624199  22.3776894  60.2484322  57.3656197  22.8846741
  58.9022179  56.6891289  23.0297489  43.9728737  62.4549904  50.3961067
  43.0330200  62.2815590  50.3429642  44.0544243  63.1278458  51.0720100
  40.6424942  37.7751656  53.4222031  41.4893761  37.4123116  53.1626701
  40.3864861  37.2615433  54.1882858  67.2307892  71.0647202   3.0183799
  68.1501465  71.1069641   2.7552698  66.7638016  70.8216400   2.2189631
  67.8824463  55.4913368  46.0009995  68.7324753  55.8335037  46.2777634
  67.3702774  55.4408493  46.8080711  82.3055420  66.5251923  60.9765282
  81.5260162  67.0644836  61.1096878  81.9638290  65.6728592  60.7063370
  11.0512400  64.2425995  10.0319157  10.1734934  64.3660202  10.3932457
  11.5917196  64.0144958  10.7882767   4.7828064  52.5108223  57.7625580
   5.6219053  52.4156914  58.2132187   4.5894184  51.6347237  57.4289703
  83.8910675  28.1521759  50.2398567  83.8104782  28.1784763  51.1932983
  83.9602432  29.0708008  49.9799080  12.6751528  43.0006104  77.1887054
  13.1988468  42.3904037  76.6694489  11.8012238  42.6105614  77.2071915
  76.6569366  33.2346992  33.5612144  76.8680725  33.8672600  34.2478828
  76.6206818  33.7553787  32.7588348  16.6486320  64.0909729  65.8419342
  17.1511173  64.9021759  65.7665329  16.2319221  64.1464081  66.7018814
  14.2947330  29.6661797  48.6743698  13.9555063  29.0468731  49.3206024
  14.3643970  29.1561356  47.8673820  84.7367706  31.8005238  76.9042130
  84.2129364  32.5802269  76.7201233  84.2041702  31.0728588  76.5831757
  18.1459866  47.5236015  59.2696037  17.5615501  46.8449364  58.9318428
  18.0938492  47.4327888  60.2210579  81.1890030  66.0375061  40.7984047
  80.4355698  65.4583054  40.9128571  81.0132599  66.7769165  41.3803253
  59.6401253  63.4838905  79.4719009  58.7962914  63.8350296  79.7562943
  60.0055008  63.0740204  80.2559586  68.0188217   7.9109354  19.9957409
  68.1629333   8.6946716  20.5260448  67.1478271   7.6063113  20.2503147
  44.1291008  67.5312119  78.8355484  44.7326813  67.2054825  79.5032501
  44.4387665  67.1371689  78.0200272  37.2773247  61.1517944  37.2527351
  37.3529205  61.2672348  38.1999397  37.9258347  60.4804268  37.0407639
  18.1875935   2.7433178  60.8991089  18.2070503   3.6576498  60.6165314
  18.4721889   2.2489612  60.1304398  28.9587708  70.9130402  61.4381561
  29.4396439  70.5636368  62.1884270  29.6021690  71.4421005  60.9665985
   4.1508722  30.2842674  51.7545853   3.8377385  29.7821121  52.5069275
   3.3623252  30.6858826  51.3897133  66.9410782  25.6522446  40.8511047
  66.7753677  26.5778236  40.6720123  66.1274185  25.2115059  40.6062965
   6.8402653  61.6530075  55.2660637   6.1526027  61.2234001  54.7573509
   7.4335499  62.0158348  54.6083374   5.2896843  29.8918056  54.4205170
   4.4878907  29.3705654  54.3796654   5.4995089  30.0805664  53.5058708
  33.9581108  66.1226578  11.3921738  33.4482956  66.7142334  11.9456720
  34.8205185  66.0908890  11.8062706  85.3259583  35.3855209  55.7607155
  85.4035187  35.5027618  56.7075386  86.0116959  35.9432297  55.3933487
  57.1012726   1.6062095  35.3700752  57.0654221   1.9520049  34.4782372
  58.0335846   1.4655689  35.5351295  60.5173378  48.4324989  54.6199188
  60.3916740  49.0323524  55.3551865  60.9080544  47.6515694  55.0119896
  44.6640778  33.9778519  28.7563286  43.8475380  33.5032539  28.6005898
  45.1603127  33.8735504  27.9444771  26.3304901  40.3033524  63.6459160
  25.7798481  40.6152153  64.3640823  26.1996059  40.9449348  62.9477272
  53.0947609  11.1561003  30.0112457  52.3895645  10.7894077  29.4778938
  53.2223473  10.5166731  30.7120209  53.0005913  10.0670376   9.7479067
  53.9321289  10.2733355   9.8248005  52.9805946   9.1624823   9.4354792
  15.0883236  10.0170727  22.5974445  15.4586372   9.3905354  23.2191772
  15.1462679  10.8612633  23.0449009  29.5326977  58.9306870  73.6777573
  28.8841991  58.2784042  73.4127808  30.0208473  58.5094528  74.3852158
  59.1903458  62.3183441   7.2189088  59.5648308  62.8863297   7.8922472
  58.3681107  62.0075912   7.5978518  15.6401005  -0.0655908  67.7668991
  14.8745785   0.4053997  68.0961075  15.6011248   0.0480521  66.8172684
  70.8422470  64.9319000  71.4513702  71.7813034  64.9666138  71.6335907
  70.4495544  65.5080414  72.1071854  19.4990063   5.9427638  79.3044128
  18.8680420   5.2421184  79.1394501  19.9511127   5.6744981  80.1043243
   7.9329338  42.1280098  84.3936310   7.9182057  42.0138817  83.4433746
   7.0139318  42.0733566  84.6557007  44.5027695  18.1953144  64.2108459
  45.4241791  17.9569683  64.3129807  44.4793015  18.7249565  63.4138756
  29.4645996  18.1558266  85.3675461  29.5719910  19.0512257  85.6884232
  28.8663597  18.2376957  84.6248245  35.7686615  54.1666832   4.5630546
  34.8341637  54.2650642   4.3806567  36.1498337  55.0111389   4.3225598
  14.7535896  28.2806568  64.7960052  14.7189817  27.9854012  63.8861389
  14.6013670  27.4882355  65.3109131  22.3427734  46.1258926  18.0104980
  22.0942726  47.0501099  17.9931736  23.2262859  46.1222916  18.3787727
  59.4271278  55.2824364  34.4100761  58.7214508  55.4420357  33.7833519
  59.7326546  54.3983917  34.2067451  72.2278824  44.3470116  20.7482433
  72.0762634  43.5831223  21.3047638  71.3592453  44.7298241  20.6250954
   6.4291520  12.8861647   9.4879551   5.6480403  13.4067774   9.6751947
   6.8527260  13.3427401   8.7610741   1.7914492  55.8979759  52.8301086
   1.3420280  56.2465057  52.0601845   1.4891239  54.9920425  52.8942528
  75.3038025   8.4239883  34.8867188  74.3998566   8.5117807  35.1890602
  75.6220398   7.6272879  35.3112488  29.4630356  54.9009476  36.6753464
  29.0377388  54.0902138  36.9547424  28.8203659  55.5852623  36.8622169
  67.2996902  18.0796490  59.5617638  67.3507233  18.2185726  58.6160774
  66.7034454  17.3377151  59.6630249   1.3364563  67.0271454  49.4150887
   0.7412354  67.0324326  50.1646957   1.9459521  67.7446365  49.5881462
  11.9594851  18.4463692  22.4073696  11.9689913  18.7556305  21.5015545
  11.0734653  18.1075726  22.5354977  69.0330811  34.9953918  48.0984573
  69.5492401  35.0823097  47.2970428  68.5355453  35.8113327  48.1525803
  40.5461082  34.2104492   3.7266221  40.1118011  33.5391273   3.2003727
  40.8066139  34.8795853   3.0936770  67.8486938   4.9388647  85.7871170
  67.9488220   4.0038075  85.6085815  68.7357941   5.2421603  85.9802551
  80.2445526  35.5015526  30.7417908  81.1004028  35.1561050  30.4879951
  79.7098999  35.4209175  29.9519291  29.6388702  64.7082977  78.5245743
  29.6471100  65.3657761  77.8289490  28.7850723  64.8142090  78.9441452
  69.3577194   9.9206057   6.1473584  68.4308014   9.6826315   6.1268287
  69.6015167  10.0138483   5.2264342  57.1444931  48.9117622  10.6331425
  56.7628365  48.4702721  11.3918619  58.0895996  48.8155861  10.7504292
  23.9475155   5.6157322  64.3415451  24.8046951   5.9085813  64.6509247
  23.3373413   5.8999000  65.0221100  27.2022266  68.3664398  57.9544678
  27.0363045  68.1340942  58.8680954  28.1564617  68.3877106  57.8822403
  19.1958752  45.4190941  42.5520897  19.8166389  45.8622437  41.9737244
  19.6448364  45.3746376  43.3962975  24.4390392  35.1791763  54.7083778
  23.5840969  34.9573441  54.3394661  24.2437820  35.8044128  55.4063644
  29.0580788  64.3030090  33.6348839  29.9641304  64.5269852  33.8473320
  28.6950169  65.1048508  33.2587700  10.4683208  71.1582413  27.2197323
  10.5440454  70.2652512  26.8834648   9.5268888  71.3309021  27.2309990
  59.1920242  40.3702202  51.6335640  59.1420822  41.2784386  51.3354378
  58.3104362  40.0239258  51.4952927  31.4861698  28.4844627  68.3412018
  31.4041843  27.6066055  68.7138672  31.7315407  29.0375652  69.0828934
  11.7964993  20.0982246  87.5774536  11.1048698  20.4119568  88.1600800
  11.6828623  19.1479416  87.5607681  76.6758575  45.9993019  82.9154816
  76.5557327  46.8576469  83.3217468  75.7869415  45.6918869  82.7378387
  77.6709747  68.5590591  27.4384823  78.4479523  68.0213852  27.2853889
  76.9368820  67.9527893  27.3395729  74.5817642  48.0097771  21.8800068
  73.6810837  48.2709694  21.6882114  74.9983139  48.8076515  22.2057648
  39.3966484  63.5822105  46.9739265  38.9506149  63.3344116  46.1640587
  38.9584808  63.0714226  47.6546135  56.4617271  22.4173355  32.2009430
  56.0345993  23.0354958  32.7939606  56.3382492  22.7961006  31.3305855
  63.7500000  14.3458252  84.6586609  63.2249908  13.7542324  85.1977463
  63.4556313  14.1787071  83.7633133  52.3070602   4.1183920  22.5866947
  53.0079269   4.1908331  23.2345905  51.7458038   3.4175179  22.9183521
  17.2936745  56.1021004  11.0060072  17.7217484  56.5898933  10.3024130
  17.5010357  55.1857796  10.8227377  66.8940811  56.5442314  29.7407417
  67.4738770  56.2556458  30.4455719  66.6103134  55.7340965  29.3171997
  69.8587036  47.8534889   9.6918421  69.9614258  47.7052307  10.6318951
  68.9504700  48.1388359   9.5922098  66.6402512  70.7476044  57.2521248
  66.6528244  70.8675766  56.3025551  67.4540939  70.2823257  57.4455490
  53.6389465  27.0182438  80.6711578  54.1963844  26.3046150  80.3609467
  53.1530495  26.6411362  81.4045868  41.6731567  61.0201797  18.1055641
  42.5657616  60.8076897  18.3782139  41.1376724  60.8415947  18.8786049
  69.8862152  16.6236401  35.2457008  70.6712341  16.0825958  35.3308029
  70.0438843  17.3675842  35.8270111  21.3862572  51.3333092  23.5023918
  20.8062286  50.5719452  23.4912148  21.7985725  51.3329926  22.6385460
   9.0708485  25.8948421  11.3390760   8.9521551  25.9720726  10.3924084
   9.6705341  25.1564560  11.4458265  66.7198715  63.0394211  16.7142239
  67.4638596  63.2990227  16.1707897  67.0974655  62.4606857  17.3765831
  40.2832565  50.9758759   0.5911750  40.8333397  50.6587715   1.3074727
  40.8265495  50.8756180  -0.1904978  15.4263382  24.8037682  11.0300379
  14.9149303  24.1090431  10.6152506  15.9703817  24.3492718  11.6732187
   3.7739727  11.9227581  85.6107941   3.4894924  12.7938566  85.8873672
   4.2943277  11.5964222  86.3449402  49.8140564  43.1467323  14.4659472
  50.3114014  43.9643021  14.4873037  50.2481155  42.5854836  15.1084566
  28.6163845  48.0875473  45.3069267  28.7178059  48.2906189  46.2368240
  29.2301445  47.3699493  45.1501503  37.5862579  69.0612946   3.5900900
  38.2054634  68.8188324   2.9015937  38.1332130  69.2177505   4.3598895
   3.9041142  23.0903339  17.8761463   3.4597805  22.7143764  17.1162415
   4.4274640  22.3702755  18.2280731  80.7916794  27.7176456  42.3797569
  80.3323746  27.4928837  43.1889229  80.3865509  28.5364151  42.0938911
  73.8718185  48.8438034  58.1806641  73.3282928  49.5062752  57.7541199
  73.3346558  48.0515785  58.1722145  53.1351242  32.9596138  17.1157818
  53.8878174  33.1430130  16.5535984  52.5846367  33.7390823  17.0408344
  33.2878265  56.2884521  35.5909004  33.0048180  55.7747002  34.8344650
  33.1273460  57.1972466  35.3367882  65.7541046  45.8179016   3.4180601
  66.4272766  45.5864677   4.0579896  64.9922638  45.2974815   3.6730013
  69.5522995  48.5969543  16.9225616  69.3466949  47.8070984  17.4226475
  68.8874283  49.2307434  17.1918011  85.7619171  48.6831207  88.4868393
  85.7258301  47.9149551  89.0567932  85.0688019  48.5365410  87.8431549
  53.6829185  17.1686745  68.0095749  54.4380035  16.6351357  68.2574005
  54.0418282  17.8331242  67.4214249  43.6819038  66.1825867  63.0966148
  42.9062958  65.6756592  62.8564339  43.3841667  67.0922928  63.0925980
   3.8033404  12.6091948  79.1266098   4.4379625  11.8927364  79.1398087
   3.0639706  12.2837267  79.6400681  57.4214401  16.8925610  39.6731567
  58.0800438  16.2012386  39.7405472  57.0967522  17.0019894  40.5669327
  53.0217247  64.0885010  81.4870300  52.1692772  64.4084396  81.7823410
  53.4375763  64.8511124  81.0848770  86.5288849  51.1365852   0.3695579
  85.7711716  51.5668488   0.7657666  86.1627350  50.3787117  -0.0862832
  61.6264267  60.1456261  79.6830063  61.3930702  60.1852989  78.7555313
  62.1304207  60.9445839  79.8375626  28.8908081  61.6376381  17.3300018
  29.5693893  62.2722015  17.0995941  28.6838512  61.8297539  18.2446022
  31.9787426  51.7926559  37.3936691  32.0606766  52.7371864  37.5255203
  31.5035324  51.4834900  38.1649132  63.3293877   0.9854699  58.5281982
  63.6808510   0.1428778  58.8158531  63.8215561   1.6344925  59.0309639
  63.8494606  51.0695724  69.7880936  64.5454254  51.3438530  70.3852844
  64.2009201  51.2432251  68.9148560  68.5419922  46.2765236  33.9395943
  67.9174118  46.8818283  34.3392601  68.0000076  45.6776810  33.4259186
  41.2114220  15.4958172  88.5421448  41.5173111  15.3846531  87.6419754
  40.8432198  16.3791294  88.5626297  72.4958572  36.3505402  73.9615860
  72.4404449  35.7337990  74.6915131  73.3307648  36.1478424  73.5396042
   3.2579505  55.6243095  56.5865898   3.1908360  56.0188942  57.4560890
   2.7399604  56.1984253  56.0223999  47.0953941  15.7297869   9.3578854
  47.8217659  15.7467537   9.9810457  46.5138397  16.4322376   9.6487312
  84.2049026   5.2474642  41.0539970  84.6840973   6.0760427  41.0460129
  84.0762024   5.0362897  40.1292953   1.2105930  10.1566038  67.4831009
   1.6399472  10.9228220  67.8636246   1.2734644  10.2917318  66.5375748
  52.4267693  58.6983452  22.8747215  52.6103859  59.5860939  22.5674458
  52.9069138  58.1317635  22.2708359  65.3655472  15.9422941  74.5562286
  64.7212524  15.2917175  74.2771759  64.9981537  16.7797680  74.2735748
  66.0993881  45.9899483  10.4136086  66.3156281  45.2864876  11.0256691
  65.1568832  46.1187401  10.5200481   2.9922464  21.4219780  58.8436089
   3.5639963  21.9342728  58.2718697   3.5642719  20.7501640  59.2146683
  52.9052963   1.4452763  29.1044788  52.1745148   0.8986461  28.8157082
  53.6640167   1.0982208  28.6353016  10.1772308  21.8050652  20.3518143
  10.4157743  20.9380398  20.0237961  10.6791620  21.9013901  21.1611462
  79.1896362   2.1903665  13.5232677  78.4994354   2.7360542  13.1463251
  78.7840652   1.3297006  13.6281376  80.7687531  60.8315811  21.9431992
  81.3218689  60.8485756  22.7242298  80.2004700  60.0716133  22.0686474
  16.2553062  20.2680054  62.7494507  15.8496084  20.7152576  62.0067482
  15.5636292  20.2243652  63.4096832   6.3400269  55.8526649  31.0064278
   6.6992097  55.0841789  30.5629749   5.7025361  55.4960709  31.6250362
   1.9787971  64.2660217  41.2153091   2.6705649  64.2419968  40.5541611
   1.1710017  64.3726501  40.7129860  70.7785263  16.9102974  66.6926727
  70.1556168  17.6350479  66.7470169  70.6964951  16.5908394  65.7940903
   4.7928491  61.4479980  16.1096840   4.7255073  62.0659714  15.3818054
   5.5702281  60.9264488  15.9099360   0.6175990  29.8262444  76.5461349
   0.0492281  29.3592854  75.9336472   0.7721590  30.6744537  76.1303406
  48.0222435  71.2342529  59.6214294  47.6281624  70.4282608  59.9550781
  47.8972855  71.1874161  58.6735764  46.6377678  25.2077713   0.7697477
  47.1666946  25.5948124   1.4673631  45.9111328  24.7844162   1.2269208
  67.8275986  14.0094004  85.3592529  68.0709610  14.5188560  86.1322098
  67.5810318  13.1517773  85.7055435  83.3964920  40.7568398  68.0769272
  83.2948837  40.2806129  67.2528381  82.6810760  41.3927689  68.0758438
  84.0168304  29.9190693  84.6367416  84.0682144  28.9676704  84.5449142
  83.5721130  30.0552692  85.4733505  50.6857910  66.9384079  75.3632355
  51.5881844  67.1100769  75.0940857  50.4392395  66.1474152  74.8838959
   2.8595967  60.4279289  68.3590698   3.2045064  61.3206863  68.3749771
   3.1668661  60.0672379  67.5273666  79.2120972  70.1043930  70.8355179
  79.9639587  70.6825714  70.7064972  78.9002457  69.9158859  69.9503937
  10.9393988  35.5716019  67.2901306   9.9880619  35.4733658  67.3293686
  11.2378473  34.8141022  66.7867889  82.9794388  20.7048798  53.1676826
  83.2516174  19.7917385  53.0764313  82.3267212  20.8302326  52.4788589
  16.1424046  53.5018463  27.2164536  16.2943668  53.3345222  26.2863235
  15.2771225  53.1304169  27.3883858  86.2586594  56.8699265  11.4765491
  86.2606964  57.2013588  10.5785618  86.2489624  57.6563835  12.0220995
  74.0842590  16.8045368  81.6372147  74.2163086  15.8566027  81.6518936
  74.6632690  17.1162758  80.9416580  86.1649857  14.5658607  19.1146183
  85.3622208  14.3083162  18.6613350  85.8855972  15.2436075  19.7301140
  57.9265938  11.6768055  49.6357994  58.7187767  12.1372318  49.9127197
  57.2082481  12.2266464  49.9486732  86.3838043  54.7760353  70.8365860
  85.4887314  54.7116241  71.1696320  86.4008179  54.1893463  70.0804520
  19.4485779   6.5044394  51.7090263  19.2996731   7.4127402  51.9717979
  20.3395824   6.4992805  51.3592873  52.4185677  14.5349350   2.5161102
  52.9479179  14.9324074   1.8247081  51.5395889  14.4772167   2.1415536
   8.9370174  51.0839424  40.6989250   9.6011744  51.6772232  41.0498505
   9.2309914  50.8955917  39.8076706  77.8282623  40.5477371  85.0955353
  78.5874939  40.4414215  84.5223999  78.2011566  40.6416664  85.9720993
  33.8206291  17.9657211  83.0472794  33.3148727  17.9493847  82.2347717
  34.7192955  18.1384697  82.7665863  60.6377945  22.4225426  15.0651913
  60.0293808  22.9986095  15.5280218  61.4078827  22.3822899  15.6322651
  49.3889809  66.4045944  87.9039993  48.6419868  66.8864136  87.5489120
  49.3198853  65.5335770  87.5131149  58.0338554  16.4286385  35.9093590
  58.8643150  16.0874805  36.2412949  58.2258644  16.6925182  35.0095062
   5.6541405  20.9544563  14.2866793   5.0410576  20.5140800  13.6980963
   5.9415751  21.7264462  13.7991924  28.9679832   5.5941987  36.2937202
  29.6501503   5.5941391  36.9651985  28.1716156   5.8458757  36.7613640
  42.7453575  56.6599922  65.2497025  43.2287025  57.4341812  65.5382233
  43.3301010  55.9270325  65.4422607  54.4718437   4.2828417  24.3850250
  54.5241013   5.1800485  24.7144508  55.3619843   3.9425120  24.4747906
  10.7027893  29.3297253  85.9182053  10.3156071  28.4771690  86.1168747
  11.6421309  29.1571465  85.8542862  66.1158371  70.6168823   5.6047850
  65.1780243  70.6602249   5.4180913  66.5278931  70.5374756   4.7444739
  32.6437759  11.8588743  62.3609924  31.8385620  12.1806755  61.9556465
  32.4077644  11.0012455  62.7145500  64.9063339  50.2025986  31.6959362
  65.3264618  50.9972649  32.0249176  65.4371490  49.4878883  32.0475845
  45.4824181  61.9444580  16.0961838  45.2985306  61.4083176  15.3248396
  46.3775215  62.2564392  15.9631643  29.0305862   2.2607300  62.1776466
  29.7314072   2.2455726  61.5258408  28.2511978   2.5185411  61.6853867
   9.7077312  67.4545898   1.1222847  10.3531227  68.1553116   1.0290242
   9.6837111  67.0350723   0.2622516  53.4770927  20.2367077  14.5221348
  53.8971291  20.7347641  13.8208923  54.2035179  19.8358746  14.9994965
  39.7004890   3.5152767  68.4137573  39.9018440   3.5086730  67.4780045
  39.7230988   4.4407544  68.6570969  10.5008812  13.7015171  85.2918701
  10.9739723  14.1902437  84.6184006  10.4087181  12.8208084  84.9284286
  75.8238831  43.6106300  62.3668098  76.4244232  42.8741493  62.2520180
  74.9530411  43.2291069  62.2558784  52.6068497  30.0216923  66.3083267
  52.2582664  29.1306553  66.3361969  53.5420723  29.9078274  66.1391296
  30.2961178  25.5805264  88.2075348  30.5446186  25.2107792  89.0547409
  29.4141598  25.9256916  88.3462601  23.6733131   1.1814309  55.9006500
  23.5750484   1.4803208  56.8046646  24.6082478   1.2747358  55.7178230
  11.2282515  54.0454674  63.4670448  10.2766266  54.0858574  63.5619659
  11.5290689  54.9256134  63.6930695  46.1689491  44.6436081  34.0316467
  47.0542603  44.5504913  33.6798210  45.6296043  44.0822372  33.4746895
  16.1511364  41.5029068  12.3948498  17.0733433  41.2466621  12.4050379
  16.0953007  42.1694260  11.7101107  61.1861000  48.5862770  66.6679306
  61.0215149  49.5126228  66.8440857  61.4202576  48.2183571  67.5200043
  32.6139221  22.9398670  72.3855743  32.5269508  22.1031399  71.9288940
  33.5575752  23.0544949  72.4978561   1.5805526  47.4776611  56.7304420
   0.6747552  47.7428703  56.5709763   1.7017926  46.6998558  56.1858749
  61.8470917  44.3336754  31.8878899  62.4377632  45.0663414  31.7131462
  61.0634079  44.7406616  32.2572632  11.5175200  15.8148260  65.2252960
  10.6279354  15.4686279  65.1544571  11.5013266  16.6234207  64.7132950
  39.1271896  29.4424133  82.2059631  38.9364471  29.4955120  81.2694702
  40.0509148  29.6832848  82.2762909  25.6454620  43.0315590  48.2285728
  26.3827190  42.6830635  47.7273369  26.0059738  43.7889900  48.6896095
  40.4716759  66.2918930  60.9746933  40.8455963  65.4131927  60.9091110
  40.7479210  66.7304230  60.1699486  49.4778137  15.3962564  66.5812912
  49.4290504  14.6659403  65.9644470  50.3353081  15.7896204  66.4194412
   7.7624202  35.1407280  12.9955940   8.1159182  35.2590828  12.1139679
   8.5274715  34.9431763  13.5358725  72.6351547  16.8491440  24.3904877
  71.9323273  16.5784779  23.7997265  72.2917252  16.6751728  25.2668552
  32.9892731   6.0953879   6.6943417  33.2373657   5.7226915   5.8483047
  32.3274994   6.7533746   6.4814067  69.5062408  40.7834930  16.2857208
  69.8262711  41.3774567  15.6067390  68.7026367  40.4131393  15.9206228
  11.7014561  38.2341995  19.2119617  10.9304037  38.6630478  19.5831738
  11.8837891  37.5095787  19.8102207  45.6871071  46.1989555  71.4061203
  44.8787842  46.7104111  71.4415894  45.6519890  45.7539177  70.5594025
  80.7410660   8.1118670  26.4336605  80.5252457   8.9891081  26.7500477
  81.6734848   8.1563110  26.2218571  59.1376953  57.9499817  77.1448059
  59.8891106  57.4727592  77.4967499  59.4809151  58.4026337  76.3743896
  44.7901344  13.7370853   3.6565976  44.3839569  13.1038971   3.0647151
  44.0949593  14.3668470   3.8472896  81.9458618  39.5871506  16.4460583
  82.2488251  39.1263542  15.6636820  81.5483093  38.9048309  16.9870090
  56.6725159  48.0785599   8.0594482  56.0621376  47.3521843   8.1861410
  56.8160553  48.4270325   8.9393311  18.1913948  60.1926613  86.1482086
  18.8381100  60.5781059  86.7393341  18.2184563  59.2556267  86.3417587
  39.8719597  53.8403130  34.5378494  40.1904869  53.0643425  34.0767174
  39.3339272  53.4923248  35.2489471  15.5531673  44.0043716  39.5988197
  16.4202995  43.8893623  39.2101212  14.9820204  43.4353371  39.0828514
  31.4978447   8.6130447  74.9849625  31.5183201   7.6815305  74.7656631
  30.5803394   8.7901440  75.1924515  73.7384567  51.1817284  36.1866417
  73.9288635  51.9736862  35.6838684  74.2855225  50.5062447  35.7858086
  11.8736410  70.0078430  38.2586479  11.5603437  70.5224457  39.0024605
  12.7612438  69.7472458  38.5045776  51.3036957  39.2738419  87.0773849
  50.4360619  38.9647331  87.3379440  51.8843155  38.9761314  87.7777252
  12.3707809  65.9741135  61.0245628  12.1418839  66.0605469  60.0991592
  13.1743011  65.4539337  61.0249672  57.0475159  48.9771080  55.9130402
  57.9437218  49.3089943  55.9668007  56.7443886  49.2453842  55.0456429
  46.1604233  51.1370392  40.4774437  46.5172806  50.2742348  40.2665939
  45.6610489  50.9995003  41.2823906  41.9418068  67.2644882   1.6627506
  42.6829910  67.6871109   1.2288511  42.0078316  66.3442841   1.4076146
  28.0786362  26.6601009  74.3351898  28.0797577  27.6172657  74.3270950
  27.2081375  26.4243126  74.6559143  73.8418274  24.9746246  17.8697853
  73.1474915  25.5307636  18.2231064  74.5329361  25.5863914  17.6161289
  20.0818214   8.3833370  86.9282303  20.7755299   7.9625988  86.4203110
  19.5076199   7.6640487  87.1911926  76.7868347  45.8581047  49.4136009
  77.5850143  45.8771133  48.8856049  76.0835724  45.7176743  48.7796211
  16.7152233  14.1082344  87.2119141  16.3010864  14.0768528  88.0743179
  16.0213470  14.4061928  86.6237106  14.4652834  52.1608238  45.9026794
  14.5425243  51.4329262  46.5194702  15.2237749  52.0678291  45.3262482
   8.2018471  35.3319321  67.8372650   7.5767531  35.8789749  67.3616257
   7.6947103  34.5651321  68.1038437  41.6017838  25.4633236  85.2603226
  40.9411774  26.1554108  85.2894135  41.3640671  24.8750401  85.9770126
  18.5569439  51.7684097  78.0044937  17.6542797  51.7776527  77.6861420
  18.6336327  50.9430847  78.4832306   3.1276360  69.6547546  25.4283009
   2.4087560  69.5357056  24.8076000   3.1873827  68.8178329  25.8889828
  81.3888779  57.1280518  60.6095848  81.6119690  57.3881111  59.7158089
  80.4684677  56.8697090  60.5611839  54.5212250   9.1253233  12.6334610
  54.5281143   9.6936693  13.4036341  54.8907852   9.6647549  11.9344101
  81.4147720   1.2335606  82.3371506  81.9948196   1.4988185  83.0508804
  80.7783966   0.6498111  82.7500687   0.1247556  70.2711868  41.3101273
   0.9210118  69.8579178  40.9763412   0.2187253  71.1949081  41.0774498
  39.0163193  10.9418135  74.6802979  39.1548843  11.8750305  74.5186310
  38.6277275  10.9052582  75.5543060  53.2779694   7.5080338   8.5852346
  53.5970039   7.3149920   7.7036548  53.6066208   6.7869473   9.1221266
  67.3582916  64.2548218  34.6882477  67.6372528  64.1972046  35.6020813
  66.9997787  65.1381989  34.6025085  60.6700554   9.9645405  81.4743729
  61.2048569   9.7081776  80.7230453  60.1909637  10.7371922  81.1748581
  13.1831808  22.1201668  66.8266754  12.6226320  21.7535152  67.5104752
  12.9079027  23.0341892  66.7558365  59.9584465   8.6672268  20.8679066
  59.0364113   8.5286684  20.6513672  60.2075119   9.4449100  20.3684998
  64.6426544  61.0584488  51.1284943  64.4241333  60.2043381  51.5012817
  65.5312424  60.9513931  50.7890968  83.5454178  27.8124809  25.0104275
  83.0874710  28.1936512  24.2612782  84.2348709  27.2744827  24.6212654
  18.9918575  50.8938942  28.4627151  19.4329300  51.6169395  28.9086857
  18.1344280  50.8395729  28.8847313  56.1792374  33.8928261  72.3905716
  56.9768715  34.2522430  72.0021973  55.5953712  34.6461716  72.4789200
  38.0124054  14.6880741  86.3824387  38.3485069  14.4388990  85.5215225
  37.8945618  15.6364460  86.3282471  69.3327026   5.3678575  48.9059029
  70.2219467   5.7219453  48.9161034  68.9349976   5.7418318  48.1196404
  67.0750656  20.6862679  81.1598587  67.5675354  20.7876778  80.3453522
  67.7443848  20.5346279  81.8271332  78.0869293   4.7127399  36.2481270
  77.1392288   4.8462424  36.2647133  78.4423676   5.5541625  35.9619370
  83.2447357  52.1717682  28.1193581  83.6644058  51.4172707  27.7060242
  83.1478119  51.9187775  29.0374165  75.1845245  51.1413078  49.9789734
  75.0415039  50.4865570  49.2955437  75.9569931  51.6261139  49.6883125
  75.5138855  56.2980080  73.6158905  75.6715546  55.9856682  72.7249298
  75.8338699  55.5919037  74.1773682  50.7241173  68.7659912  46.3179626
  50.7939568  67.8638458  46.6302071  50.6730881  68.6864853  45.3654366
  76.5582428  58.8203964  33.6716843  76.3116837  59.7440910  33.6244850
  76.5723419  58.5293694  32.7599068  51.8200874  11.3661633  64.6576309
  52.0429497  11.9432812  65.3880386  51.0443268  10.8912182  64.9557190
   1.3164752  26.6958370  52.3798180   1.8742452  26.3962803  51.6619110
   1.1103352  25.9004765  52.8708801  43.9256096   1.7993726  26.6798668
  43.1022949   2.2860041  26.6401920  44.5854988   2.4193854  26.3694382
  47.2882919   7.0561314  77.2014999  46.3547211   6.9049110  77.0538101
  47.4379654   7.9497209  76.8927460   4.4005075  50.4808731  55.7350693
   4.1456361  51.2968407  55.3044052   4.2395401  49.8031311  55.0785675
  32.7991676  48.2798157  82.1657257  33.0907974  49.0870857  82.5894012
  33.1647491  47.5798492  82.7066727  37.4437065  15.9051514  76.9306259
  36.7639008  16.2425804  77.5139236  38.1847916  16.4972725  77.0587540
  73.1974564  48.1889000  87.2075882  72.5509949  48.8235626  86.8985291
  73.3626862  48.4386902  88.1167297  17.4617062  13.8064451  74.1617279
  18.3164005  13.9383526  74.5720062  16.9420128  14.5592651  74.4435272
  42.9006042  65.0808411  76.4263458  43.1373825  65.9063568  76.8490524
  43.6307907  64.8961716  75.8356171  20.2001286  11.0222197  55.5717812
  20.4986115  10.1587343  55.2862434  19.8430691  11.4258919  54.7807121
  19.0538120  40.6061058  18.6895180  19.8916912  40.1803741  18.5080185
  18.5830059  40.5730515  17.8567638  64.7093048  16.8548737   6.7720475
  64.5953369  16.4062271   5.9342160  63.8466606  16.8140812   7.1848640
  84.3889542  53.2996941  25.9740601  83.8623199  53.0263290  26.7251644
  83.8168793  53.8887024  25.4820919  52.6553612   7.3341088  16.0991516
  53.5133057   7.5720296  16.4506607  52.8111534   7.1870375  15.1662369
  53.9751167  50.0313110  41.8708534  54.2253075  49.2351418  41.4020729
  53.2946777  50.4263992  41.3257446  76.9227295  30.3584805  32.8009605
  76.9314575  31.1852474  33.2832603  76.8994370  29.6849174  33.4806671
  62.1871834   1.7051978  19.1265640  61.7591019   2.5584936  19.0568314
  62.3177376   1.5788189  20.0663605   0.7730988   4.5968242   2.7217596
  -0.0064397   4.5550928   2.1678553   1.4337244   4.0955701   2.2436907
   5.8968353  59.2154961  20.4500885   5.7703218  60.1487617  20.6210976
   5.9425497  59.1508331  19.4961700  60.3979301  46.4901505  85.6597519
  59.7008705  46.7143250  85.0432434  59.9423828  46.0944099  86.4027863
   4.3760533  66.3070755  18.2795925   4.2091765  65.3659821  18.3317833
   3.7723470  66.6203842  17.6060905  70.2026596  61.7639198  82.1671524
  70.4507446  61.1624374  82.8692245  70.1251907  61.2080574  81.3917542
  48.0057716  17.9335194  71.0327301  48.5945969  18.3905067  71.6332932
  48.5707626  17.3184547  70.5650635  25.0346260  22.9460468   4.8170691
  24.3517342  23.4665470   5.2401204  24.6512794  22.0732803   4.7301579
  22.6135445  35.4033737  59.8496895  23.0744324  34.5810013  59.6838150
  21.6914577  35.1959457  59.6981544  38.0266113  36.0037346  55.1493111
  37.3056946  35.9709015  54.5204811  38.0104790  36.8997688  55.4856071
  40.4143600  38.7354317  11.6459303  39.7723274  38.0255623  11.6564007
  40.4593239  39.0041924  10.7283363  51.8491516  38.5769386  72.4910583
  51.4164391  37.9463997  73.0667496  51.3169250  39.3694649  72.5608215
  69.6162338   8.7017059  73.1306229  70.1506042   8.6261768  72.3400726
  69.8721924   9.5408392  73.5134735  45.6309624  65.8686218  46.7373657
  44.7953148  65.4480743  46.5347061  45.4834251  66.7961044  46.5523338
  70.2091827  28.7878990  42.7854385  69.3857880  29.1583977  42.4676514
  70.4970703  28.2057705  42.0822487  29.8091507  49.2652054  84.7485275
  29.7364769  48.6118317  85.4442673  29.7504845  48.7594833  83.9379578
   1.1680613  37.1710396  25.9228916   1.8283819  37.4732323  25.2992821
   0.8513092  37.9708290  26.3426971   7.3659544  37.9594002  20.3944511
   8.1611710  37.5860863  20.0143204   7.6787930  38.6704597  20.9536953
  36.2125893  67.6076584  86.4936523  35.3682327  67.2339478  86.7459183
  36.3804588  68.2844849  87.1493683  30.3757763  31.4907360   5.5862646
  29.4208622  31.5533104   5.6075821  30.5518036  30.5599270   5.4490070
  51.5914192  44.6290512  79.3038559  52.4703178  45.0069885  79.2733307
  51.4718971  44.2307549  78.4417038  86.1046066  57.0454102   4.8801513
  85.9024277  57.2564240   3.9686527  85.3111801  56.6236534   5.2100253
  36.5207138  16.8057613  66.1876144  37.2293777  17.1361160  66.7397919
  36.4240875  15.8888874  66.4449768  83.3533096  24.9052811   0.0957561
  83.6339951  25.8090019   0.2397636  83.1129913  24.5875435   0.9661140
  45.3360023   3.0496411  74.1280441  44.9904556   2.3177772  74.6391296
  45.9487648   3.4866102  74.7194901  67.1085892  39.5554924  60.1294250
  66.5163574  40.2394829  60.4419250  67.4658661  39.1652260  60.9270935
  41.4449387  47.0803795  21.1143799  42.2541504  46.7314682  21.4881039
  41.1701279  46.4194221  20.4788933  55.8440781  48.5034409  60.5493851
  56.3035431  49.1997185  61.0187645  55.2263832  48.1501846  61.1896172
  80.2511215  63.9180603  60.3620148  81.0210495  63.8405037  60.9254189
  80.5249786  63.5358734  59.5282478   2.3706281  67.0214615  68.1013412
   3.3157527  66.9020233  68.0080414   2.0663583  67.2242661  67.2167435
  42.0388756  50.5207596  39.2788734  41.4534416  49.8196220  39.5650597
  42.7211189  50.0736465  38.7780075  71.3295746  63.4034767  34.4956894
  71.2981567  64.2344589  34.9697304  71.0624695  62.7491951  35.1412964
   7.0060382  16.1280327  10.7427158   7.3557272  16.5447903  11.5302830
   7.7226214  15.5793810  10.4237757  45.1814804   5.4303899  87.5901031
  45.9969482   5.1456971  87.1775513  45.4043121   6.2589025  88.0145340
  21.1595802  68.2797089  43.2410507  21.2195129  67.7881699  42.4218864
  22.0451031  68.6131363  43.3856392  79.2529449  38.5959206  50.9619751
  79.3235703  38.8478394  51.8827248  79.3668442  39.4151077  50.4801140
  45.4479637  12.7721682  10.6277399  46.0991783  13.0132246  11.2865582
  45.9250145  12.2162552  10.0116110  68.0944443  24.9475040   7.3302283
  67.5420074  24.4260788   7.9126010  68.4959717  25.6011677   7.9027071
  13.5763512  50.5724678  14.0602236  13.7681093  49.7642746  13.5845289
  14.4325285  50.8910408  14.3460617  45.5292778  57.6980019  68.2902679
  44.8019447  58.3187523  68.2468338  46.1392822  57.9962082  67.6155777
  50.9106407  33.8834724  41.7197342  50.3370781  33.1355019  41.8864670
  51.1465416  34.2032051  42.5905724  68.2858276  60.8926125  87.7782135
  68.8893127  60.4379883  88.3658829  67.4161758  60.6816940  88.1179886
  29.2090721  46.6396065  49.8605385  28.9518127  47.2816353  49.1988373
  29.7404976  47.1365242  50.4825439  81.1111603  29.3437214   9.8986921
  80.6828842  30.1718960   9.6820412  80.5778885  28.9753952  10.6030998
  61.2724953   5.3843589  84.5242844  61.3762054   5.1249580  83.6087570
  60.3260078   5.4580612  84.6465988  20.3787327  67.6440201  66.4668121
  21.1200447  67.2231445  66.9021912  20.2713680  67.1554337  65.6507339
  59.5084000  49.0255699  71.0338364  59.4206200  48.1758690  71.4657288
  59.6304932  49.6474075  71.7512207  37.4885178  25.8799953  77.1053619
  37.0166168  25.6066093  76.3187256  38.3126335  26.2398338  76.7773666
  52.6965065  59.0424995  66.1921310  53.4027405  58.6479568  65.6804657
  51.8957939  58.6728821  65.8199997  76.9569626   8.5814943  27.9061584
  76.4517899   8.8710814  27.1464367  77.4174881   7.7988853  27.6033936
  56.5893936   7.1446786   8.3840942  55.9350014   7.0816236   7.6883726
  57.4251709   7.2077117   7.9217830   5.9118342  68.2750626  61.1219673
   6.5440159  68.7125397  61.6922226   6.1537342  67.3497849  61.1616020
  49.2583923  64.1891632  63.1299667  49.0651627  65.0602188  63.4765930
  49.5367928  63.6837921  63.8937225  54.8608055  40.1426353  34.3858643
  54.5619354  39.5970345  33.6583824  54.6576805  41.0374603  34.1133499
   0.7839902  11.6217556  30.6838589   0.0659782  12.2011099  30.4288311
   1.1565735  11.3226795  29.8544216  76.1447067  45.5956306  12.6021881
  76.0208893  45.3572578  13.5209265  75.5770187  44.9943123  12.1201286
   1.3892455  50.7313957  19.4739075   0.7537540  50.5151062  20.1562576
   1.7704867  51.5626831  19.7564793  27.5135365  36.6811600  57.8502235
  28.1978588  37.3500557  57.8728752  26.9360561  36.9044914  58.5802002
  78.6060638  61.1333809  23.9629803  79.0349503  60.3302422  23.6675873
  79.3073807  61.7843742  23.9873695  29.0046768  70.2276535  75.4264374
  29.3944931  70.8684158  76.0211639  28.0857658  70.1835175  75.6908035
  56.1042862  65.2644577   2.1861479  55.6746902  64.6861954   1.5558368
  55.5187950  66.0183563   2.2572746  47.4492226  35.5016174  15.5476046
  48.2443008  36.0317802  15.6024647  47.3458328  35.3209152  14.6133194
  10.1869802  21.4657288   8.6713781  10.7577362  21.7867279   7.9732170
  10.6171570  21.7446823   9.4796877  26.0810738  12.9429083  80.4498901
  26.1699066  12.5156555  79.5979538  25.7600803  12.2535458  81.0312500
  51.4831085  46.0077515  12.0244770  51.6009941  45.1470146  11.6226454
  51.6869812  46.6285706  11.3250122  61.4257202  70.1564407  34.1343918
  61.0833626  70.0661240  33.2450829  62.2463341  69.6637344  34.1263161
  32.6464691  65.7243347  62.9092484  33.0040627  65.0749359  62.3037376
  32.3281021  66.4285965  62.3445473  62.4746513  48.3353386  45.5213089
  62.4974899  48.6033936  46.4399261  63.3936844  48.3165665  45.2543678
  34.1226158  45.6183739  39.0236626  33.8079147  46.5066872  38.8560448
  34.3152618  45.6054420  39.9611893  67.0565262  67.6044159  10.2249937
  67.3500214  68.5104218  10.3211670  67.5444794  67.1224289  10.8926897
   4.7341971   6.9586253  46.5459213   5.4752827   7.5229211  46.7663612
   4.7106752   6.9570518  45.5890121  27.4336472  41.8415756  69.1023102
  27.3924160  42.7827759  68.9329987  28.3642292  41.6631775  69.2380524
   8.4677019  15.5081167  81.2050171   8.9353428  14.6808653  81.3199005
   8.1179619  15.4639559  80.3150940   9.3207502  11.8680792   0.5897639
   8.8596315  12.2248850   1.3489020   8.9017725  12.2854366  -0.1628992
  82.8706512  -0.0946604   3.5446022  82.6149750   0.3025548   2.7120852
  82.2417526   0.2509921   4.1780419  37.8193169  29.1062126  87.3613892
  37.0055618  29.5274849  87.6380920  38.3128128  29.8012695  86.9259720
  51.0267181  52.4934540  28.3121872  51.4254150  53.0885658  27.6772747
  51.7161026  51.8604279  28.5128384  25.4596062  32.6043320  69.5574722
  25.0596123  33.4484596  69.7664871  26.0757389  32.4475136  70.2730255
  22.2347221  69.2523499  18.3592110  21.6163235  69.8394775  17.9243584
  22.4149628  68.5715637  17.7109261  15.9665051  56.8737106   7.4304533
  16.4039230  56.0525856   7.2053905  16.5332394  57.2740974   8.0897961
  45.4457359  65.2204437  59.1979561  45.3459282  65.7362747  58.3978386
  44.6965256  64.6247101  59.1938782  14.2182560  67.4733124  79.7702637
  14.6861315  67.8781052  79.0398788  14.9086256  67.1940765  80.3716431
  68.1119537  27.9160671  55.6771049  68.7693710  27.9180927  56.3728256
  68.3466339  27.1679783  55.1279945  53.5600090  71.0502319  75.7398148
  54.3325195  71.5048599  75.4040070  52.8250847  71.4533539  75.2776413
  48.3707695  60.1920967   3.3414762  47.6031647  60.4407310   2.8265049
  48.3988457  59.2370529   3.2837162  76.3876572  49.4718819  32.8748779
  76.4616394  48.9391899  32.0830460  75.8068390  50.1909943  32.6263733
  13.6939878  20.8058414  82.6699677  14.5461607  21.1820049  82.4496613
  13.7591600  19.8900833  82.3990936  50.7156715  65.7207794  18.5266609
  51.0341187  66.5280914  18.9304810  51.0431519  65.0234604  19.0947552
  77.6062698  36.9326515  62.5328369  78.0348358  36.5117760  63.2781067
  77.1620026  37.6921844  62.9096260  20.1518402  58.8457565  30.5863914
  20.3379593  59.5257988  31.2337971  21.0142632  58.5371819  30.3084660
  29.0459061  39.1054764  10.9832458  29.6352367  38.4112473  10.6883373
  29.5529346  39.9105873  10.8785992  61.6713791  66.0424118  83.6584015
  61.2620544  65.6706543  84.4397354  62.5553665  66.2778549  83.9401093
   4.8342485  66.7909241  12.6036062   5.1249261  67.5530472  13.1045065
   5.0788560  66.9906921  11.7000065  35.5163193   9.3157005  68.4213943
  34.7808266   9.5901833  68.9690628  36.2855301   9.4266863  68.9801712
  10.7399683  15.3283749  23.7986507  10.3347139  16.0204258  23.2760944
  10.1233053  15.1768007  24.5148792  16.3990250  42.9500351  78.6871262
  16.3424149  42.7347374  77.7561722  17.2103672  43.4514313  78.7681046
  73.1988678  71.1427612  66.0187225  73.4871902  70.6269226  66.7717285
  72.2446518  71.0678635  66.0283203  53.0872574  15.7454329  24.2645664
  52.8545418  16.5293655  23.7670479  53.7959480  15.3441639  23.7616043
  48.5895195  22.9920425   2.5174580  49.1159325  23.7228813   2.1934276
  48.1026001  22.6892471   1.7510017  11.4772902   8.6581326   7.0521626
  12.0927496   8.3999166   7.7382870  11.6995220   8.0985117   6.3080730
  52.0258636   2.0419774  53.3977394  52.8257256   1.5991215  53.1143112
  52.2707367   2.4804118  54.2126274  85.4381790  38.6773262  64.3239822
  84.6038589  39.0944023  64.5388947  85.2619019  37.7390862  64.3937225
  61.1566772   3.6805575  46.1358490  62.0467262   3.7803676  45.7980804
  60.9721107   2.7450867  46.0518188  71.8896332  67.5003128  86.7074280
  71.4874496  66.7993927  87.2204361  72.1531601  67.0778503  85.8899231
  27.0317745  70.9873810  16.4322605  27.5313892  71.4170532  17.1265221
  26.1709728  70.8287506  16.8196754  10.9279385  20.9484901  57.8769341
  11.6939249  21.3497982  57.4665070  11.2473717  20.1110058  58.2128105
  11.5452833  20.2443810  14.8340406  12.4446154  20.4371395  14.5689402
  11.6021423  20.0855694  15.7762604  14.5513105  46.5799103  21.0231953
  14.8385077  47.4101410  20.6431065  13.7046337  46.4079971  20.6111088
  67.0783844  58.6075706  36.4078407  67.7075653  58.9888306  35.7954636
  66.9260330  59.2965393  37.0546379   9.2970104  20.2001438  81.8352661
   8.6640825  20.8707218  82.0920868   9.1640825  20.0935326  80.8933563
  61.9067764  34.2298164  20.6751232  61.5468979  35.0025558  20.2397022
  62.3380890  34.5745735  21.4570065  83.1804581  54.9511757  59.8907204
  83.8018951  55.1456795  60.5923004  82.4950027  55.6121941  59.9878387
  41.2023430  54.4416428  78.9558945  40.5737648  53.8007545  78.6236572
  40.7560577  55.2836571  78.8660507  41.3462448  44.6757278  46.2273331
  42.1651192  44.1991005  46.0912971  40.7046852  44.2067947  45.6937294
  14.8622084  49.6923370  75.3586960  14.1497622  49.9854507  74.7905960
  15.5946732  49.5355148  74.7627640   3.7131062  48.3483429  21.4079590
   2.7584543  48.3862839  21.3493710   3.9195998  47.4153481  21.3521805
  57.8541527  35.2939835  77.7687531  57.8767929  34.9753304  78.6710663
  58.7484741  35.1732903  77.4496078  12.3313980  20.3822746  61.6424484
  12.4259710  19.8290081  62.4178085  11.5321579  20.0678272  61.2198715
  36.5780296  64.1064301  81.6980591  36.0810013  63.3638535  81.3548813
  36.2625160  64.8581619  81.1964722  61.8205795  39.2607536  57.1701012
  61.5320587  39.4485359  58.0632553  61.5606956  40.0326080  56.6671791
  38.8136139  11.6397381  86.6439056  38.5776825  11.1442118  85.8596725
  38.6855698  12.5554180  86.3961792  23.5833988  44.5024681  14.9683094
  24.3112907  44.3377190  14.3689222  23.8420258  44.0719986  15.7831964
  82.1149597  26.6308689  75.2543106  81.4634628  26.7689819  75.9418488
  82.9240112  26.4349823  75.7268600  41.8535881  23.3082008  86.6300888
  42.3011703  23.3274021  87.4759750  41.9657631  22.4095592  86.3200989
  43.6847649   1.5503172   8.7307205  44.0816574   1.4015377   7.8724828
  43.8866768   0.7580929   9.2285604  10.1362734  39.3404007  30.2256393
  11.0857668  39.2900505  30.3359127   9.9276867  38.6304321  29.6184597
  23.2652588  49.8655128  27.4140167  23.6877861  49.1651840  26.9167843
  22.4362259  49.4859047  27.7052746  43.8185921  33.3208046  71.0675659
  43.0010643  33.2875175  71.5643234  43.5411415  33.3738899  70.1529999
  18.0045490  43.5356407  38.4032936  17.7582664  43.4913673  37.4793816
  18.7672558  44.1137543  38.4204216  64.0355072  18.3875599  46.9701805
  64.2088928  19.0326786  47.6557350  63.7711639  18.9088078  46.2121201
  59.1893120  21.5615139  57.4180489  59.6297989  21.2383862  56.6320496
  59.6549225  22.3681011  57.6390762  24.2688541  62.5380669  48.9827995
  23.8585949  61.8258553  48.4922142  23.5680466  62.8822060  49.5365753
  31.0473557  52.1869621  25.4138393  30.5780392  52.4675293  26.1994972
  30.5198059  51.4693642  25.0631618  35.4381599  39.4109192  67.8448486
  35.8106995  39.1211777  68.6776123  35.4111252  38.6199570  67.3064499
   0.8779904  57.2107239  26.8682137   1.7687194  56.9881744  27.1389618
   0.4690488  57.5648460  27.6578941  62.0166931  34.0056267  69.1883774
  62.3716850  33.4278259  69.8639221  62.7875099  34.3391418  68.7292099
  42.8926773  65.5985489  35.7009392  42.1548004  65.4786224  35.1031189
  43.6048050  65.9109344  35.1427994   0.9906294  69.8237686  23.7131538
   0.2251581  70.3575897  23.5002613   1.3873804  69.6249847  22.8650360
  64.1488800  70.8462906  44.5791206  63.6918449  71.5703125  44.1511650
  63.4489670  70.2860184  44.9144363  47.3332329  21.4865837   5.9215045
  48.2010040  21.7970161   5.6629744  47.3939781  20.5328693   5.8670096
  43.1541328  38.1980667  77.2850189  43.7742386  38.3908920  77.9882431
  43.5328369  38.6145782  76.5108490  59.3698921  61.7627792  26.2130947
  58.4692993  61.9237175  26.4946365  59.4932747  62.3429565  25.4618263
  25.2686977  44.6199722  60.5530624  24.3530769  44.4371719  60.3422203
  25.5354519  45.2781792  59.9113121  50.2872734  66.1573105   4.9025655
  51.2117386  66.2608414   5.1281357  50.0520439  65.2953186   5.2458715
   4.8808355  11.2744341  43.3057747   4.8854065  10.7545176  44.1094513
   5.3315315  10.7263317  42.6633682  37.0585175  38.7855949   3.1373348
  36.4260139  38.2451477   3.6107137  37.6582985  38.1565781   2.7362907
   3.7975860  52.2090149  53.6466522   4.4923830  52.7859077  53.9639587
   4.0838485  51.9483414  52.7712440   7.5796390  71.1186142  50.5471191
   6.7593408  71.3839645  50.1312714   8.1636419  70.9150620  49.8165474
  38.1223030  19.9280796  61.1330452  37.6458435  19.0979557  61.1223793
  38.3389091  20.0917282  60.2151489   4.0077033  59.9639282  89.2639694
   3.8824837  60.3211746  88.3848038   4.5910959  59.2156525  89.1375885
  53.5027885  66.4124985  51.3843422  53.5319862  65.6147766  51.9125595
  52.9790497  67.0237198  51.9023476  53.9069443  50.5315094  32.7193222
  53.3514442  49.8427010  32.3543663  53.8356171  51.2530060  32.0943489
  40.2183762  63.8418121  49.8001633  40.2445259  63.6387711  48.8651123
  40.3446274  62.9970932  50.2323036  81.1903992  41.9580536  70.2958908
  80.9664459  42.8686371  70.1037598  80.4242783  41.6149025  70.7558289
  40.9879112  39.5281830  73.7116241  41.7917175  39.6391296  73.2038651
  40.7172966  38.6266441  73.5377579  27.6098995  57.4002609  68.7095947
  27.8007412  58.2763519  69.0446777  28.4699745  56.9997787  68.5826416
  29.3506050  41.5533600   1.2813262  30.2874908  41.3743668   1.2010899
  29.0392075  40.9161339   1.9241337  80.3664093  36.3057823  77.8731918
  79.9282837  35.5525780  77.4770050  79.9933853  36.3644905  78.7527542
  81.3327560  26.6519451  49.0867310  81.8344727  27.2939072  49.5891190
  81.7125397  25.8076515  49.3299637  85.8607635  36.3879929  44.0229912
  85.5939560  35.4691048  44.0493698  86.3263245  36.5259895  44.8478775
  26.6778450  45.1405640  50.0625954  26.6192570  45.8742676  49.4506531
  27.5858574  45.1530190  50.3652382  63.1940460   1.4495338   9.1420364
  63.2289886   0.7055365   9.7432671  62.2915497   1.7629778   9.2010441
  37.4991798  58.5169830  44.7991180  37.0800743  57.7249451  45.1356544
  37.7950783  58.2767830  43.9210625  81.8765869  56.0578270  72.4888306
  81.3085480  56.7760086  72.2099304  82.4878922  56.4613953  73.1050034
  59.9900360  38.2038727   5.4767075  59.6507721  38.6519203   6.2515512
  60.1964340  38.9091682   4.8633633  64.2681580  37.2704544  32.3827705
  64.1792831  37.3810463  31.4361458  64.9752884  36.6333351  32.4841385
  39.2965202  68.3222351   0.8266732  39.5786476  69.2254562   0.6823799
  39.9115639  67.9799271   1.4753487  14.6805592  49.6882668   1.3236209
  14.3812389  49.8451958   0.4280693  15.3630991  49.0230560   1.2349291
  51.1831284  37.4189606  20.1441269  51.3963089  37.8774376  20.9568901
  50.4766808  36.8198051  20.3853264  40.5820351  35.1833649  21.8328266
  40.0161858  35.9177742  22.0709229  40.8321495  34.7924843  22.6700172
  62.4323540  55.1685333  50.7371178  63.2102699  54.9631577  50.2185631
  62.4147873  54.4968872  51.4188919  67.5262985  18.5483398  37.2636261
  67.9444656  19.1169796  37.9101677  67.9897079  17.7145309  37.3426514
   9.5264921  33.7998848  84.1419983   9.7265253  33.8962975  85.0730896
  10.1585865  33.1538315  83.8268738  28.0384960  34.2391930  -0.0443299
  27.9235401  33.9917641   0.8731645  27.5152683  35.0343437  -0.1453281
   4.1078100  27.1402817   9.1455507   3.5467293  26.3866329   9.3284035
   4.9665895  26.7602119   8.9604073  35.3079376  42.0654945  54.1555824
  36.0705185  42.5977020  53.9287491  35.5533142  41.1754456  53.9029236
  39.3081589  33.3679314  15.0163612  38.9819527  34.2517548  15.1857061
  40.0477448  33.2667007  15.6155281  50.0188904   1.0533549  54.9248848
  50.4957657   1.6559802  54.3542137  50.6830025   0.7174055  55.5268211
  77.6438446  56.2885933  56.1007156  77.6988525  56.8231697  55.3086090
  77.3224258  55.4402695  55.7953110  61.6469498  33.8276215  11.0489082
  62.5518723  33.6413994  11.2992525  61.7217064  34.4528885  10.3280182
   3.9307098  64.5085449  49.9512444   4.7388630  64.6225739  49.4511299
   3.2943254  64.1933670  49.3094444  40.6259689   5.6082811  71.7967606
  40.7933159   5.8869081  70.8964310  40.9061661   4.6933126  71.8203278
   7.4583488  43.7065201   8.6037035   7.2267118  42.9404564   8.0786076
   7.5744438  43.3633766   9.4897089  66.0974350  22.1970272   6.2319398
  66.7475586  22.6688080   5.7113705  66.0777512  22.6614761   7.0686779
  45.2437630   1.0717444  85.6152954  45.4995041   0.1706946  85.4179688
  46.0145531   1.4528482  86.0358582  72.5742722  28.3730068  59.5553169
  73.3216476  27.8085384  59.3577461  71.8330688  27.9492397  59.1225739
  32.4433327  46.4430847  71.6462021  32.9058876  45.6629982  71.9523621
  31.5282974  46.2857704  71.8790054  39.2192726   5.8855767  80.7782059
  38.6361961   5.4130955  81.3723602  39.7477531   6.4402370  81.3520508
  61.2546272  45.7392120  63.5927505  61.0203133  45.5537758  64.5021133
  60.4983177  45.4441986  63.0856094  12.5825148  27.1503201  81.8721161
  12.6460304  26.3013725  81.4345245  13.4369745  27.5576229  81.7298737
  33.2038116  10.0557976  83.9339218  34.1029282  10.3306465  83.7542419
  32.7044525  10.8720169  83.9596176  13.9229527  71.0128937  89.3838959
  14.7196407  70.9617081  88.8557892  13.2120867  71.0366440  88.7433243
   3.4986560  12.4556675  58.7185783   3.6122632  12.9370012  57.8990402
   3.2058158  13.1166496  59.3459396  53.6306229  13.8431454   5.9695520
  52.7457504  14.1845808   5.8405032  53.5439720  12.8985682   5.8411126
  81.1262054  35.3439484  41.9767952  80.9099045  36.2758904  42.0073318
  82.0007477  35.3136368  41.5888672  49.8739090   4.9284201  13.8363791
  48.9347649   4.8927674  13.6547890  50.2052650   4.0764685  13.5524569
  74.6036758  46.3054123  47.7217331  74.0433502  45.5880623  48.0178337
  74.5523376  46.2708321  46.7665367  72.5046997  37.7387657   9.8935823
  71.7782822  37.5114594  10.4740000  72.9270248  38.4848328  10.3193293
  47.0526237  15.5020580  63.4480476  47.6283112  14.8413982  63.8332024
  47.1108398  16.2479115  64.0451584  37.1793938  54.0952682  40.0646172
  37.3278618  54.8848877  39.5443344  37.5493660  53.3875999  39.5368271
   2.1243911  55.0711441  40.9989548   2.5839539  55.8803368  41.2231026
   1.2036661  55.2607574  41.1793556  40.2029648  41.8747673  81.0897827
  40.7535896  41.4289894  81.7334671  39.6508217  42.4583969  81.6101227
  36.9589310  44.2311172  41.8983536  37.5509300  44.9772530  41.8032341
  37.5341949  43.4661331  41.8882294   6.5335579   1.8051168  54.5122566
   5.8952665   1.1313125  54.7463570   7.1220069   1.3728781  53.8932838
  56.4829636  19.7946072   5.0795603  56.7964859  19.1450787   5.7088842
  56.6736717  19.4104900   4.2238054  37.7398567  44.0005493  31.2304039
  37.3569565  44.2622910  32.0677261  37.8114243  44.8160782  30.7343998
   9.2440014   8.9002237  78.1812286   8.9842129   8.0551758  78.5481491
  10.1620178   8.7831450  77.9367447  68.3520279   3.9640124   9.4102983
  69.0630951   4.5946121   9.2964544  67.6208344   4.4848952   9.7423716
  63.5875359  44.2385826  80.1101532  64.4490738  44.0980988  80.5029068
  63.4055901  43.4275475  79.6354446  29.8965874   6.9855180  78.0936584
  29.0931358   7.5042925  78.1332855  30.0218010   6.8087440  77.1612930
  41.7029228  52.0411797  36.7905006  41.7459755  51.5387650  37.6041107
  40.9487534  51.6793289  36.3251801  10.6037588   3.2125752  47.8090286
  10.1191540   3.3987854  48.6132164  11.1712446   3.9741030  47.6895790
  58.3741760  64.4116440  43.5942993  59.2336082  63.9903183  43.5846405
  58.0364799  64.2872696  42.7073212  46.6839027  55.0935783  31.7546005
  46.2436371  54.8143196  32.5573540  47.5988808  54.8439674  31.8839893
  45.9213104  22.8004074  23.7450161  46.1572266  22.7656918  24.6720390
  46.3841476  22.0603275  23.3522072  17.9108696  37.8607025  81.0732422
  17.5703411  37.3237152  80.3577576  18.8308182  37.6066246  81.1465225
  68.1823349  26.3075352  51.5993690  67.3621216  26.7603645  51.4033470
  68.2973785  25.6951027  50.8727875  81.4800644  18.6674423   8.7814674
  80.8396225  19.3739223   8.8648758  81.0797195  17.9263344   9.2361288
  30.4387093   3.5207853  76.6988602  31.3630295   3.7658670  76.7412796
  30.2410946   3.4926779  75.7627029  82.7708206  58.4222603  65.0142822
  81.8557205  58.1619377  64.9091187  82.7559052  59.3777428  64.9589005
  56.9859314  39.5649147  54.4065781  56.4430161  39.2323647  53.6918144
  56.3928871  39.6105957  55.1565399  70.8006592  20.2569580  62.5513878
  70.0442810  20.0240345  62.0129890  70.9931717  21.1641273  62.3142891
  84.4543762  24.9534836  76.5626068  84.2211151  24.0273514  76.6266479
  85.3114471  25.0143356  76.9844666  32.3857841  14.4049311   3.8409345
  32.5621834  13.7000322   4.4640183  32.9001503  14.1749086   3.0671439
  73.5002289  49.1260338  53.9683952  72.6144562  48.7635536  53.9842796
  73.5053864  49.7766724  54.6704445  56.8869247  16.2253342   1.8621627
  56.2230873  15.9758615   2.5050592  57.5363426  15.5233669   1.9037337
  77.1910858  52.7666168  34.2022705  77.4107666  52.5705948  35.1130676
  77.3286133  53.7103500  34.1204948  41.7635651  70.8550415   7.9007654
  42.2271805  71.6852951   7.7913632  42.3410530  70.2039261   7.5022798
  45.1193161  42.3600693  88.2509460  44.3414040  42.1963577  88.7841339
  45.5512276  41.5080681  88.1895142   9.0396404  49.6516800   6.9615874
   8.7722054  50.1416969   6.1840320   8.2258892  49.5047340   7.4437151
   5.1238856   9.7038279  18.1924839   4.6830716  10.3146276  18.7831097
   4.7011447   8.8615122  18.3598938  69.8441238  56.7890892  38.4388695
  70.3062973  56.6902962  39.2712555  68.9177780  56.7187881  38.6694450
  35.0687332  65.1573410  71.0924072  34.3051872  64.6249390  70.8693008
  35.5520363  64.6287231  71.7274017   6.8849745  46.8886566  60.1974030
   7.7783575  46.9135056  59.8546486   6.9246378  47.3983955  61.0066185
  63.4514847  59.9404449   0.3989199  62.8066902  59.2376480   0.4798182
  62.9680557  60.7358780   0.6221188   7.5968075  67.4224091  43.3048363
   7.6843452  66.9378052  42.4840279   8.3012581  68.0698700  43.2770157
  65.9787216  17.5953541  67.9680328  65.0243073  17.6577396  68.0058441
  66.1543961  17.0884304  67.1753159  31.5302773  39.9609528  14.3900242
  32.2057343  40.5885468  14.6471539  31.9522095  39.4125137  13.7286472
  33.5426788   5.3531914  30.3505154  34.1945724   4.6622624  30.4683437
  32.7789536   4.9028964  29.9896965  18.1564808  52.7704773  40.0883255
  17.2022400  52.7619781  40.0136185  18.3823757  53.6973610  40.1663246
  68.3860550  32.5238914  68.3186264  68.9371490  32.1677818  67.6216965
  68.9921341  32.6948051  69.0395126  60.9029388   8.4232092  42.0452194
  61.8439407   8.2754869  42.1396866  60.5310707   8.1406488  42.8807487
  86.9237289   5.4038539  38.2808037  86.1637726   4.9362540  37.9343224
  86.7742386   6.3174443  38.0374146  66.1441956  54.2457085  81.5905685
  66.9428101  54.7192039  81.8234787  66.4463654  53.5215034  81.0424347
  31.3915348  70.4108505   2.0647783  32.3466492  70.4488297   2.0143182
  31.0925388  70.8049240   1.2453034   9.3483210  37.1905327  69.6011963
   9.5871143  37.8484497  68.9482422   8.9832029  36.4678688  69.0906296
  40.7501678  30.3968315  12.0364132  41.1509323  30.3097267  12.9013014
  41.2746086  29.8296204  11.4712000   0.4346064   9.5285902  81.7565994
   0.6422359   8.6218138  81.9821625   0.5215503  10.0064983  82.5813828
  58.2767029  29.7510414  80.9481735  57.5469971  29.1732407  80.7247696
  57.8773994  30.4539013  81.4607925  25.2814732  15.8201647  80.6000214
  25.7988911  15.0265541  80.4633026  24.5894604  15.5536051  81.2052460
  44.4593277   3.1153445  12.8116894  44.2139435   3.4058712  13.6901035
  45.4054565   2.9785337  12.8602448  77.1698685  44.3362694  32.8687706
  76.9132767  44.4786644  31.9576607  77.6904221  45.1072426  33.0942879
  20.7464275  55.2138824  22.3543282  19.9611759  55.3095932  21.8153954
  20.4217930  55.2250938  23.2547264  84.5782547  13.1751890  69.8770218
  83.9865417  12.5563688  69.4490433  85.4113388  12.7076330  69.9369431
  35.0024338  24.4318962   8.3668690  35.7465630  24.4993382   8.9651623
  34.8347092  25.3329182   8.0907154  22.6357861   6.4054813  78.4943542
  23.4179802   6.1277685  78.0176163  21.9734268   6.5317273  77.8149643
  61.4284554  62.7653236  57.7029305  61.1958084  63.6460648  57.9968796
  62.3238564  62.6370392  58.0160408  71.1010590   3.9231880  29.5497818
  71.1504593   4.4863048  28.7773247  70.6081390   4.4369287  30.1895676
  43.3879013  65.7396469  87.1109009  42.6695328  66.3191147  86.8571320
  43.0800514  65.3124237  87.9102402  63.7228394  64.0625229  75.7633743
  63.6910667  65.0179596  75.8120956  63.3973160  63.8564224  74.8871460
  72.0140533   7.5694628  62.9027214  71.9792938   8.4666023  63.2346306
  71.1271820   7.2325168  63.0298615  65.1812210  63.4661179   7.1345773
  65.2248611  64.4192276   7.0577354  65.6481705  63.1421013   6.3643799
  43.4719009  38.6792183   7.2249641  42.6698418  39.0301476   6.8379464
  43.8894539  38.1948090   6.5127635  73.7533493  19.1845417  64.2765274
  74.1567917  19.4042778  63.4367752  74.4842758  19.1591244  64.8940430
  19.8023453  45.8479233   9.3527546  19.2828026  46.5892220   9.6638603
  19.2893238  45.4813423   8.6325750  17.4894104  69.8025055  50.2630882
  17.2565365  68.8907242  50.4382019  17.4349003  70.2318420  51.1168633
  29.7873497  70.0742798  78.4708557  28.8953285  69.7455444  78.3592224
  29.6960049  70.8167343  79.0680618  32.6199951  44.2293243  12.2203598
  33.2939491  44.8194504  12.5576553  32.8947105  44.0398674  11.3232155
  29.0391769  13.1497593  80.7929611  29.2660866  13.3209982  79.8789444
  28.2438946  12.6190634  80.7469254  26.3215961  28.4706078  69.6118317
  26.4507160  27.6272488  69.1778870  25.3801365  28.6312160  69.5478821
  77.0847015  52.1123505  10.9534702  76.5421906  51.4323959  10.5539961
  77.9213867  51.6805878  11.1260157  83.6465607  33.4204063   3.8583679
  83.5710983  33.5855865   4.7981830  82.7893753  33.0773087   3.6058984
  66.3594666   3.7509596  44.0147095  67.0552139   3.4048162  44.5735970
  66.3032913   3.1290395  43.2892494  30.7717075  42.0309792  34.9384041
  30.3854752  41.7186661  34.1201668  31.2121754  41.2635994  35.3035774
  10.5577888  60.5168800  40.5714989   9.6973505  60.3283997  40.9461365
  10.8448133  59.6830444  40.1992531  19.7092876  60.7817383  23.0803776
  19.4777088  59.9409599  23.4749584  20.4455280  60.5805283  22.5027122
  13.6562700  24.6090431   1.7873878  12.9607935  24.9182682   2.3678393
  14.3345938  25.2817841   1.8467709  11.7337971  25.9528942  76.6091232
  12.5100126  25.4731236  76.3200912  11.9805880  26.8747482  76.5348892
  78.7281723  48.3187943  28.3506546  78.7158585  49.2008095  27.9789963
  78.9685287  47.7530403  27.6169090  79.2881317  25.2656975  20.7339039
  78.8179321  24.8541107  21.4589863  80.1661453  25.4276390  21.0790119
  78.2827072  68.8298645  34.1373024  79.1334839  69.2557678  34.2422562
  78.3575363  68.3445663  33.3156433  56.4289703  27.2807693  41.2837105
  55.8325157  26.5395794  41.1782951  56.8207169  27.1519794  42.1475296
  71.2058563  33.7709045  56.9394188  71.7070847  32.9562874  56.9020271
  70.7101135  33.7098236  57.7559586  18.5533371  69.8227692  78.4395523
  18.2493420  70.2275620  79.2519302  17.8429050  69.2339935  78.1848679
  35.5119514  56.5970535  11.4972258  36.1637688  57.0691261  12.0154076
  34.8474121  56.3312874  12.1328268  84.5464172  52.6743736   1.7447113
  84.0054550  53.3093910   1.2752987  84.0075989  52.4039230   2.4881914
  39.3782082   4.1350441  20.1808262  40.0274429   4.8382721  20.1668987
  38.5625687   4.5566916  19.9103127  81.5385513  55.7275848  13.7592993
  82.4337311  55.9067154  13.4715633  81.6326828  55.4317436  14.6647549
  44.2388611  59.1382217  40.2335510  44.5147552  58.2370872  40.4010849
  43.7443008  59.3864250  41.0145988  29.8778458   6.2320676  65.9341736
  29.6580944   6.5817719  65.0706635  30.2966213   5.3907528  65.7523804
   7.2581944  68.4925156  57.4183159   7.8004518  68.9464493  56.7732277
   6.3880043  68.8770599  57.3128242  78.1477280  69.9702530  81.0155182
  79.0806808  69.7776337  80.9220428  78.1109161  70.9173813  81.1490097
  52.8822861   4.6234374  18.7576885  52.2032051   5.1016531  18.2818832
  52.4226074   3.8805909  19.1489773  69.9006424  53.4884834  84.7893219
  69.9071426  52.6675682  85.2815552  70.0179062  53.2219391  83.8774948
  22.5937042  50.5464058  10.8189926  23.3752918  51.0962563  10.7640762
  22.3314495  50.4112892   9.9083891  52.6036682  60.2188873  31.0917511
  53.0915222  60.0973358  31.9062786  52.1740456  61.0680847  31.1943283
  85.6923141  12.9001846  38.8454552  84.8555145  12.8515263  39.3076515
  85.5524979  13.5594244  38.1656876  43.7638168  42.7895012  19.1024551
  43.0059013  43.3738976  19.0857944  44.2099648  42.9992065  19.9229450
  59.8824463  10.5348682   5.2361126  59.5852203  10.0155993   4.4889517
  60.5004463   9.9646282   5.6934209  80.2021332  11.5668335  78.7451401
  80.4461517  10.7816458  79.2352066  80.4388733  12.2927113  79.3224487
   2.1354718   4.0426693  86.2001114   2.1259809   4.9678884  86.4452896
   2.1858659   4.0486898  85.2442551  24.2256222  56.0210724  49.2791786
  24.2111549  56.7382278  49.9129868  25.1299648  55.7076836  49.2927017
  33.7877769  67.6249161  67.5496674  33.8068390  67.1476746  66.7201462
  34.4920349  68.2685089  67.4719543   8.8337946  26.9459171  65.9243927
   8.8298426  26.7198257  66.8544998   7.9102473  27.0654907  65.7030487
  71.2727737  48.6549644  42.9233627  72.2078934  48.4792709  43.0278244
  70.8478241  47.8236618  43.1345253  61.5067329  20.1707306  52.5127068
  61.7101479  20.3245468  51.5901070  61.8146210  19.2800846  52.6805954
  59.5832291  24.1679516  10.3621292  59.8475494  24.2856121  11.2745552
  60.2427483  24.6448460   9.8583088  22.4152584  65.5718918   0.7435263
  21.8485889  66.3381805   0.6545540  23.1929550  65.7880783   0.2290538
  42.0756798  13.5448427   2.4540858  41.6857605  14.3429585   2.8107443
  41.5969734  12.8335371   2.8796637  28.1441422  56.9468040  22.0947132
  27.8051395  56.4381828  21.3580914  27.5899906  56.6963387  22.8339138
  69.7358017  21.3899975  48.1970749  68.9215546  21.0913868  48.6021347
  70.3756409  20.7133675  48.4184647  81.5197372  32.7204399   7.2155271
  81.7755127  33.5351715   7.6479840  80.5977249  32.6062050   7.4459214
  16.6503582  62.9912910  83.1648636  15.9627962  62.3271141  83.1163254
  16.6507740  63.2690964  84.0808640  78.0472488   7.0848413  25.6320419
  78.8369293   7.5436745  25.3455048  77.4913025   7.0557251  24.8533802
  49.9437294  51.9504776   5.0599260  50.8762779  51.9946899   4.8486662
  49.5592384  51.4468117   4.3424873  39.2384224  67.4381409  79.4830246
  38.6035919  68.1065445  79.2252350  39.1709023  66.7685089  78.8023911
  39.8664169  43.3921204  56.3329506  39.4582939  42.8464661  55.6606941
  39.4814453  44.2589684  56.2040901  56.7265663  59.5269737  27.5719662
  55.9386673  59.2039223  27.1348267  56.6246567  59.2521629  28.4831886
  61.6349602  11.9712811  42.9857559  62.3890724  11.4550686  42.7010269
  62.0168457  12.7278357  43.4307518  21.9272747  23.1064415   3.6426737
  21.0140057  23.2837448   3.4174304  21.9340172  23.0628548   4.5988569
  74.0537033  25.0823383   1.5060165  73.5537033  25.8621044   1.2647681
  74.0013809  25.0503120   2.4612486  81.2747269  14.9988117  70.2524414
  81.4991608  14.1307449  69.9172897  80.7194519  15.3815966  69.5731964
  44.7218323  37.0179367  23.4957447  44.8382607  37.0962753  22.5488873
  44.2046471  36.2203865  23.6082916  68.1610947  59.8851662  34.2129021
  67.2377930  59.9202576  33.9628601  68.5901642  60.5150948  33.6338310
   6.4310355  61.7679214  85.4232635   6.7683506  61.4957924  86.2767258
   6.6471534  62.6986427  85.3659821  64.9674835  67.2053146  46.0184441
  65.5875397  66.9240112  46.6912231  65.0313339  66.5346985  45.3384247
  75.0805664  68.4917450  47.7808609  76.0312805  68.5140762  47.8898163
  74.9012756  67.6239166  47.4189758  11.6923885  30.2495365   3.0992067
  10.9000549  30.3215885   3.6314170  11.4489517  29.6594810   2.3859007
  57.7619286  31.9243927  20.9123230  57.7926903  31.4120712  21.7202911
  58.6791458  32.0261803  20.6581917  53.8559265  15.2085743  89.2166138
  54.7051430  15.2015390  88.7750092  53.2249832  15.3882828  88.5195923
  29.6487865  50.2138405  65.0361786  30.2292633  50.9554901  64.8651810
  28.7876511  50.5109406  64.7422180  40.9115295  39.7293053   6.1640344
  40.0292244  40.0963440   6.1087556  40.9423981  39.0739174   5.4670811
  74.2974167  20.3221378  28.6836929  74.1334915  19.4434395  28.3412743
  74.8226929  20.7488461  28.0067635  49.8803062  45.7490959  42.1761742
  49.3386116  46.5328445  42.0838013  49.5715904  45.1618843  41.4861603
  64.6290131  47.9806595   1.9271353  64.7861557  48.9051018   2.1193461
  65.2570496  47.5116730   2.4765503  70.0372467  27.7687683  49.4469223
  70.3993759  28.1042194  50.2670212  70.7457809  27.2492886  49.0669861
  46.6227646  48.4610100  40.0443115  47.3120003  48.0067482  40.5289040
  45.8097801  48.0597687  40.3513870  16.2559586  41.7975998  69.8003769
  16.8522835  41.1773987  69.3808823  15.8647013  41.3036880  70.5209351
  61.3134956  56.6256523  78.0338821  60.8550148  56.4677429  78.8591690
  62.2314491  56.4384766  78.2302399  84.0716553   0.7722604  21.4302807
  83.6704483   1.5388561  21.0208988  84.3443527   0.2233003  20.6950855
  59.0399399  11.5935268  56.2901573  58.8827362  11.3943977  57.2131233
  58.8794022  12.5343590  56.2174034  86.5506287  43.6107712  69.9588776
  86.3911591  43.8396416  70.8745346  85.6956787  43.3346901  69.6286087
  25.1748409  59.2748146  37.1456490  25.0052204  58.5002098  37.6817894
  25.1866760  60.0003052  37.7699547  29.7758675  48.7455826   4.1868696
  30.6630993  48.3972549   4.0990057  29.2890148  48.3454208   3.4663980
  12.0366068  57.0011864  73.6937485  12.5474396  57.5972137  73.1459961
  12.6921530  56.4686623  74.1442032  48.9413185  52.2675056  14.6397066
  49.7053490  52.6031151  14.1708164  48.7769432  52.9155960  15.3246832
  20.0150661  29.2215309   4.3967476  20.1513290  28.3847103   4.8410387
  20.8967876  29.5224686   4.1771250   6.2685838  20.4016380  78.0503159
   5.3939080  20.6322289  78.3633652   6.5534663  21.1666336  77.5504608
   8.2851810  52.3579445  88.5282211   8.3467541  51.6102600  89.1226959
   8.5050831  51.9991188  87.6684952  42.2639885  46.8138428  39.9400597
  43.1143188  46.4475098  40.1828995  42.4763222  47.6140175  39.4595718
  39.0292702  57.4407387  47.6164322  38.0802345  57.3859901  47.7285500
  39.3794060  56.7780113  48.2117729  50.8804893  34.1471825  57.5309525
  51.4242363  34.2348824  58.3138161  51.2904243  34.7263527  56.8884964
  52.9698257   8.8173571  68.4004364  52.0538177   9.0771666  68.3021393
  53.4652214   9.5265436  67.9907150  14.0894012  61.9596100  84.7533264
  13.7271481  62.8407021  84.8464890  14.9061279  61.9824715  85.2519913
   5.7324147  35.2113686  87.5975037   6.3121266  35.3846016  86.8557816
   6.3211432  34.9510727  88.3059387  31.5281391  58.2896805  41.4236755
  31.7857952  58.3578720  42.3430214  32.0275955  58.9773293  40.9833183
  26.5558414  42.1958199  81.8075638  26.5698948  41.8494492  80.9153442
  27.4721737  42.1829033  82.0839691  41.0563354  61.6127167  51.1277008
  40.8373528  61.9381828  52.0008240  41.5968170  60.8393440  51.2889633
  30.1006413  30.2361660  15.4427042  29.4914989  29.6192684  15.8484325
  29.7178860  30.4217815  14.5852203  14.0063782  33.7921410  75.6844864
  14.6430130  33.6983643  74.9758682  13.1827602  33.9954681  75.2411499
  15.5499096  21.2226944  18.3261452  15.9951153  20.5292568  18.8131466
  16.2582760  21.7697296  17.9867325  61.9691124  44.1230659  85.2669144
  61.2468185  44.5648079  85.7134476  62.0256042  44.5569916  84.4155884
  62.3512878  58.2127686  32.9656677  62.5885925  57.4130402  33.4350853
  61.4115257  58.3105888  33.1190071   2.2427385   7.1970096   6.8185921
   2.7720542   7.1071739   7.6110482   2.8816683   7.3186665   6.1163101
  72.4626236  44.0128136  49.4635201  73.3423386  43.8689117  49.8122673
  71.9226913  43.3504829  49.8948250  82.4019318   1.2010230  38.2979622
  83.3435898   1.0338416  38.2583466  82.0031891   0.3310525  38.2783394
   7.0098014  15.4157934  18.2823372   6.8718505  16.0344677  17.5650902
   7.3861618  14.6423244  17.8624210  72.7902374  28.8230915  46.5690536
  72.2853928  29.4375954  46.0363731  72.4854736  28.9750862  47.4636192
   9.0575142  25.2647419  58.0419426   8.6416397  24.9884949  58.8586197
   9.1243553  26.2166328  58.1172371  35.7902908   5.7296515  86.7538986
  34.9656754   5.6431055  87.2321777  35.5352783   5.7108960  85.8314819
  65.7729416  27.1208630  79.9328156  65.6177521  26.6705265  80.7630844
  65.1381683  27.8372879  79.9266281  25.7196312  61.6088524  57.8568687
  25.6083717  62.4990501  57.5231056  26.0876312  61.1210594  57.1200752
   3.3236241  66.6414261  57.6468124   3.8520257  67.3911285  57.9206314
   3.5936019  66.4752121  56.7436447   5.5272455  31.4401855  37.8236923
   5.3845034  30.6391029  38.3278008   4.8587689  32.0463715  38.1429214
  14.6986132  43.8998680  54.1905594  15.1593494  44.1997070  54.9741745
  15.3884315  43.7820244  53.5374947  30.5040436  18.5558376   5.8825812
  31.2391739  18.9839268   5.4437723  29.8971844  18.3374195   5.1752982
  45.4897690  47.7168922  15.0774508  46.1136169  48.0679092  15.7129278
  45.2089653  46.8825226  15.4532242  56.9452629   3.6845565  23.7262421
  57.8003540   3.8446312  23.3269558  56.7084274   2.8025236  23.4396095
  50.5265198  20.0230198   9.6898756  51.0174637  20.6916275  10.1675453
  50.9543953  19.1991997   9.9232759   3.6726761  48.5550346  77.0577545
   3.3135951  47.7943840  76.6009140   3.1548758  48.6188889  77.8602753
  55.8444023  15.9851770  37.7487679  56.5129509  16.2267551  37.1077423
  56.1827545  16.3119106  38.5824318  76.6340637   5.6142521  48.9163170
  77.3246689   5.1517820  49.3910980  77.0991821   6.1217294  48.2512093
  23.2724190  57.5689430  12.7962341  24.1638546  57.6861267  12.4678411
  23.3818779  57.4045906  13.7328444  66.8305893  33.7507095  12.3321581
  67.5941010  33.2052231  12.1431580  67.1981659  34.5954285  12.5921049
   1.7764581  62.6311989  85.3073120   2.2988527  62.1406593  84.6727219
   0.8693419  62.4597855  85.0543518   5.3771138   1.2246615  44.6033630
   5.7787600   0.5900627  44.0099030   4.7218657   0.7202939  45.0855408
  17.3747730  28.9416084  86.5644302  17.2112637  29.7822304  86.9920425
  18.1913528  29.0728378  86.0825500  72.4220123  69.4476318  22.9823170
  71.6838684  70.0449829  23.1029396  72.6090088  69.4843292  22.0442772
  25.4775639  22.3207130  11.0198460  25.4848461  21.9236698  10.1489067
  26.4002743  22.3650303  11.2705917   1.1532073   4.8926034  41.0489388
   1.0535785   5.8045936  41.3220291   1.3081816   4.9406323  40.1055870
  13.1438560  56.1445351  76.8483887  12.9716978  55.3285294  77.3182068
  13.5792484  55.8691483  76.0416489  10.6170387  11.0318251  74.0762100
  11.4931860  11.0967875  73.6962357  10.3640785  10.1187315  73.9401779
  64.8130112  66.6315994  64.6240311  65.4671478  67.3167343  64.7615891
  64.2291794  66.9887619  63.9548454   2.5970800  69.4807816  11.6831570
   3.3699775  70.0441513  11.6447477   2.6674962  68.9243469  10.9074917
  46.0077858  67.0239334  80.7355804  45.9359360  67.2198257  81.6697617
  46.5027618  67.7591400  80.3740616  62.6212044  47.4770813  34.4669876
  62.8936195  48.3574944  34.2083549  61.6775322  47.5505486  34.6095467
  31.0074768   2.9164476  36.9333038  31.2742748   3.7714720  37.2709198
  30.3270035   3.1146772  36.2899590  25.2862473   3.5212617  50.0964699
  24.9402714   4.1874948  50.6903267  25.8990879   3.0177543  50.6323242
  76.6303253  34.7871704  85.4192581  76.1084976  34.2833481  84.7946854
  76.1981812  34.6456413  86.2615433  20.3002090  45.6626244  27.5082569
  19.6247616  45.1131210  27.1107063  19.9604111  45.8672752  28.3793964
  83.2297821  19.9339447  45.6494331  82.8934860  19.0486317  45.5102959
  82.8512192  20.4487133  44.9367332  31.4462147  42.8553200   6.5797009
  30.9765568  42.8469963   7.4137173  32.2019920  42.2861137   6.7247343
   5.0061502   0.6359614  75.1582642   5.3928308   0.4881105  76.0213089
   4.1172748   0.2884092  75.2313385  44.0875130  10.6504879   2.1836283
  43.3792381  11.0888329   2.6552534  43.6415215  10.0579348   1.5784795
  44.7475052  13.0339422  74.3615952  44.3535919  12.2440262  73.9913330
  45.5279274  13.1849613  73.8283310  51.8873558  65.7819595  13.1854954
  50.9421730  65.6895981  13.0657988  52.0114212  65.7647324  14.1344643
   1.0170145  53.9980278  49.8371277   0.8691148  54.9431152  49.8713264
   0.4113761  53.6372375  50.4846306   3.2897043  62.6393852  78.1936951
   3.8195658  63.0855179  77.5330582   3.9070036  62.0670357  78.6493149
  53.9762192  70.9254532  68.3224564  53.9048271  71.0723801  69.2656174
  53.0712051  70.9264450  68.0107193  45.5385742  58.7723274  29.6612358
  44.9848175  59.5504150  29.5967083  46.1838188  58.8789330  28.9622879
  14.7182579  39.1927299  67.0424728  14.3618765  38.3053818  67.0853424
  14.2541790  39.6706886  67.7297974  44.8829727  22.3246555   5.0565901
  45.8011246  22.3557243   5.3254108  44.6618805  21.3933926   5.0665026
   3.4979396  64.9952393  88.4220734   2.9880621  64.5514221  89.0997772
   4.0793843  65.5820923  88.9055557  41.1214180  36.2710152   9.9998322
  40.7526283  36.9138718   9.3940620  42.0543480  36.4823532  10.0346117
  76.9798126   2.0922089   3.0796678  76.7053986   1.2308232   2.7651131
  76.1750870   2.4961069   3.4044938  17.1833515  41.0717163  36.3104515
  16.5125122  40.9337349  36.9791603  16.8435764  40.6256256  35.5347023
  78.3820877   7.2573462  35.3936157  78.0050735   7.9521370  35.9333916
  79.2167358   7.6152668  35.0911484  42.6435280   2.3695116  76.2910385
  43.2984238   1.7360226  75.9977188  41.9830322   2.3693831  75.5982285
  65.5035477  29.9589520  73.5220413  66.4248810  29.8054581  73.3127289
  65.4208603  30.9120216  73.5544739  45.7500343  38.3927765  61.0777130
  46.3179321  37.7376022  61.4832573  45.9427261  38.3306351  60.1421700
  78.6753159  17.8958054  42.2479515  77.9065933  18.0645657  41.7031441
  78.3166656  17.6921577  43.1117401  45.8389740  67.4909897  83.3806610
  44.9773293  67.8279343  83.1351700  45.6670532  66.6067047  83.7042542
  21.8795757  26.1246338  74.5276184  21.9854279  27.0696850  74.6367340
  22.0219574  25.9739876  73.5931320  44.9120560  28.5846996  61.8478394
  44.9505959  28.6738720  60.8955803  45.6300697  29.1303215  62.1687469
  31.7871094  47.8574982  55.2284660  32.3916550  47.9579430  54.4931679
  31.0002422  47.4742126  54.8409576  52.7408295  46.7502937  26.8326569
  52.9161682  46.8772087  25.9002495  52.3496971  47.5762253  27.1174049
  34.3884811  33.8346252  16.5052834  34.2773781  33.6796875  15.5672626
  35.2828827  33.5486336  16.6909943  81.7221832  44.8797874  56.7882652
  81.9341812  45.8131790  56.7804413  82.5175629  44.4562149  57.1110497
  36.2510796  60.6473732  52.9626694  35.3659363  61.0029182  52.8830490
  36.2555466  60.2036057  53.8107758   1.5780524   6.9691577  23.4160767
   2.2338083   7.1065006  24.0997086   1.2831012   6.0676713  23.5447540
  36.1351051  67.2797089  54.2030525  36.7523155  66.6448135  53.8394661
  35.6992722  66.8099213  54.9140968  17.1756268  35.2379189  66.6773376
  17.1570282  35.0183411  67.6088257  17.6284275  34.5013542  66.2666321
  64.3220062  60.3041191  28.7635250  64.6873398  60.4708099  29.6324196
  63.9327927  61.1389580  28.5031624  81.7966080  31.2744389  34.6305313
  82.3291397  30.5883369  34.2281570  81.5603561  31.8512459  33.9040985
  68.6926193  54.2857819  11.9540443  69.3116150  54.3895073  11.2313271
  69.1692200  54.5960426  12.7239933  14.3920641  14.8108339  86.1611099
  13.8373251  14.7201099  86.9358749  14.0215168  15.5552816  85.6870575
  25.7913513  14.2253351  30.7738209  25.6745224  14.8065071  30.0222759
  26.4100552  14.6870441  31.3397369  29.9878139  47.3649826  67.3743668
  30.6049290  46.6903038  67.6575775  29.6727581  47.7582359  68.1882019
  71.0065460   2.5707545  14.9707766  70.8730392   3.1521466  15.7193689
  70.3070068   2.8024006  14.3598566  81.9298325  41.7698631  62.2724419
  82.4192429  42.4197845  62.7767372  81.0882111  42.1894188  62.0939026
   4.9221501  40.4617653  10.0241728   5.8311110  40.1988907   9.8795414
   4.8044176  40.4050903  10.9724121  56.9528885  39.6797104  88.7995682
  56.2346802  40.2186546  88.4679871  56.5453644  39.1155815  89.4567719
   3.7033949  37.5453186  83.4336929   3.7858965  38.4629974  83.6931000
   4.6037288  37.2569008  83.2838745  51.1211853  65.7489700  27.0605412
  51.0161285  66.0741653  27.9546566  51.6983719  66.3863983  26.6401062
  68.6177597  68.5989609  74.2424698  69.3801346  68.4032669  74.7871933
  68.3669357  69.4883270  74.4921570  82.4363098   7.9607978  42.0566101
  82.3071289   7.5312505  41.2110138  82.6646881   7.2489820  42.6544342
   2.3616877  50.4492912   0.2745177   2.4146764  50.1245155   1.1733762
   1.4946856  50.8506203   0.2155785  59.9694939  12.7773771  81.3682098
  60.2628441  13.5924339  81.7754745  59.0811043  12.9666958  81.0662994
  74.7356415  36.6561127  34.6842575  75.6354980  36.3427353  34.5932388
  74.4438629  36.3054504  35.5257645  77.9517288  27.4691105  29.4904671
  77.9263000  27.3150787  30.4348507  78.8837357  27.5411091  29.2845402
  21.1715431  50.7658577  79.7874756  20.4950695  50.1268311  79.5632782
  20.9489155  51.0491753  80.6742630  83.7858505  42.3371048  18.3090572
  83.4424210  42.4178772  17.4192467  84.0734634  41.4263840  18.3730316
  19.4616032  57.1572456  61.9196510  18.9377937  57.3967934  62.6841583
  18.8858471  56.5948753  61.4014969  65.2136993  15.6698627  30.5357952
  65.8370056  15.4106274  31.2144108  65.7607880  15.9745741  29.8118629
  58.2415009  46.5119324  66.2445450  58.2295265  47.4680023  66.2895126
  58.0563812  46.3129883  65.3267288   3.3123100  60.8448410  48.7328453
   4.0771117  61.3321495  48.4265137   3.6190906  60.3836327  49.5134888
  40.3840446   5.5693779  57.1093369  39.6243134   5.2203946  57.5754395
  40.6299286   6.3512893  57.6036911  33.9153099  43.7093201  36.5981903
  33.1947098  44.0154610  36.0475197  33.8740616  44.2642593  37.3770180
   9.1672583  49.3967400  81.1024780   9.1779051  48.4456406  81.2098465
   8.4862041  49.6980438  81.7038193  21.5882816  70.3387527  66.7533188
  20.9858055  69.6954880  66.3798828  22.3654671  69.8313751  66.9873734
  26.5643139   3.3276644  24.2956276  26.3945503   3.8298724  25.0926208
  27.4173260   3.6393812  23.9932461  69.3030624   3.4589188  32.2083206
  69.0480270   2.6498818  32.6517754  68.4922104   3.9637759  32.1460762
  79.3844833  70.1956940  63.0882912  80.3255081  70.1000671  62.9414520
  79.1075974  70.8513031  62.4481812   7.8109684  43.5023689  16.1687679
   7.8815131  42.5873718  15.8966761   7.7097988  43.9884758  15.3504190
  26.9146576   9.9545059  78.3547287  25.9825401  10.1318026  78.2284088
  27.3586273  10.6356106  77.8495331   0.9945627  47.6827927  21.8659096
   0.7096649  48.0768776  22.6903877   0.7228721  46.7673111  21.9315395
  18.6257172  57.4815025   0.4806849  19.3602657  58.0276260   0.7607186
  18.6328697  57.5419121  -0.4745800  42.8700409  13.6346149   9.9241514
  42.3487015  12.8366251  10.0116110  43.7354736  13.3926477  10.2538605
  56.5890999  17.7494583  66.7122650  56.6113892  18.7044315  66.6509323
  57.3826141  17.5219898  67.1968460  84.3777161  28.0685539  35.5186539
  83.4398651  28.0003300  35.3397217  84.5551987  27.3616791  36.1391830
  14.4646425  44.4442787   4.1999803  14.9355497  44.2318687   3.3941507
  14.2885170  45.3828316   4.1341662   7.5342979  48.7826729  14.9436483
   7.1224179  48.0044136  14.5682802   8.1324377  49.0893822  14.2621861
   6.2686939  40.4791451  61.9974899   5.6860619  40.5296745  61.2397194
   5.8649664  39.8240395  62.5667686  60.6792221  29.7849522  84.4903488
  61.3011436  30.5120773  84.4632111  61.1413078  29.0920334  84.9621201
  10.5729074  57.0481071  28.2020168   9.8235188  56.5009384  28.4370880
  11.2602625  56.7894554  28.8159199  65.6336975  26.9834309  71.8481903
  65.8655472  27.2824020  72.7274475  66.3026733  27.3665199  71.2807846
  56.4365845  65.6162186  62.4689407  55.9133987  66.3302612  62.1047249
  55.9363174  65.3155746  63.2276077  29.4094791  57.5972862  11.1224012
  29.8603840  57.6392632  10.2791014  29.5060196  58.4759560  11.4896193
  34.4880333  45.2333717  54.5492477  34.5612106  45.3992500  55.4891205
  35.1975060  45.7445107  54.1598701  57.6200294  60.1908112  77.7814941
  57.8036232  59.2555962  77.8703918  58.3210678  60.6201820  78.2718201
  81.9736252  11.0278397  73.2120895  81.1247330  11.4686403  73.1760178
  82.5782928  11.6376076  72.7892532  10.5841923  38.6381531  80.5790939
  11.4282770  38.2005386  80.4684296  10.7982683  39.5709763  80.5948486
  51.4043884  27.4558582  66.1837158  52.2173996  27.0153751  66.4311371
  50.8687477  27.4331150  66.9766846  57.3555603  35.6019630  42.5232315
  56.9166183  35.8724823  41.7167702  57.7596855  36.4031906  42.8563156
  77.5319290  38.6053276  15.4783955  77.5297623  38.8489571  16.4040699
  78.3689270  38.9307213  15.1470442  81.6535492  15.3136215  10.3494787
  80.7949295  15.7208729  10.4641409  82.2706375  15.9500151  10.7106409
  27.8864269   1.0598880  79.0124817  27.2395229   1.6983033  79.3127747
  27.9825363   1.2382035  78.0769653  75.9992218  32.2758331  10.8202000
  76.5724182  32.6620369  11.4824076  76.1183777  32.8290596  10.0482073
   2.7851694   9.1028376   9.5962143   3.2284420   8.3228598   9.2624836
   3.0475087   9.1525593  10.5154190   9.2757082  44.7925377  23.2268810
   9.3250341  43.9080887  23.5895805   8.5064526  45.1800575  23.6443787
  23.2594490  54.6616096  66.6184845  23.4980583  54.1887360  65.8211899
  22.7182198  55.3893661  66.3124313  68.5803223   5.6759801  42.6105232
  67.8684387   6.1985755  42.9797821  69.1122742   5.4276991  43.3665771
  65.3915787   6.6249590  39.3747444  65.8504181   7.3980021  39.0459595
  65.7765045   5.8941712  38.8909950  19.9886227  43.4582558  48.7569084
  19.8846741  42.6707458  48.2228127  20.5381584  43.1799469  49.4895630
  13.6651497  18.7955399  70.6484985  14.5669289  18.7431793  70.3318176
  13.2472754  19.4389629  70.0761185  86.9303131  41.2881889  64.3126678
  86.4480667  41.1663780  63.4948463  86.3005676  41.7024040  64.9026489
  69.6137543  58.4103966  15.8908758  70.0686340  57.5689011  15.9255352
  69.6575394  58.7434273  16.7872047  34.3536377   0.2993804  75.6670914
  34.3008537   0.8472294  76.4502258  35.2754555   0.3348046  75.4116898
  19.5708580  66.2621613  45.0543404  19.8250599  65.4168396  45.4245377
  20.3224468  66.8315430  45.2191124   1.8290616  37.0394897  75.0048599
   1.0806674  37.2786865  75.5515976   1.4855267  36.3774414  74.4049377
  82.5778198  53.3492050  76.2052841  81.8685760  53.6871223  75.6584702
  83.2834396  53.9880295  76.1041031  64.4173203  41.5732727  66.5888672
  63.5393066  41.9466133  66.6659927  64.9843216  42.1997719  67.0385742
  28.8593197  70.3983612  31.0756721  29.5566711  70.0505829  30.5198097
  28.0629883  69.9764557  30.7530537  13.9953852  27.3777580  61.8583298
  13.2389174  26.7921219  61.8902512  14.7123499  26.8260746  61.5455360
  37.0489922  45.9477997  58.7349472  37.5589676  45.7530365  57.9486771
  37.5285912  45.5191154  59.4437828  62.4636917  67.0625534  80.8347321
  62.4171677  66.2693176  81.3684464  62.3054008  66.7593384  79.9407272
  74.9160080  62.3791237  29.1843338  74.0064087  62.1507988  29.3759899
  75.2064362  62.8709641  29.9524326  23.4659653  67.4531937  34.2986107
  24.4173946  67.4921875  34.2011642  23.2592850  68.1560822  34.9146194
  50.2371407  17.7534409  16.2387333  50.6919060  17.6787453  17.0776863
  49.9102898  16.8708935  16.0640583  51.4538841  63.2183800  48.6265831
  51.4645119  62.8121948  49.4932632  51.6889496  62.5100555  48.0272064
  62.6992264  53.9859505  47.6094780  62.4789772  53.1275482  47.2477264
  63.5965157  53.8884735  47.9282303  59.8299103  31.4803772  38.4196205
  59.9498253  32.3494530  38.8024559  60.4300880  30.9180508  38.9093246
  69.6568985  49.6344032  40.9727325  70.3603058  49.4853745  41.6045837
  70.1092453  49.8499489  40.1571617  85.1613388  60.1220322  54.4208183
  84.5162964  60.5371704  53.8482704  84.9049377  60.3888741  55.3035889
  28.1906300  35.3856392  60.8088989  28.4746265  34.9527435  60.0038071
  27.2694817  35.1418190  60.8998299  23.4760571  17.6330013  75.0072174
  23.2392597  18.1940594  75.7457123  23.9999275  16.9329014  75.3966370
  69.7478180  30.7792492  30.6854019  70.1054153  30.3159714  29.9279537
  69.9198685  30.1970081  31.4254189  15.0834198  69.8246841  10.5657568
  14.3011236  69.2891235  10.4337711  15.2947168  69.7156219  11.4929514
  48.1818810  38.0580978   5.2923560  48.2019730  38.1980095   4.3456497
  47.3051071  37.7151527   5.4652305  60.9812469  63.0318336  31.3623123
  60.7176285  62.6111755  30.5439091  61.5688820  63.7369308  31.0907383
  87.0009384  59.3027115  57.6409760  86.9539261  60.0712395  58.2096443
  86.0967102  59.1535454  57.3646584  66.1357269  63.9365921  63.2787781
  65.9392853  63.1414337  63.7741203  65.3588562  64.0801697  62.7383308
  78.7693863   0.7865174  61.6558266  79.1428986   1.3867170  62.3011856
  77.8877792   1.1238574  61.4970894  85.8423996   0.8754322  80.5079727
  85.4029160   0.9249873  79.6590729  86.7683792   1.0104144  80.3065338
  47.7040138   3.7537949  60.6353531  47.0852737   3.6769996  61.3616409
  47.3797722   4.4935575  60.1216888  67.7457047  64.5743332  10.6993561
  67.7434235  64.0307770   9.9114656  66.8319702  64.5869827  10.9842567
  41.8990364  30.2508640  68.5008011  41.1741638  30.3526134  67.8840027
  42.4010315  31.0614738  68.4162598  18.2001572  53.6313972  61.1869011
  17.5144672  53.6036072  60.5195999  19.0126858  53.4885330  60.7014923
  26.0974674  39.1780434  75.4298401  26.8452206  39.3299942  76.0077744
  26.3974648  38.5013809  74.8229141  52.2584267  49.9272385  71.9475784
  53.0403481  50.2920456  71.5331573  52.0159454  50.5727310  72.6114883
  31.0619450  62.4274445  72.0518265  30.1921120  62.4609108  71.6537018
  30.9036884  62.1327324  72.9486694   3.7950583  35.2741318  18.0150661
   4.4722691  34.6011810  18.0840054   4.2735033  36.0739212  17.7967491
  45.9570465  70.1692352  53.4551849  46.3968468  70.5750351  52.7081032
  46.6699142  69.8458557  54.0060692  58.6424980  16.6906719  24.4306793
  58.0382690  16.8424397  23.7039700  58.0836906  16.3932438  25.1486645
  69.7630386  43.7793427  64.7399216  69.2919083  43.4305573  65.4966278
  69.5078812  43.2086563  64.0150452  19.8641338  59.8446770  42.4598503
  20.6263237  59.6447792  41.9164009  19.1475010  59.9570122  41.8353081
  79.9132538  22.6761951  51.0269051  80.7250595  22.2481003  50.7549858
  80.1582489  23.1856899  51.7993202  68.6674042  41.2999878  24.9154282
  68.4226913  42.0488281  25.4591026  68.3490219  41.5245628  24.0411110
  38.8012619  26.3129482  62.1375847  39.3226280  25.5369720  62.3431816
  38.5486488  26.6648254  62.9911652  47.2438660  30.2917042  24.1176720
  47.3914146  30.6180477  25.0053444  46.3126450  30.0713463  24.0952015
  83.5714417  51.9457359  43.8717690  83.4442673  51.5606956  44.7388344
  83.1281433  51.3430557  43.2747002  64.7206421  13.7322092  15.5889063
  64.7922516  13.0083046  16.2110519  63.8555069  13.6238394  15.1938953
  78.1057053  52.1404877   4.7239866  79.0179291  52.4128647   4.8234310
  77.6387863  52.6102524   5.4150271  27.8140030  69.2612228   5.8086448
  28.4232063  68.6423340   5.4060602  28.3602085  69.7923889   6.3880916
  53.8215752  40.9435272  27.3091240  54.1805573  41.4706192  28.0229454
  53.2538795  41.5460281  26.8285542  73.2299118  61.0922737  78.1323395
  72.4431152  60.5745316  77.9616852  73.5698318  61.3050041  77.2631836
   2.2791958  57.6551895  74.9418106   1.9342247  57.9249420  74.0906525
   2.5666797  58.4703636  75.3529968  74.3968887  54.0483856  30.0235748
  74.4818802  53.2282448  29.5373898  73.4527054  54.1920891  30.0876465
  32.0609169  31.8503399  16.6697159  31.4059162  31.3478069  16.1852932
  32.7935562  31.2444458  16.7809048  62.5234718  15.3348465  58.3810196
  62.4701881  16.0217972  57.7165718  61.6419716  14.9630899  58.4124031
   5.3909969  42.1233444  50.6415405   4.7612352  41.7056541  51.2290497
   5.8054242  41.3955307  50.1781082  19.0390987  64.7362671  38.5796509
  19.1649399  64.4460754  37.6762238  19.9187336  64.9589691  38.8844109
  13.4874630  60.2772789  15.0828552  14.2549181  59.8263321  14.7308712
  12.7418156  59.7878151  14.7354841  15.8522110  49.5203247  78.0350800
  15.4363737  50.1897736  78.5783539  15.4469213  49.6247215  77.1742249
  67.4692612  52.3061562  69.9998856  66.8135300  52.5660667  70.6469574
  67.3015976  52.8738365  69.2476501  72.4680481  40.7257652  71.7849045
  72.5869980  40.9912643  70.8729858  72.7866364  39.8236465  71.8152237
  11.9210672  64.1476822  71.1288757  12.2473564  63.4060287  71.6384964
  12.0657635  64.9077301  71.6924591  22.0793076  70.2290573  60.5643883
  21.2834339  69.8299026  60.2129707  21.7639427  70.8833542  61.1878204
   3.8443165  20.5954895  53.9727402   4.3489256  21.3002911  53.5667152
   3.9156530  19.8650970  53.3581924  51.1946030  66.0272980  46.3999825
  50.6563873  65.4314194  46.9210205  51.8580589  65.4641724  46.0012970
  38.7344513   2.9042294  58.5517769  38.3288612   2.4611733  59.2970467
  38.3251266   2.5050552  57.7840881   4.0613966   9.5713406  55.6954918
   3.5010090   8.8625937  56.0115204   3.8486030   9.6483479  54.7654266
  30.8296604  43.1232185  16.4731884  30.3798370  42.4025307  16.9142113
  31.5428162  43.3592415  17.0664272   5.8466697  40.5022507  29.2334366
   5.8235316  41.1147499  28.4982204   6.2057152  39.6962128  28.8624630
  56.3368721  33.8758621  32.4252510  56.3185692  34.5999832  33.0509872
  55.9603653  33.1368370  32.9030762  70.3062668  21.8834953  11.8912811
  70.7285309  21.0501118  12.0995989  70.8295212  22.5390091  12.3525114
   0.0340994  30.9525585  43.4683266  -0.0053614  31.4212780  42.6346741
   0.5868450  30.1918297  43.2894516  23.1346207   5.2486434  55.8937683
  22.2122936   5.0555582  56.0618782  23.4708309   5.5612712  56.7336845
  79.8243790  51.1619720  11.2195015  80.6922150  51.0720406  11.6132021
  79.9243393  51.8647537  10.5773668  53.4308128  61.0459595  72.2987595
  53.8950539  61.0460777  73.1358490  53.0711861  60.1620064  72.2244568
   6.9531674  40.8013115  82.0949173   6.5510802  39.9703140  82.3478928
   6.2771482  41.2495804  81.5866928  32.2521706  55.6751747  70.4661713
  32.6339111  54.8829460  70.0881729  32.8890419  56.3633194  70.2736053
  10.3873940   4.8127170  88.1553497  11.1167612   5.0090561  88.7433167
   9.8797760   4.1458645  88.6178055  45.5221977  70.5976028   4.4648333
  45.2310638  69.7957382   4.0306826  45.7393799  70.3224106   5.3555260
  80.8084793   7.6476669  82.0015030  80.9880142   7.9986534  82.8737488
  80.7825546   6.6989217  82.1257706  18.7173824  67.0528946  19.3798294
  19.5873508  66.9183350  19.7557011  18.7243423  66.5415192  18.5707054
  46.5805550  31.0350704  17.6396980  46.2671204  30.2140217  17.2603951
  45.9649773  31.2218418  18.3485088  17.1375389  41.8890152  63.5134735
  17.5160999  41.2515106  64.1188736  16.1948872  41.7279320  63.5545998
  17.4563408  43.0133247  75.8242111  17.6351986  43.7710953  75.2674103
  18.3101006  42.7744789  76.1851501  22.6085949  32.1946754  18.4384861
  21.9993114  32.7252579  18.9517975  23.3628483  32.7665443  18.2960148
  24.0879745  11.4149599  75.2576370  24.2615852  10.6941662  75.8630676
  24.5432911  11.1668730  74.4530411  14.7968359  32.2709045  17.0499592
  14.5200691  31.5102043  17.5608063  14.3250666  32.1874390  16.2212868
  69.8754654  52.2643700  48.8738708  70.8178558  52.4181252  48.9408760
  69.6380539  52.6043968  48.0111732  42.4012680  57.9996719  29.3374233
  41.7203827  57.3409538  29.2006130  43.0198364  57.5836258  29.9378471
  11.8891621   2.3664701  40.0179405  11.9160547   3.0414379  39.3397598
  10.9721155   2.0938218  40.0482712  51.3952179  40.6943855  38.4639778
  52.3345604  40.5658684  38.3322449  51.3313408  41.5209579  38.9424400
   7.8669600   8.9987078   4.2258697   8.2248135   9.3596563   3.4147661
   7.5462289   8.1307812   3.9807825  18.5939007  67.8756638  84.3705673
  18.7273540  67.3027878  85.1257019  18.6303616  67.2887650  83.6152802
  15.0003223  31.8932800  45.7977448  14.4693985  32.2982559  46.4835625
  15.7725563  32.4547577  45.7297249  21.7030258  31.3113861  80.1587677
  21.2398949  31.4992447  80.9751282  21.2562847  31.8451309  79.5016708
   3.9792137  45.8921318  28.1579742   3.1815038  46.4206123  28.1334972
   3.8679152  45.2575340  27.4500694  55.3138351  22.3790703  22.0406551
  54.7084465  22.9109135  22.5572605  55.1651764  21.4836369  22.3445129
  69.1532364  43.9500618  21.2487888  68.9521408  43.5888176  20.3854847
  68.3026886  44.0236969  21.6816654  58.8696327  48.9406967  22.2733860
  57.9686050  48.9086876  21.9518967  59.2605171  49.6856689  21.8168125
  66.4039078   6.8547249  43.8200378  66.1983948   5.9539828  43.5697136
  65.5618820   7.2295799  44.0783272  64.2163544  69.0507431  15.8300476
  63.5399551  68.9521637  16.5001183  64.8133240  68.3182526  15.9827442
  81.6086655  43.9289932  21.1244888  80.7963486  44.2841454  21.4853764
  81.3442993  43.5121613  20.3043709   6.0144992  43.7461548  52.6636353
   6.9673162  43.8364868  52.6781921   5.8446126  43.1124802  51.9666214
   2.3277733  55.2685318  68.1059113   2.0826979  55.8512230  68.8246841
   1.5605327  54.7107811  67.9775009  25.7987461  57.8958473  75.4260941
  25.8803730  57.9710579  76.3768387  25.3603840  57.0560379  75.2890320
  62.5049858  36.9911079  24.7868271  63.4540482  37.0628357  24.8886719
  62.1655807  37.8253326  25.1110287  80.1554337  54.0062256  33.6167870
  80.1810303  53.6942177  34.5213470  81.0746918  54.0570984  33.3548698
  70.0697250  17.0809326  57.3965225  70.7844009  17.7159462  57.3492928
  69.3293457  17.5221920  56.9801636  35.9722977  56.2602043  45.6202469
  35.3742294  55.7296753  45.0938644  36.2386780  55.6824570  46.3354263
  31.5492020  67.6788254   2.7079184  31.7353954  68.5968781   2.5110772
  32.3994408  67.3069687   2.9425356  25.7516441  46.9887390  68.7206116
  24.8166409  47.1800079  68.6470261  26.1824570  47.7374229  68.3081741
  10.2339506  53.7181282  75.2892990  11.0091581  53.9414825  74.7741318
  10.4091959  54.0835648  76.1564636   2.9082992   3.8519645  75.9399185
   3.7039940   3.6341016  76.4253464   3.1061225   3.6105778  75.0350266
   4.1989913  45.7559929  57.3071365   3.9888361  44.8450890  57.1014214
   4.7984023  46.0264664  56.6115875   4.1607356  56.9762268  16.1648903
   4.4221659  57.1441154  15.2595177   3.3528237  57.4770126  16.2776890
  44.2375832   5.7993622  61.0890121  43.3159103   6.0518079  61.1439514
  44.6800957   6.5795493  60.7547607  12.5307083   0.8998061   9.4857788
  11.7739744   0.5769753   8.9965277  12.1797953   1.6015491  10.0340939
  63.8952408  13.2564077  37.4815140  63.0645027  13.3142834  37.0095444
  63.7497520  13.7564144  38.2846680  73.1123276  20.4472923  39.0698318
  72.8293991  20.7678490  39.9262352  73.8320923  19.8470840  39.2645798
  61.7127495  11.2518044  65.2418976  61.4663200  11.5392513  64.3627548
  62.6608696  11.3781929  65.2782364  52.7525177  18.0999374  88.2572327
  52.5228920  17.1898136  88.0696793  53.1080475  18.4320145  87.4328766
  15.8882313  22.6486435  22.1242809  16.2275524  23.0047092  21.3031158
  15.2299919  23.2835808  22.4067860   1.4259537  67.7876892  30.9328384
   0.8081814  67.9166183  31.6525383   2.1639388  68.3590240  31.1454067
  67.5648422  62.2277260  27.5320663  67.6340561  61.9190102  28.4354687
  67.1834793  63.1025162  27.6064491  79.6843872  59.8298454  81.8712387
  79.6055603  60.2582970  81.0189133  79.1489944  59.0402679  81.7928238
  16.0193863  58.6753540  75.9537964  15.7861385  59.2369270  76.6930313
  15.4532232  58.9706383  75.2407074   9.1713457  61.8768692  68.3015900
   9.3433409  62.7622261  67.9809723   9.2112360  61.9553413  69.2547302
  48.6428146   4.2805443  16.8573093  48.0532227   5.0034356  16.6427402
  49.5117226   4.6809654  16.8872299  77.8571396  42.2888832  45.3864288
  77.4463654  42.2661247  46.2507095  77.2505112  41.8116951  44.8202820
  86.2316742  69.4527130  79.4890442  86.2134323  70.1743011  80.1176987
  85.4172440  68.9756622  79.6482925  45.3548126  42.1520958  47.9920998
  46.2345772  42.5274811  47.9556198  45.4812202  41.2253380  47.7886963
  48.5713654  23.3450260  29.7525902  48.9466515  23.5490799  28.8959961
  47.8671417  22.7247696  29.5639458   2.6424875  30.2929134  67.2743607
   2.1230922  30.6442661  66.5511627   2.2937813  29.4125080  67.4140778
  34.2794495  61.2902069  79.2735672  33.5226631  61.8711510  79.1960144
  34.6009331  61.1946793  78.3770447  24.6334438  52.3988152   2.8194664
  24.7537632  51.8873444   3.6195619  24.3158760  53.2488670   3.1240869
  14.4727564  62.6222763   3.8733289  15.0069361  61.8296776   3.9250104
  13.8286867  62.5231667   4.5744591  85.1825104  71.0668488  23.7099228
  84.6900406  71.2015610  22.9002609  84.5121155  71.0020981  24.3900719
  56.2071152  59.7817116  82.8723221  56.6357498  60.4188919  83.4437332
  55.2733498  59.8861427  83.0550995  35.6671333  47.0305138  88.0751419
  35.9644661  47.5340233  87.3173065  36.1243286  47.4239006  88.8184128
  69.4137802  55.0285873  20.4948921  69.1139832  55.6096191  21.1940002
  68.6292419  54.8551941  19.9746342  16.5586643  59.7666931   8.8244352
  15.9289427  60.3508797   8.4020500  17.4031162  60.2031021   8.7118273
  56.4340591  60.9136848   7.6994534  55.6873932  61.1624222   7.1546102
  56.4850616  59.9615250   7.6156516  55.7397232  57.0635147  17.2065563
  55.7817993  56.8882446  16.2664814  56.5166702  56.6345863  17.5651741
   7.7480187  61.0076714  65.9247971   8.1737261  61.2955894  66.7323303
   8.0661106  61.6148834  65.2567062  29.7940331  14.7747269  15.7387094
  30.7470322  14.8092957  15.6560640  29.6382790  14.6841516  16.6787987
  74.4987640  34.9379005   4.4018970  73.6313782  35.0327721   4.0083580
  74.6285095  33.9920158   4.4704609  49.6200142  48.6308403  67.1886139
  49.4269028  49.3606529  66.6001282  50.5744972  48.5597610  67.1768265
  59.8055458  19.2161560  71.3780899  60.6421013  19.0788441  71.8225555
  59.5213051  20.0838718  71.6653366  22.0131683  63.0223694   5.4503956
  22.7783318  62.6917191   4.9798384  22.2571392  62.9655685   6.3742371
  11.1321487  20.8307629   3.1195784  11.0042152  20.0607452   2.5655589
  11.1403055  20.4849796   4.0121026  51.2697411  16.6961174  75.4267426
  51.2125549  16.8474407  76.3701782  51.8733902  17.3691750  75.1123657
  72.8175430  70.1985168   6.5642347  72.4835434  70.3287354   7.4517713
  73.7644882  70.1130447   6.6748157  60.7592659   5.0002890  14.5573816
  60.5095062   4.8958912  13.6392565  61.6259117   5.4054132  14.5252686
   7.3757944  54.8481789  35.2075310   7.0963769  54.0209160  34.8153687
   6.6182446  55.4257011  35.1136169  40.5743675  60.1222572  30.1674137
  40.9819946  60.5897713  30.8964558  41.3106194  59.7725449  29.6655483
  66.2134399  23.2003155  87.7563934  65.8647537  22.8195648  88.5624161
  65.4722366  23.1990528  87.1507187   7.1045532  60.5944748  14.4460506
   7.7110682  60.9417076  13.7919846   7.3195314  59.6633873  14.5016184
  74.6207047  20.3265553  62.0276833  73.9262924  20.0707588  61.4205666
  74.8212280  21.2328949  61.7940826  41.8677139  54.0939445  83.8710556
  41.0641136  53.5739784  83.8804855  42.0393066  54.2863846  84.7928772
  64.0619812   4.5626168  18.7481670  64.6272964   3.9122472  18.3314381
  64.1276932   5.3334370  18.1844749  47.4078445   1.3196621   7.8647075
  46.8779526   1.7236071   7.1774864  48.2614899   1.1765701   7.4559884
   5.3435497  51.7029915  84.3734055   4.7618074  51.4186096  85.0783386
   5.6716328  52.5544930  84.6624374  68.9168777   0.3864563  67.4689713
  69.0653839   0.5250869  68.4043579  67.9703827   0.2663206  67.3919449
  42.0691185  58.0464325  62.7763443  42.9227600  58.4729424  62.7013702
  42.0356445  57.7348976  63.6808090  55.3619232  46.6268463  67.9113617
  55.1419830  46.3118439  68.7880783  56.2299690  47.0184174  68.0083160
  81.3166580  24.4371052  42.9428673  81.1137772  25.2267952  43.4443245
  81.5230713  24.7574100  42.0647850  61.7089272   2.5746288  61.8740234
  62.1050529   3.4443774  61.9274368  61.5599480   2.3229108  62.7854347
  40.2212563  54.5064430  21.3045311  40.9358215  55.0518646  20.9756851
  40.2423973  54.6305161  22.2534218  68.7465363  64.3829041  87.8325272
  68.6352081  63.5180817  87.4376678  69.0565414  64.9356308  87.1151581
  49.7253838  32.8016319   5.6756115  49.1874352  33.1921043   6.3643599
  50.4238930  33.4389915   5.5269804  85.1329575  70.4543076  33.6198997
  84.6394882  70.3162918  34.4283981  85.9601974  69.9944000  33.7627335
  33.8171463   8.8064213  11.3910742  33.3170547   9.6225243  11.3802719
  34.2866173   8.8242216  12.2250481  74.0505219  14.0389824  64.0970230
  73.4569016  14.0318050  63.3461609  74.2329102  14.9662256  64.2492981
  85.8996735  39.8607178  43.5616417  85.4308624  39.0402794  43.4089241
  85.3145752  40.3701057  44.1223793  49.7943420  31.9646606  88.0733185
  49.5369072  32.3712730  87.2459030  50.5660210  31.4426117  87.8537598
  50.2892380   9.0438480  20.1847916  50.0509682   8.9334335  19.2643204
  50.5936356   8.1787071  20.4588413   3.3126822  12.3022833  68.1149139
   3.7597184  12.2438593  68.9592896   3.6885297  13.0776596  67.6980667
  84.6022186  36.1254120  22.1054306  85.0686798  35.3624153  21.7641411
  84.2468719  36.5563469  21.3280907  13.6043310   6.3386941  80.7888260
  14.4262800   5.8482199  80.7970505  13.6189728   6.8167458  79.9596786
  11.1993561  41.3131218  10.4287148  10.9763098  41.4054108  11.3549786
  11.4792328  42.1885796  10.1613703  77.9154663  23.4254360  26.3084774
  77.8223343  23.5515385  27.2527542  78.0208740  24.3098927  25.9579697
  32.7861176  60.3687553  29.8713169  32.5868073  60.9210663  30.6272640
  32.2834778  59.5679436  30.0206070  10.7857847  15.6249065  15.8520746
  10.6461153  14.6780367  15.8392935  11.4182539  15.7831984  15.1512480
  59.9694748  39.2657356  81.2260437  59.7021866  39.8472786  80.5142899
  60.1232948  38.4219894  80.8010025  76.6904068  41.3000374  19.1477699
  76.9671173  41.1011543  20.0422573  76.4356461  40.4529877  18.7819386
  84.9695969  60.2058830  24.5447254  85.3140945  59.5848351  25.1864834
  85.3323135  61.0508842  24.8105125  38.0826607  28.5662880  10.4215927
  37.2827759  28.0774460  10.6151094  38.6966934  28.3016968  11.1065626
  49.7973595  63.1999397   0.6684688  50.5769691  62.7518387   0.3403662
  50.0427094  63.4967804   1.5447797  82.6573029  13.1180210  42.5359612
  82.8985291  14.0253181  42.7226601  81.8430710  12.9821072  43.0205078
  41.7956238  10.9188251  10.4353952  42.0366516   9.9962492  10.3517895
  41.0081253  10.9122791  10.9794903  57.9213562  17.1093636  17.0831470
  58.6151695  17.6453686  17.4672718  58.1363792  17.0711899  16.1511917
  41.5856133  32.8054123  16.5141926  42.2923050  32.4408073  15.9813890
  41.8908920  33.6814728  16.7498970  38.9382706  33.7167206  56.2588348
  38.5731201  33.4846992  57.1126862  38.5815086  34.5854721  56.0738335
   0.0483362  39.6338806  52.6703033   0.3032408  40.5365829  52.8610382
   0.1422723  39.5539436  51.7210846  14.6061621  62.1688423  55.8640785
  14.1965742  61.9761124  55.0206795  14.4729300  63.1088753  55.9858017
  35.5380363  53.0869179  45.3519554  35.2441292  53.7736702  44.7534370
  35.3136902  53.4157333  46.2224617  69.5189972  43.7030411  77.0685349
  69.3435898  42.9096527  77.5745010  69.3769150  43.4429817  76.1583633
  31.4435158  40.1310005  48.5224724  32.1840591  40.5782623  48.9320869
  31.4635220  40.4206276  47.6103592  36.9454842  44.9212875  33.7241440
  37.0904083  45.8673706  33.7364693  35.9944305  44.8253021  33.6739578
  41.9942322  15.3457136  85.8781738  42.9445915  15.2727127  85.7903137
  41.6562958  14.5289860  85.5107651  12.1296883  37.8195534  86.8592682
  12.5474443  37.0329590  86.5085754  12.3043337  38.4956512  86.2045746
  30.9914036  40.8958244  56.5835686  31.0190582  41.8524971  56.5678787
  31.9108315  40.6297569  56.5930862   3.7524419  14.8883772  67.4453964
   2.8443036  14.8259916  67.1493759   3.9744949  15.8138838  67.3436050
  76.3916626  37.5834122  79.0576859  76.4898453  38.2697868  79.7175903
  76.9156799  36.8546906  79.3902588  54.7737160  37.5563583  69.3903122
  53.9343224  37.2120361  69.0851974  54.7451439  38.4873466  69.1696854
   4.1580825   1.5098217  77.8474350   4.1298094   0.8237255  78.5142975
   3.5711763   1.1984187  77.1583786  12.4013214  48.2208481  88.5048065
  11.6648102  48.2580986  89.1150513  12.2972937  47.3824844  88.0547485
  12.3547287  41.5336380  16.4160938  12.1162405  42.2995644  15.8938770
  11.5247555  41.0838699  16.5744724  25.8138847  63.0259590  73.3474121
  25.3247013  62.3485756  73.8144073  25.7026062  62.8069649  72.4222717
  32.0449142  61.5145111  10.1112452  32.2913513  62.3596535  10.4870548
  32.5331192  61.4663734   9.2893143  44.6652336  54.8572884  46.3094254
  44.5156555  53.9591141  46.6046219  44.0750275  54.9657364  45.5636902
  29.4351959  23.8948154  81.4026184  28.6263905  24.3896923  81.2716141
  29.8174477  23.8247147  80.5278625  71.9549026  10.6398897  71.4926910
  72.5354538  11.2890425  71.0954590  71.1994095  11.1456299  71.7921600
  63.8584785  19.8698139  26.5635395  64.0483475  20.2832413  27.4057140
  63.8336754  18.9326859  26.7569485  19.9890404  14.5996752  81.6103134
  19.2683258  15.0256348  82.0743790  19.5907001  13.8297853  81.2043228
   9.0210686  19.9588490  60.4021187   8.8193035  20.6353626  59.7557030
   9.5244226  19.3056736  59.9160843  50.9126587  43.9767838  71.1711655
  50.8907776  43.4021568  70.4059525  50.2370987  44.6323700  70.9977798
  19.8624115  36.7521896  41.7241325  20.2583294  36.0772820  41.1727905
  19.2279396  37.1858444  41.1534996  31.3960762  56.4452553   9.2075653
  31.9577122  55.8540802   8.7062597  32.0052299  57.0345764   9.6523848
  47.9514275  23.6551304  77.6155014  47.7489395  24.1347504  76.8122635
  47.9024239  22.7331963  77.3627777  25.9180908  65.2014542  17.3412991
  25.7154388  66.1098785  17.5647469  25.5362148  65.0776291  16.4723530
  46.2673225  63.0786476  46.9417229  46.2862663  62.5787163  47.7577744
  45.8624382  63.9123611  47.1809349  37.4662895  36.8234177  80.5551453
  37.2356873  37.7486191  80.6391449  38.4203568  36.8065643  80.6306686
  53.8510895  31.1681728   3.0628612  54.6320038  30.6697025   3.3035526
  53.5025215  31.4844780   3.8963375  21.5549183  68.6491623  28.5229416
  21.7772713  67.7329025  28.3578491  20.6689167  68.6193161  28.8839664
   6.6246586  33.1889343  29.0461636   6.0374660  33.0221672  29.7834740
   6.1240883  33.7629967  28.4664116  28.6525345  32.1486740  76.2600250
  29.1594772  32.3915825  77.0347672  29.2375393  32.3300972  75.5244370
  35.7999802  36.5361633  64.7679443  35.3057632  36.8909225  64.0289459
  35.8106575  35.5909538  64.6172867  41.4295807   0.8359222  23.3389263
  40.6107941   1.2977375  23.1585197  41.4806557   0.8032201  24.2942047
  63.9786339  62.4528122  48.8755989  64.3892365  62.1353226  49.6798592
  63.1854591  61.9243889  48.7868843  82.2334976   8.7386236  69.4243927
  83.1531525   8.8067245  69.1678162  81.7867737   9.3962278  68.8912659
  84.0567474  45.0683670  44.1598930  84.8628693  44.5737038  44.3072586
  84.3198318  45.7906456  43.5895195  81.5427856  57.9173660  53.9304237
  81.5836716  58.8616600  54.0816345  80.8723755  57.6062088  54.5386696
  85.3632202  58.2991104  40.5318375  85.8815384  57.7789574  41.1458549
  84.6540527  58.6606979  41.0634079   1.3468056   3.8475621  81.4244308
   1.8694246   4.3540363  80.8026733   0.4719725   3.8217933  81.0368271
  72.0240860  47.5291786   2.5873227  71.1707077  47.5024147   2.1545949
  72.0860519  48.4168701   2.9400218  83.7022858  67.1274719  33.6066322
  83.7486191  67.6551819  34.4038811  83.5783386  67.7655106  32.9039421
   8.1537457  64.8721237  70.1857071   8.6367874  64.0739136  70.3996124
   8.7693930  65.5814056  70.3704376  36.2240219  60.3130531  10.0708027
  36.5331078  59.6465149   9.4572668  36.9775658  60.8894615  10.1978912
  70.9333954  45.9398346  40.5633659  71.2067032  46.8156090  40.2903099
  69.9847412  46.0077896  40.6713905  29.7484035  62.1892166   8.4622879
  29.6578445  62.9961510   8.9691286  30.6287861  62.2378998   8.0897455
   3.5954993  50.3503571  65.4578476   2.9449756  49.8278542  65.9269257
   4.1606755  50.7026978  66.1453476  19.4049206  31.8443489   0.2532471
  19.1509953  31.8342438   1.1760969  19.3395424  32.7642670  -0.0030959
  40.4706230  17.5355453   2.2418408  40.8048210  17.4884300   1.3461162
  40.1453133  18.4315147   2.3292875  41.6847038  56.3256416  13.4293737
  40.8186188  56.3386269  13.0219917  41.9446182  57.2460289  13.4689035
  72.1243439  27.6031265   2.4092963  71.6901398  26.7949944   2.6824710
  72.5843277  27.9045067   3.1927576  51.7746582   7.0089216  79.3350372
  52.2016106   7.6132984  79.9422226  50.8465919   7.0541954  79.5649719
  75.7438126   7.4722304  76.0873260  76.2037125   8.2945471  76.2561951
  75.2938538   7.6160488  75.2548065   9.5741634  54.7181702  25.0952663
   9.3628788  54.5854034  24.1711636  10.4895029  54.9981422  25.0938511
  18.6165848  37.5562134  67.5207672  18.1602745  36.7564049  67.2593994
  19.5247593  37.2826233  67.6496048   4.9387050  14.2887936  87.6327286
   5.8487916  14.5775709  87.7004166   4.5620790  14.8422031  86.9485321
  46.9410400  52.0225296  71.1767883  47.8414803  52.2983589  71.0054398
  46.9902496  51.5452614  72.0050583  33.0248299  66.1848984  19.0294952
  33.5360489  66.6165848  18.3449936  33.4358292  66.4642944  19.8475742
  34.0582733   2.8885248  17.6741085  34.8918877   2.6201522  17.2877216
  34.1286163   3.8393738  17.7587852  33.9785080  24.8581295  64.8341675
  33.0294685  24.7452202  64.7811966  34.3343086  24.1495972  64.2978668
  18.4857979  71.1070633  63.4908142  18.7906647  71.7181778  64.1615067
  19.2540779  70.5745010  63.2850151  64.8851624  36.3102760  81.1503067
  65.0452194  35.9495621  80.2782364  64.5169373  35.5800209  81.6476746
  14.6765976  61.8557281  67.9495163  14.6486750  62.7258606  67.5516205
  15.5247259  61.8217888  68.3919601  31.2921448  43.8758888  64.7208099
  31.4094887  44.7301178  65.1364441  30.3944626  43.8922882  64.3889465
  40.3479385  66.5006790  13.0584221  40.3434944  67.4319077  12.8369923
  39.8294945  66.4428482  13.8609810  86.2114716   7.8982220  10.8113022
  86.0184097   8.8224182  10.6537609  86.7851105   7.6466112  10.0875168
  19.1819134  43.4401016  26.1147671  19.1877270  42.8341179  26.8556995
  19.2777081  42.8786926  25.3454342  51.7723198  33.8832626  20.9371948
  52.2697067  34.4889107  21.4867668  50.9940948  33.6748238  21.4540615
  69.5252914  58.8601303  11.5229607  69.0757599  59.5877914  11.0932417
  69.5057602  58.1525078  10.8786602   7.1391129   4.5808735  12.0968275
   7.2011337   5.3822179  12.6166668   8.0275564   4.2246504  12.0989342
  59.4410934  63.0333405  23.6664524  59.0108452  62.8706627  22.8270168
  59.8769188  63.8779144  23.5525093  57.0180702  10.6409321  64.1817932
  56.1438141  10.7501459  63.8076553  57.1479111   9.6931429  64.2145004
  73.5982590  25.0824356  14.4349947  73.4408951  25.7359142  15.1164875
  73.7291031  25.5950298  13.6372747   5.9904871  29.7789669  16.1312008
   5.1311455  29.5680904  16.4962959   5.9573402  29.4475613  15.2338142
  30.5151253  13.0648384  74.7816925  30.4895477  13.1631613  73.8299026
  30.1800594  13.8962383  75.1174622  44.4809036  45.0887299  66.6239395
  44.0454750  44.2369499  66.6570892  44.9490929  45.1509552  67.4565048
  86.0402527   1.9775625  33.3932037  86.6347733   1.5529653  32.7747459
  85.1700516   1.8486031  33.0159111  78.2999573  60.6606865  84.2866135
  78.5856247  60.4065590  83.4090881  78.0523529  61.5813026  84.2006607
  78.5733032  62.2891998  32.3422012  78.3823318  62.7645721  31.5336323
  78.8413391  61.4179230  32.0501976  80.7482986   1.3860775  42.9630966
  80.1406250   1.6218837  42.2621269  80.1902847   1.0277973  43.6533775
  23.9917126  36.6091003  57.0148544  24.0937271  37.4194679  57.5139809
  24.5408268  35.9739456  57.4745178  23.6943302   0.3841182  80.1987000
  24.6285572   0.3274859  79.9980850  23.4863720   1.3142811  80.1104889
  40.0776901  53.7277260  88.2449341  40.5830879  53.5626030  89.0408859
  39.3128738  53.1576424  88.3242645  33.7971344   1.3473158  79.1306305
  34.1833687   0.5799380  79.5527496  32.8534241   1.1915931  79.1679001
  70.0672226  56.4825096  70.5603333  70.5787582  57.2564583  70.3246078
  70.1877518  55.8824692  69.8243637  61.9387093   0.9398632  52.2345123
  62.5497627   0.3988133  52.7346268  61.4948006   0.3236786  51.6518517
  50.3745461  35.8458557  75.3467331  49.8140259  35.0911446  75.5269012
  49.7687988  36.5335236  75.0702972  10.4804106  26.8868771  54.5833015
  10.6863031  27.2100773  53.7061539  11.1182394  26.1900349  54.7376251
  45.4015999  64.3574295  65.8092270  46.0334244  64.8039322  65.2456055
  45.8458786  64.2811966  66.6536407   3.3332913  56.5046272  19.5967522
   2.5011470  56.3072319  19.1668663   3.9789989  56.4820595  18.8905067
  62.5408401  28.8938713  33.8631935  62.6806297  28.2442894  33.1741829
  63.4078712  29.2684517  34.0186920  62.6623077   7.5961628  15.7503643
  63.2984047   7.1883435  15.1627445  62.7847252   8.5365610  15.6203756
  22.7522602  60.9405327  59.1073227  23.5827961  60.8548317  58.6392479
  22.1408463  60.3954544  58.6120529  63.1469727  35.5323448  28.7722301
  63.7694664  35.9909058  28.2079144  63.6883583  35.1413879  29.4580040
  68.8613586  71.3930588  48.0566368  68.3256531  70.6591721  47.7555428
  69.7241287  71.0103149  48.2159081  81.0504303  14.5623007  73.8063812
  80.3401260  15.1181946  74.1268234  81.2956543  14.0278425  74.5616608
  76.0743027   8.9965353  30.6458588  76.2040024   8.6715641  29.7549019
  75.4925232   8.3544588  31.0526810  36.0909500  38.9538422  19.4719238
  36.9542503  38.9749603  19.8848400  36.1525154  38.2520790  18.8238716
   0.2961944  12.3843250  27.7950993  -0.2868538  11.6849365  27.4998989
   0.5983007  12.8009357  26.9880066  33.4585304  39.1136627  61.1185226
  32.9900284  39.5647774  61.8208275  33.0193825  39.3975449  60.3167801
  49.8705368   3.3210130  10.2189188  48.9141884   3.3440039  10.2521200
  50.0926552   3.7680757   9.4021997  59.6034508  43.4348679  52.4757729
  59.6740913  43.0107079  53.3309517  60.4986954  43.4415932  52.1370735
  71.0948334  30.9951897  86.5985336  71.2636642  30.3672771  85.8960724
  70.4755249  30.5482655  87.1755524  25.4872952  15.2230587  65.4684448
  25.0185947  14.5402517  65.9483719  25.4244251  14.9571810  64.5510635
  32.7923355  20.8079548  80.7941513  32.8284798  21.5302753  80.1671143
  32.1669960  20.1913357  80.4134140   6.3573227  29.9984398  84.2819977
   6.2032814  30.4021072  83.4278564   6.8164091  29.1826572  84.0820770
  23.3627720   8.6134863   2.8099992  23.7577496   9.1052971   3.5299625
  22.7285728   9.2188940   2.4259355  69.7423630   2.7834380  65.9966736
  69.0126038   3.3999302  66.0568008  69.4904327   2.0576537  66.5676422
  12.8854399  43.7953873  48.1485977  13.8202219  43.9616852  48.0271072
  12.7553053  42.9066277  47.8178368  75.6226273   2.3611343  15.0082703
  76.2205658   2.8030734  14.4054508  76.0364227   2.4531572  15.8664894
  50.4716568  12.3932095  74.2355118  50.8798409  13.2325478  74.4479446
  51.1383896  11.7411976  74.4513321  34.4966125  55.2808533  43.5562477
  34.3391647  56.1366310  43.1573906  34.4154701  54.6604156  42.8318787
  31.0808315  58.3944092  32.0466003  30.6697750  58.0017395  32.8167114
  30.6846447  57.9376602  31.3045425  70.2912903  41.2865143  20.5108566
  70.8391800  41.6222458  21.2203217  69.5441742  40.8851204  20.9546204
  64.8736191  28.3420620  28.1828861  65.3660736  27.6133976  27.8050346
  64.9266205  28.2022495  29.1283360  80.5343475  45.4592628  52.4070091
  80.4941177  46.4154968  52.3919754  79.7496262  45.1940346  52.8866882
  34.4752159  61.3637238  38.4189186  35.1868439  60.8268356  38.0702477
  34.9007454  61.9460831  39.0482140  27.4346504  30.7738113   2.6438861
  27.3247852  30.1815262   1.9000046  27.5282402  30.1941185   3.3998156
  56.4137955  67.8238220  74.2881546  55.6514931  67.3556747  73.9476242
  57.1372566  67.2042160  74.1937027  54.5781631   4.6112218  20.9938183
  54.0734367   4.5099473  20.1868305  53.9190636   4.6308579  21.6876755
  44.1394005  70.8344040  25.6623173  43.3695374  70.5864410  25.1503983
  43.9036789  71.6733780  26.0582790  54.7131462  15.4541378  48.6625443
  54.1003494  16.0037766  48.1740723  54.2075043  14.6731157  48.8874054
   1.9843829  67.3566742  60.7813683   1.8904983  66.9949722  59.9001236
   1.8662115  68.2996445  60.6670799  62.6216850  34.1421204   6.2464275
  62.2617950  33.2744865   6.0622511  61.9533043  34.7505112   5.9312153
  15.6556520  62.2784233  36.1608505  14.9140463  62.8480835  35.9565468
  15.5888777  61.5624542  35.5290565  21.2777138  29.2428055  57.0720329
  21.1189442  28.5757160  57.7398796  21.5304317  30.0220337  57.5671768
  30.6309376  68.9476013  62.6472359  31.2248688  69.3127289  63.3031044
  31.1605282  68.3041916  62.1762924  56.7796631  65.9790497  48.8282204
  55.8367653  65.9867325  48.9928932  56.8579597  65.7900085  47.8931427
  21.2312164  47.7144051  34.4649048  21.0530930  48.3994331  33.8205147
  21.0438251  46.8969650  34.0034904  73.5959625  34.5894356  19.8282871
  73.1085358  33.7703018  19.9158382  72.9205246  35.2656822  19.7763176
  20.9666996  28.8925266  88.2758026  21.2512283  29.8003216  88.3815536
  20.7123470  28.6171017  89.1565247  60.3144226  24.1180687  12.8410559
  61.0361977  24.6749134  13.1329384  60.3631210  23.3470192  13.4061613
  84.9856567   9.3504772  57.4113579  84.0929642   9.2116070  57.7276611
  84.9202118  10.1132011  56.8367233  36.6888351  64.2857513  30.1394253
  37.3043022  64.2000198  29.4113598  36.3048439  63.4138908  30.2323723
  30.7946644  69.4767990  84.4992218  31.4399853  68.9470825  84.0310364
  30.9056587  70.3587112  84.1440659  44.5691109   6.8160033  67.6408463
  44.9982948   6.8942065  66.7888412  45.0586090   6.1291494  68.0934601
  75.7157745  13.5402231  75.7033310  75.1192856  14.2840872  75.7875824
  76.3264465  13.6389675  76.4337769   1.5226058  69.6051102  20.5686302
   2.2859585  70.1522522  20.3838062   1.6169766  68.8557816  19.9805546
  77.4102554  14.9476089  23.2355156  77.9065399  14.9096088  22.4179001
  76.6989899  15.5624008  23.0556164  52.4178391  59.9612846  55.3761215
  53.0707512  59.4265709  54.9244347  52.3860207  60.7754822  54.8738289
  47.9753113  24.6574287  55.7032051  48.6690102  24.4359512  55.0819473
  47.3346825  25.1431923  55.1837311  39.7981224   9.7159510  79.9435959
  40.4479942   9.1193380  79.5721741  38.9769859   9.4715424  79.5167084
   0.5905471   7.1907549  49.3341866   0.1082381   7.8632064  48.8531265
   0.8791488   6.5749464  48.6605988  35.6699257  42.4974747  57.0282898
  35.0611305  43.2357254  57.0524368  35.9505730  42.4482536  56.1144791
  23.8453941  42.1250305  38.1697845  23.3222618  42.3765755  38.9308929
  24.0769863  42.9552078  37.7533684  76.5800323  67.7220688  60.7409668
  76.8505020  67.6746979  61.6579399  76.5349274  68.6594849  60.5526772
  22.5635586  53.9490128  25.9395142  21.7576237  53.4496765  25.8077469
  22.3424244  54.5856972  26.6191940  47.0178490  59.6808243  46.3976517
  46.6622887  58.8392296  46.6831894  46.3851814  60.0026512  45.7554779
  56.6459160  57.8792572   7.0357437  57.3827515  57.7854805   6.4319949
  55.9501305  58.2683105   6.5058837  34.6632271  17.8872643   6.8242164
  34.3620605  17.2181683   6.2095289  34.5085907  18.7159939   6.3708668
   7.0166650  40.3530312  78.9637146   7.7512403  40.9611511  79.0463257
   6.7888618  40.1286392  79.8659210  47.0606842  69.9780502  36.0777702
  46.9390106  70.1933594  35.1530685  47.9026718  70.3716812  36.3065605
  59.4548187  56.7571793  13.1762676  60.1645508  57.1770096  13.6623287
  59.0589905  56.1530304  13.8044024  73.5051346  27.6413479  55.2310791
  73.2489395  27.0901089  55.9704933  74.4248047  27.8499393  55.3951797
  75.2715530  23.2555656  15.5333242  74.7764740  22.7972546  16.2123547
  74.6288223  23.8265171  15.1124449  42.8767891  53.3841400  19.9108353
  43.3642006  52.8967361  19.2466812  42.1423683  52.8130836  20.1361294
  63.2875900  40.2054482  45.5422401  64.1670685  40.3523369  45.8903389
  62.7028656  40.4312897  46.2656517  51.8407860  36.1207886  55.9215088
  51.5396538  36.7357597  56.5903625  51.2798119  36.2952347  55.1657906
  70.9809494  35.6313133  20.4715881  70.3433762  34.9200134  20.5331345
  70.6319427  36.3158493  21.0424118  21.4175434  56.1650429  76.5024643
  20.9913273  56.3890381  75.6751862  20.6945553  56.0191803  77.1125793
  29.2881813  69.1547394  38.7238197  28.9915104  69.0135651  39.6228638
  28.8333435  69.9489365  38.4434395  54.5499802  62.6672363   3.6197548
  54.5527000  63.4309196   4.1968269  53.6298714  62.4081612   3.5696640
   2.5463448  48.0183601  88.1514435   2.4834268  48.9329300  88.4268188
   1.9459306  47.5514030  88.7325516  15.6585131  12.9762115  19.0506802
  15.2806129  12.6149178  18.2488766  16.6044998  12.9080830  18.9214554
  57.9887619  14.6821413  80.4110718  57.9099655  15.1272097  79.5673065
  57.0869179  14.4807596  80.6607742  58.6128311   3.1365693  47.0735397
  59.4120750   3.2099819  46.5519562  58.0018311   2.6618645  46.5100136
  76.6494980  70.7542191  38.3971062  76.2458649  70.2094116  39.0727577
  76.3096237  71.6334076  38.5636787  66.7916260  69.3487701  32.5614014
  66.8808060  70.1095734  33.1353874  67.4352341  69.4950256  31.8681374
  36.0931664  34.0183449  77.6178894  36.6014290  34.7230225  77.2162247
  35.9905472  34.2873497  78.5307617  26.3308640  39.6356354  47.7106514
  25.8058224  38.8612556  47.9128838  25.7017040  40.2672729  47.3621941
  68.8662491  47.2503815  60.7592125  68.3872452  46.4461632  60.5591660
  69.5903473  46.9655037  61.3166695  66.0604095  25.2545052  55.9157486
  66.0734787  26.1634350  55.6159019  65.6443863  24.7724800  55.2010422
  31.9051380   0.9541153  23.2805271  31.4220924   1.6328783  23.7518864
  31.5758171   0.1311375  23.6417580  82.5040665  26.6940193   8.9382124
  82.0197678  27.4175720   8.5405207  82.4688034  25.9947910   8.2854738
  81.0587921  15.3109503  84.7832794  81.1900024  14.5490942  85.3477173
  81.4177322  15.0462198  83.9363403  11.6200752  69.2738724  58.8580933
  11.4315996  69.1024399  57.9354248  12.3593760  68.7010727  59.0619774
  11.0650625  32.8722496  46.8382034  10.9596872  32.6371231  45.9163322
  11.9608278  32.6106110  47.0512352  67.9389572  49.6975403  24.6436577
  68.0188141  49.8498917  23.7020397  67.0307465  49.4208145  24.7653370
  47.0947075  38.2735100  76.3959198  46.9786606  37.6286736  75.6980972
  46.2724609  38.7633896  76.4085159  48.2944908   8.0513039  15.6754341
  47.4274216   8.1803627  16.0598431  48.2060776   7.2590275  15.1456099
  31.9826469  52.3196564  14.6813927  32.1835938  53.0529366  15.2629042
  31.8766499  52.7203064  13.8185606  15.6427393  24.7262363  82.7746735
  15.8927813  24.9361782  81.8748779  15.1903229  25.5099754  83.0866089
  80.3659897  60.1147461  31.7821274  80.4357681  60.0269585  30.8315182
  80.2773514  59.2161522  32.0997772   9.8197393  52.3102264  34.2363930
   9.3787565  51.5252266  33.9115219  10.6265259  52.3611832  33.7238197
  61.0980644  19.5851917  39.2590370  61.3084068  20.3886471  38.7831726
  60.3904266  19.1855640  38.7532959  10.5807648  41.0757599  76.8600235
  10.2397680  40.1862450  76.9533844  10.3713408  41.3191376  75.9582825
  37.5395622  62.8770905  55.3657951  37.2103882  62.0102692  55.1281052
  36.9933548  63.1465073  56.1042442  82.3880615  57.6354179  24.2918911
  82.7363815  57.5404778  23.4053879  81.9542694  58.4886780  24.2886791
  41.1789780   0.5157872  71.5926819  40.9554443   1.4426832  71.5082550
  42.1240540   0.4828606  71.4444427  44.6076660  60.4094658  18.5500813
  44.2880707  59.5149765  18.4318352  44.7341003  60.7382545  17.6600552
  67.4288101  35.6816750  55.8725052  67.5421219  36.5115776  56.3358154
  68.2988052  35.4784546  55.5289230  22.8989754  59.1479454  85.7317429
  23.1310825  58.5175705  85.0498428  23.7323093  59.5456810  85.9839172
  26.5282516  45.1876488  44.9996948  26.0974236  46.0229454  45.1810722
  27.4053669  45.2850876  45.3703842  77.0939636  50.4369583  25.2614994
  77.4118042  51.2858429  24.9539242  77.5855484  50.2745323  26.0666008
   8.6862869  28.7000141  37.2919197   8.3936415  29.5664387  37.5745811
   7.8822613  28.2463493  37.0390091  53.8663406   1.8249103  31.6705704
  53.3421478   1.3661817  31.0140476  54.0269661   1.1695206  32.3494644
  61.2487259  25.3027515  69.7827682  61.8499413  25.4197311  69.0471802
  61.0883598  26.1899014  70.1044464   3.8670635  34.0962372  33.7360420
   4.5285487  33.7040405  33.1660843   3.1034174  34.2139053  33.1710358
   9.2252550  38.7476654  35.1051140   8.8914614  39.5395355  34.6835098
   9.6310244  39.0598030  35.9139137  17.6741962  43.4544411   3.0919268
  18.5781670  43.5904274   2.8080630  17.3639164  42.7214012   2.5603149
  58.3884621  29.0746288  28.4444427  57.8914223  29.0382137  29.2616673
  59.0219994  29.7791309  28.5806198  52.7376251   8.0199928  47.2320023
  52.2095757   8.6847677  46.7898827  52.4062805   8.0091267  48.1299591
   6.9769588  16.5953197  88.8699112   6.5226684  17.1326199  88.2209396
   6.3946376  16.5938511  89.6296005  11.8146906  11.4716330  88.5934525
  11.9333496  11.2321835  87.6743164  10.8661070  11.5378361  88.7031708
  34.4261894  53.6396904  47.8058510  34.2114792  52.7166710  47.9406433
  34.5650673  53.9845772  48.6878929  21.0474491  44.2148781  19.5061283
  20.1872597  44.5600319  19.2670174  21.6672497  44.8616524  19.1688366
  64.2937393  70.8113480  40.9928856  63.9321365  71.6917191  40.8908272
  63.5868225  70.2284546  40.7158699  38.0222931  57.4429817  65.4126892
  38.5664749  58.0355415  65.9313202  38.1364441  56.5880203  65.8277130
  84.2809677  64.0522308  50.0309067  84.5972977  64.5552979  49.2805099
  83.5979462  64.6009750  50.4163780  25.0786171  60.2802544  87.1536789
  25.4631252  60.8111916  86.4561920  24.5128288  60.8864136  87.6318817
  18.4065876  70.8364944  14.2147808  18.8286972  71.4522629  13.6157131
  18.2866459  71.3336029  15.0239344  50.0478439   1.0095404   5.6299510
  49.3568382   0.3698411   5.8017793  50.6891212   0.8619359   6.3250842
  64.4034119  58.5216484  15.8284044  65.1482697  58.8436852  16.3360558
  64.7883148  58.2117920  15.0086040  59.8658295   5.7223067  87.2849197
  59.4514618   6.5848460  87.3084946  59.1657944   5.1275654  87.0157318
  38.0485840  30.8999252   5.9623981  38.8467331  31.3065739   5.6250119
  38.2103882  30.7965889   6.9001470  27.7363338  57.7750854  36.0000496
  27.7072392  58.2533302  35.1713943  27.0809402  58.2061996  36.5485344
  84.4329987  39.0605736  83.8625259  84.9486313  38.5687561  84.5016479
  84.6261139  38.6402054  83.0245361  49.4629135  14.8752403  87.9030304
  49.6440048  14.6464891  88.8146820  48.8791275  14.1826010  87.5937195
  75.6974792  22.6244926  21.6417351  75.8301086  22.6915894  20.6961460
  74.9200897  23.1561108  21.8128719  25.4774017  17.8669872  66.4580307
  24.8786659  17.8506603  67.2046814  25.3278980  17.0329037  66.0128555
  28.6911125  46.3399849  41.9776268  28.6164837  46.5397110  41.0444717
  27.9770164  46.8299866  42.3852959  65.7451324  40.4515343  46.7835426
  66.1326675  41.2996445  46.9997864  65.8122864  39.9442673  47.5924950
  69.3486176  62.0655251  85.3378830  68.6452255  61.8766899  84.7167435
  68.9385757  61.9769058  86.1982574   2.6830411  44.7142944  64.4115753
   2.8393517  43.8695068  64.8336334   2.1003125  44.5121613  63.6795959
  55.3849487  45.4527321  20.9451065  55.8668365  45.4020729  21.7706051
  55.2491951  44.5400238  20.6906185  11.7780075  34.4724007  33.4293365
  12.6675158  34.1298523  33.3417664  11.8949528  35.3564034  33.7773209
   7.7475228  46.5877533  11.7190266   6.9599533  46.8220329  11.2280273
   8.3104820  47.3589020  11.6509085  14.9757166  66.5342789  26.0113564
  15.5743608  67.2811813  26.0118504  14.6853075  66.4607010  25.1022472
  76.7207260  10.8574076  46.7540092  77.4799957  11.3880548  46.5128632
  76.5074921  10.3691120  45.9588165  58.4250679  38.3561974  86.2170258
  57.9062004  38.7647667  86.9098969  59.1980934  38.9147949  86.1356354
   2.0715950  70.4220276  81.4853287   1.8807511  71.2464447  81.0379562
   1.9713989  70.6253891  82.4152985  31.6735821  62.9746170  16.2069664
  31.7952251  62.0722122  15.9118490  32.1893806  63.0352478  17.0110226
  74.0003357  12.3445024  88.7923279  74.4415970  12.7096205  88.0253754
  74.2749863  11.4277792  88.8128433  53.4699554  12.5173750  18.4605522
  53.2234077  13.2000599  19.0845604  53.3369446  11.6979475  18.9370785
  25.9283295  69.1240768  40.4338303  26.7582321  69.3194046  40.8689651
  26.1645985  68.9917603  39.5157318  64.0136719  14.1276016  40.2619438
  63.4443626  13.4689274  40.6597672  64.6026230  14.3931942  40.9682236
  84.4611359  20.6419449  86.5028992  84.0001221  20.0772381  87.1232224
  84.9277039  21.2712383  87.0529404  33.8445053  40.2287025  11.8707113
  34.3324203  40.7375221  12.5182209  34.4244347  40.1898460  11.1101856
  75.1896439  24.6138744  63.4658165  74.6668167  25.3067245  63.8693619
  76.0948334  24.9096565  63.5626221  53.2152824  70.3057861   2.3989632
  52.2726898  70.1442184   2.4395823  53.2988243  71.2563400   2.4744484
  76.4285278  65.9613419  58.3007698  75.9942551  65.1820297  58.6476250
  76.5911865  66.5072632  59.0700188  53.9438591  45.1796532   4.3623691
  53.1269798  44.9572487   3.9157381  53.9662857  44.5996284   5.1234879
  66.5461960  23.9213734  81.9750443  67.2061844  23.9730034  82.6664124
  67.0206680  24.1434116  81.1739197  60.1361504  14.2632036  33.0631638
  60.7591972  14.9895926  33.0430222  59.7581635  14.2961674  33.9419556
  66.7216110  35.9599915  59.6791191  66.0986023  36.5478897  60.1062851
  66.2189865  35.5480156  58.9763527  52.9565620  23.1614895  15.7643127
  52.2466164  22.5275517  15.6626816  53.4474792  23.1047802  14.9445457
  17.0879154  19.2497482  19.5373230  17.1325378  19.0229015  20.4661827
  17.9673347  19.0706139  19.2045078  54.8968658  13.8106499  41.9801292
  55.5298691  13.4494495  42.6006699  54.1168823  13.9839745  42.5072136
  59.7999535  57.9207230   5.9885163  60.2868271  57.8588066   5.1667190
  59.5864601  58.8501587   6.0709777  43.8857765  11.8655863  37.1296463
  44.7959290  12.1291761  37.2652130  43.5770531  12.4274092  36.4188194
  40.4109230  15.1969690   6.1411700  39.9244270  14.5011177   6.5831475
  40.1790276  15.9926958   6.6199965  69.6682587  61.7919540  40.8127747
  69.2673569  62.2403374  40.0681496  70.2971802  62.4232826  41.1622162
   6.6178923  13.2127914  58.9631653   6.9514503  12.5085592  59.5190659
   5.6999035  12.9860907  58.8143845  73.9876099  47.6765480   9.2380390
  73.2513885  48.2511024   9.0280466  74.3977432  47.4940681   8.3926239
  74.2912140  18.2164097  40.7334976  74.2634354  18.3405991  41.6822014
  75.1765671  17.8968124  40.5596046  83.8466187  17.6412182   3.0427525
  84.3451309  17.1997547   3.7303774  83.5119934  16.9305878   2.4957073
  42.9460449  67.2065506  30.8607807  42.4136200  67.1580048  30.0668049
  42.9888191  68.1410141  31.0637150  61.0068474  14.8333435  24.9483700
  60.4519730  14.6160946  25.6974697  60.5297966  15.5247774  24.4894848
  54.3487587  40.2335167  55.5150375  54.0392303  40.5781670  54.6773949
  54.2097359  39.2886124  55.4513206  81.2028503  25.2545547  22.8710041
  82.0075760  24.7364693  22.8559628  80.6395187  24.8037949  23.5000572
  84.2284775  43.2460518  25.4317932  83.6536713  43.0177155  24.7012558
  85.1130142  43.1641388  25.0752430  71.3209915  56.9510765  12.6365862
  71.2253876  56.0630989  12.2922192  70.7282410  57.4801140  12.1027250
  61.8463821  65.4406967  48.9584961  61.4408188  66.2502136  48.6479797
  61.8365402  64.8605423  48.1972084  73.7228241  32.5941315  33.0352707
  74.6376419  32.8619957  32.9481659  73.3865280  32.5953178  32.1390915
   0.4284620  25.3145161   0.8591660  -0.1924906  24.9350796   1.4810004
   0.8584443  24.5588551   0.4587595  48.2172508  20.0417118  15.5760851
  48.1003265  20.3946247  16.4581356  48.6684608  19.2081394  15.7094955
  18.1170330   9.7572031  69.7220230  18.1587696   9.0122976  69.1223526
  17.2032852  10.0404043  69.6889496  42.2843742  33.7725792  27.5259209
  41.4044266  33.7902412  27.9022293  42.1593895  33.4312172  26.6404381
   4.1782327  30.6676044  85.6594696   5.0531983  30.5257206  85.2981720
   3.5853806  30.4814892  84.9313812  32.7312431  41.6865044  78.8615570
  32.9600105  42.0133781  77.9914703  33.0892639  40.7991142  78.8858032
  14.3534231  41.8458061  51.6708794  14.4043293  41.3690529  52.4993362
  14.1208773  41.1790085  51.0247116  22.4405899  42.6692467  72.7320023
  23.0779018  42.2963715  73.3411255  21.5917645  42.5031281  73.1420441
  55.4958076  38.5240250   1.7841326  54.9585152  37.7464104   1.9353286
  56.3788643  38.2586632   2.0410883  72.6378784  21.2975063  46.5277443
  72.1133728  20.8007336  47.1557083  72.0680084  21.3966236  45.7650795
  36.8904877   2.1820984  85.7868729  36.2300949   2.1536305  86.4791870
  36.4373627   2.5724959  85.0395432  72.3398590  37.1188698  53.9034348
  72.6292343  36.3114777  54.3284225  73.0911713  37.3961143  53.3791275
  22.4983978  10.8800478   0.3522059  22.1863689  11.6894178   0.7569153
  21.7031498  10.3750582   0.1825095  75.9075699   6.2250371   8.3672686
  75.4940414   6.5185461   9.1791039  76.3742905   5.4258304   8.6115494
  46.4349442  49.8151093  69.7198868  45.5583229  49.5199814  69.4735870
  46.2913551  50.6558685  70.1543198  69.8780899  11.3911476  74.3392944
  69.7694626  12.1108255  74.9609833  69.7379074  11.7923365  73.4816055
  44.5676117  39.0862427  37.0939713  43.6621628  39.3600311  36.9475555
  45.0880890  39.6819000  36.5549736   3.8368115  55.6894302  75.9644699
   3.4767289  55.7500000  76.8492889   3.2558398  56.2324982  75.4317627
  44.2449341  48.7746124   8.9670095  45.1513214  48.9242058   8.6980858
  43.7621803  49.5181847   8.6060686  52.6643219  46.0653648  36.6664047
  52.8513718  46.9138336  36.2647209  51.8349228  45.7923470  36.2742462
  12.9771137  32.8187943  58.6397209  13.3312712  33.3528938  57.9287071
  13.0186310  31.9215546  58.3088570   6.3359613  26.4469147  85.5747070
   5.4256516  26.5070782  85.8644409   6.4852562  25.5100899  85.4470291
  13.6907740  30.1964188   6.6968708  13.2635469  29.9512005   7.5175881
  13.7505922  31.1510296   6.7338910  21.1967487  36.8053970  67.8526077
  21.4972954  37.6245651  68.2461319  21.9827347  36.2614212  67.8020859
  55.7487068  10.4528646  36.3376427  56.4197121  11.0321960  36.6987038
  54.9725189  11.0070257  36.2560043  57.0953751   2.7610912  18.2904434
  57.8498993   3.1024439  17.8104420  57.0971260   3.2460511  19.1156979
  58.4353294  67.9205475  44.3446617  58.6449051  66.9890976  44.2759590
  57.5878296  68.0081711  43.9084244  15.9892778  25.3658237  79.8906021
  15.1937637  25.1387825  79.4091034  15.8197622  26.2434807  80.2329712
  62.0378265  69.2541885  40.6466827  61.9762611  69.3650360  39.6979179
  61.1682320  69.4870682  40.9719620  63.0870590  52.7460480  77.1937408
  63.5010452  53.4297714  77.7203979  63.5720558  52.7527237  76.3685303
  10.9456186  12.8455715  15.9390249  11.1593332  12.0158749  16.3658295
  10.2169275  12.6340284  15.3555107  44.6142540   4.7815704  19.5144215
  45.4894867   5.0443115  19.7993126  44.2380486   5.5751019  19.1336193
  64.5706177  67.0678864  41.0112801  63.6480675  66.8224945  41.0814018
  64.5691528  67.8498917  40.4592819  16.9445152  43.0467949  46.9901581
  17.6786995  42.7381973  46.4591484  17.3008728  43.7836990  47.4863548
  86.7663651   5.8962865  87.8725586  86.7294998   6.8160362  87.6100082
  86.0418472   5.7941594  88.4897156  69.4246063  36.6562424  60.3157616
  70.0030136  36.1475983  59.7474670  68.5496216  36.5165558  59.9536514
   3.7828958  23.4721699   3.3434918   3.4343824  22.9496861   2.6211481
   4.7127199  23.2470875   3.3750648  75.0878677  22.6695251   0.5979006
  74.4376831  21.9752769   0.4906134  74.5769730  23.4789677   0.5930545
  43.7389221  36.9558716   9.6750708  44.1889687  37.3889046  10.4004469
  43.8266983  37.5642891   8.9413433   8.4136839  18.7830353  78.4029922
   8.6497879  18.3408051  77.5875626   7.6921964  19.3634415  78.1604691
  52.8507881   6.9412384  13.4834642  53.3546944   6.1334577  13.3844604
  53.1743584   7.5122948  12.7867374  39.9672356  22.4822178  66.2594147
  39.3883705  21.7892952  65.9415970  39.7557220  23.2399044  65.7140656
  60.6532555  43.7433014  10.7928896  61.0934486  43.9334602   9.9644566
  60.4947510  44.6030235  11.1827478  19.3432541  54.4804649  78.4733582
  19.0524769  55.0116730  79.2146378  19.1776314  53.5779457  78.7458649
  21.0527287  44.9578323   6.0858226  20.3282280  45.5568504   6.2661200
  21.7680950  45.5262146   5.8004746  27.8907394  55.5484085  59.9896317
  27.0235119  55.4252357  60.3756027  27.8462315  56.4074669  59.5697899
  35.3323097  45.4439774   5.0842581  35.5626907  44.5419464   5.3067236
  35.6376991  45.9601250   5.8302870  42.1401367  14.3315620  81.7959976
  41.8836479  15.1577950  81.3863831  43.0969086  14.3572674  81.8084412
  24.0758991  14.4825745   7.5212798  24.7497730  14.9489546   7.0266919
  23.3931484  15.1364918   7.6711960  23.8527412  56.4437027  72.9141083
  23.1326675  55.9920273  72.4739761  24.1312866  57.1146088  72.2907791
  32.9118271  66.1629715  51.8687477  33.8198967  66.4275284  51.7216034
  32.9594994  65.2198868  52.0254097  12.9954634  70.5375900  47.3771324
  13.7142467  70.3581314  47.9832497  12.5519724  71.2993317  47.7503471
  82.2562561  60.7604713  24.3627434  83.0370407  60.2128830  24.4449234
  81.9115829  60.8213997  25.2536545  45.9276009  51.6044579   4.9779487
  46.5327797  52.3404808   5.0688143  45.8943748  51.2125587   5.8506117
  61.1124344  12.0363569  87.4985275  61.5106544  11.5689859  88.2328415
  60.2653618  11.6085262  87.3733749  64.8074265   8.1985636  51.8923988
  65.4776001   7.5394883  52.0732994  64.2907028   7.8250318  51.1784668
  71.7980804   6.8178277  55.7090759  72.4423370   7.2015538  56.3039856
  72.2887878   6.1597571  55.2167587   0.6537758   0.1139444  83.6813660
   0.2973167   0.9806600  83.8762360  -0.0836594  -0.4826933  83.8096085
  68.0786667  17.3782825  69.7213593  67.3782959  17.4751720  69.0761261
  68.2164612  18.2629337  70.0599365  82.8289566  49.2252083  53.8387985
  82.7341309  49.6033859  52.9646034  82.0074692  48.7569618  53.9875946
  86.8114319  36.9350128  79.2731323  86.5311966  37.6781082  79.8074646
  86.8067017  36.1913643  79.8757935  49.3937950  68.8577728  27.8052177
  49.4356995  68.7174911  26.8592796  49.8058624  68.0799026  28.1811924
  84.8787079   0.5145800  38.0164413  84.9757919  -0.4123233  37.7981377
  85.6155777   0.9419305  37.5798264   7.7099557  50.7333641   4.7944841
   7.4701447  51.0684814   3.9305294   6.8735051  50.6006546   5.2405457
  38.7559319  68.3197250  10.3279543  39.4959679  67.7564240  10.1015205
  38.0171204  67.9506226   9.8440685  50.9210548  36.1608124  80.8876953
  50.4713898  35.5293236  80.3262177  51.6609802  36.4645195  80.3618546
  41.7459946  47.0290489  68.2213745  40.8192749  47.0983009  68.4507751
  42.0226059  46.1911430  68.5923615  53.3747025  19.4714947   6.7289925
  52.7285080  18.7664394   6.6894741  54.1409416  19.1197891   6.2757697
  86.7593765  26.6960487  84.2369919  87.0029678  26.1972961  85.0168304
  85.8024139  26.6761742  84.2292099  83.7941589  21.5693607  69.7878189
  83.7502899  20.6351681  69.9917603  83.9659729  21.6012478  68.8467026
  84.8075027  64.8799973  34.6553116  85.2484665  64.5506134  33.8721886
  84.3203049  65.6459045  34.3515816  50.4821663  27.4675980  70.9249115
  51.1695061  28.0953522  71.1478958  50.8975945  26.6112995  71.0269165
  57.3863792  52.5919762  75.2602768  58.0068092  51.8992462  75.4870529
  56.6657829  52.4805450  75.8804092  77.2111206  36.3785095  27.3701038
  77.0677795  35.7895126  28.1108913  77.7945404  35.8926430  26.7871971
  51.8766899  61.3686523   8.9134932  51.1422577  60.8700714   9.2716274
  52.3748856  61.6466980   9.6820793  62.3103676  45.1886520  82.6605911
  62.4038239  44.7538719  81.8129654  62.8195992  45.9945030  82.5738525
  73.3349380  44.5602608   2.5125346  72.6862411  45.1600075   2.8809390
  73.3240128  44.7432671   1.5730559  12.7323704   7.7590804   9.5274525
  12.8754578   6.9343081   9.0632238  13.6003933   8.0096769   9.8436308
  77.6536484  65.0263443  47.4822426  78.0142899  64.1589050  47.6658707
  78.4183273  65.5661926  47.2821236  34.4490547  22.5138969  67.6551971
  35.1683121  21.9161568  67.4512177  34.8441353  23.3850269  67.6194839
  68.6493378  14.6393080  78.0025482  69.3760452  15.2476158  78.1370544
  67.9629822  14.9520502  78.5919037  23.8785019  45.8708229  62.4162636
  24.3807316  45.3910408  61.7576256  23.9910202  46.7914352  62.1795311
   7.9480085  40.7733040  69.8048706   7.1664963  40.6929893  69.2580414
   7.6114907  41.0003738  70.6717224  10.9026833  43.4498825  20.4313354
   9.9559917  43.5362244  20.5433693  11.1612825  42.7922363  21.0769806
  44.5581551  41.6267776  26.1250839  44.2225533  41.6447716  25.2288246
  43.8105354  41.3507538  26.6552811  55.9778481  10.1611223  70.2755966
  56.2219391  10.7838192  69.5908356  56.6982193  10.2022305  70.9045715
  85.6473923   7.6689329  29.4159164  85.8399353   7.6990256  28.4787655
  86.5017929   7.7547035  29.8388500  85.4675598  41.8816185  45.8816490
  85.7209702  42.1810799  46.7547684  86.0213089  42.3857460  45.2854500
  29.2317257  44.0509949  85.7986069  30.1118660  44.2823372  85.5018463
  29.3313789  43.8828812  86.7356415  62.1898956  35.8177910   9.5792522
  62.0592995  36.7622871   9.4949760  63.1372910  35.7139816   9.6681061
  30.5885773  32.8714752  10.3499374  30.9232483  32.2039986   9.7510204
  30.9720402  32.6465797  11.1976452  67.7914124  46.4218407  86.4755859
  66.9947586  46.8403091  86.8018570  67.7715836  45.5422554  86.8526306
  21.7857609  61.6630516  84.1912689  22.4074841  62.3471489  83.9428711
  22.3346386  60.9337883  84.4796066  44.6662254  50.4726562  48.9915848
  44.4863434  49.5744057  48.7140541  45.1299210  50.8637962  48.2511597
  72.4688110  54.2772141  72.6362381  72.7837067  54.8079491  71.9045334
  71.9354324  53.5963478  72.2261581  50.5828133  35.5126190  70.8854752
  49.9174995  35.7713890  71.5231476  51.0952072  34.8396835  71.3336258
   4.0754170  64.5905914  75.9293518   4.0839543  64.3309860  75.0080643
   4.8558846  65.1351700  76.0319748  53.5030441  21.7411079  32.3863907
  53.9648628  22.4537945  32.8280144  53.4554520  22.0173912  31.4711647
  81.9269409  64.3743286  19.8572884  82.6297607  63.7403107  19.9997311
  82.3777237  65.1761093  19.5923748  79.1838760  52.2075272  63.1707344
  78.4530029  52.7383804  62.8541069  79.2942886  52.4723434  64.0839233
  51.4278336  41.4252014  57.8285561  50.7418480  40.9563637  57.3533173
  50.9531593  42.0140572  58.4152107  33.4314499  38.6581650   1.8792554
  32.9295959  38.0255890   2.3932841  33.8259201  39.2374306   2.5312328
  26.7583752  28.9861698   0.7780744  26.5857315  28.0618019   0.5992826
  26.5059910  29.4371643  -0.0276176  49.4912224   3.1233678  62.7793236
  49.4949760   2.1783922  62.9317665  49.1166000   3.2233095  61.9041672
  54.6396332   0.5876353  34.0990334  53.9204063   1.0924404  34.4786568
  55.4112396   0.8588560  34.5963249  59.9371300   0.8933278  55.2256813
  60.5692215   1.4011003  55.7344666  59.9457092   1.2995564  54.3590012
  22.2548809   5.6562142  18.2790833  22.7609787   5.6069717  19.0900536
  22.3521214   6.5637784  17.9908066  25.3941975  37.4336319  84.2726822
  25.2981720  37.9694214  83.4853210  26.3391171  37.3906212  84.4193497
  41.8718414  49.9716682  29.0053253  42.1422539  50.4950066  28.2508545
  42.6415367  49.9559250  29.5741425  64.7309265  29.2704773  63.4753227
  64.3000565  29.2076225  62.6228981  64.0246277  29.4822426  64.0856705
  64.7609558  32.9308243  73.2158661  63.8138504  32.9870300  73.0891190
  64.9267731  33.4380417  74.0105209  19.6660748  64.9461441  14.2847147
  18.8497238  64.4945602  14.4989052  19.4298420  65.5448074  13.5761747
  62.7059937  28.1283092  85.1509552  62.4192390  27.2905960  85.5146027
  63.5271645  28.3178997  85.6047897  61.3903618  24.2507343  62.1000977
  61.8523445  24.8093624  61.4750061  61.9313583  23.4636097  62.1632614
  50.3376541  47.7889442  71.9190979  50.8402672  48.5939941  71.7945786
  49.4400101  48.0872574  72.0656586  21.8996506  29.8783150  24.0487823
  21.8662758  30.8346786  24.0267086  22.2091961  29.6292973  23.1779194
  78.0464554  40.1185379  26.3497200  77.2801971  39.8127785  25.8643436
  78.7733688  39.6043282  25.9984112  81.6953583   5.0132265  75.9295273
  81.9895782   5.8586373  76.2685699  81.4010010   5.2018356  75.0384521
  79.5877533  46.4071579  26.5046692  79.2466965  46.7208138  25.6670952
  79.8170471  45.4921150  26.3423519  61.7664032  49.2473679  69.4352036
  62.5416756  49.6613808  69.8143845  61.0861053  49.3593979  70.0991821
  79.0516891  30.7518597   5.7460260  78.7585373  30.5851574   4.8502011
  79.2416306  29.8835907   6.1013637  48.3159409  17.8016281  83.6972733
  48.3743629  17.8483887  84.6515427  47.9939194  18.6638794  83.4344864
  23.8791714   8.0634336  57.3179779  24.0307655   7.4625783  58.0475121
  24.7278137   8.4812727  57.1715164  27.2290726   5.9052362  82.7153320
  27.1074924   6.7439990  83.1602249  27.7742615   6.1133733  81.9565964
  19.5587559  18.9957352  88.4381332  20.0414696  18.9737778  87.6118546
  18.6768913  18.7030430  88.2081833  41.8433380  63.3322067  16.5505562
  41.4968719  62.4847870  16.8299732  41.1992149  63.9685059  16.8611469
  62.6818161  70.5576477   1.8328804  62.7830582  71.3096085   1.2493258
  63.3771515  69.9548111   1.5695745   1.2380829   4.5419745  10.9712200
   0.3340068   4.8173795  11.1229782   1.3412868   4.5724220  10.0200872
  77.4842529  45.1067543  28.0444183  78.4189148  45.3064690  27.9919090
  77.1212616  45.4420700  27.2246437   0.9939403  46.9647827  45.8756256
   0.7119985  47.6115112  46.5225258   1.7379171  47.3753662  45.4350014
  38.3801842  19.6750755  12.8162203  38.0834236  20.1818886  12.0603714
  37.5746651  19.3464870  13.2154703  83.8762131  21.2099361  36.1689377
  83.4712906  21.9519367  35.7198181  83.3099213  20.4665432  35.9617844
  18.2819462  44.6287880  64.6187363  17.8297939  43.8216629  64.3731003
  19.1220245  44.5810928  64.1624222  52.9054794  59.1510735  12.1972008
  52.0162697  59.2476196  12.5381145  52.8995247  58.3054962  11.7486506
   1.5597749  31.6712933  30.1168499   1.4746853  31.4045620  29.2015095
   0.7971575  31.2878017  30.5499573   5.9848871  25.1665401  59.8379974
   6.5986385  25.6950684  60.3480949   5.9042230  25.6306458  59.0047340
  32.6598473  67.6019058  26.3137779  33.3659134  67.8555222  26.9082394
  32.2806778  66.8187103  26.7126064  67.0977325  26.7330170  29.0442886
  67.6719513  26.4806232  28.3212376  67.4029846  27.6034756  29.2999325
  51.5243988  35.1320190  60.0305367  52.1941643  35.7774658  60.2564697
  50.7086143  35.6321144  60.0054703   1.3176911  43.5176849  60.0154114
   1.5105938  43.0200386  59.2208214   1.1075615  44.3973656  59.7019844
  59.2365570  41.2716141  11.2280140  59.7107277  42.0887947  11.0743628
  58.8222809  41.0735321  10.3881502  63.9788780  63.9042511  61.7435074
  63.7517586  64.5673370  61.0916138  63.1831627  63.7986031  62.2649574
  85.9110489  35.1319160  64.5055161  85.7969666  34.2579041  64.8787766
  86.7875137  35.3983650  64.7830963  51.4254684  25.5557213   6.0686073
  51.4028625  26.4451828   6.4215608  50.6601715  25.1266575   6.4513040
   8.2748919   0.6753439  81.2351913   7.6538429   0.0356948  81.5835876
   8.3291264   0.4724504  80.3013153  73.3800278  25.4485474  34.4592133
  72.5390472  25.5016232  34.0051575  73.4182968  24.5505028  34.7882767
  21.1776390  25.2552223  59.7266350  20.8812656  26.1571960  59.6048279
  21.3882885  24.9510479  58.8438339  34.6769218  45.3349800  57.2674026
  33.9856148  45.2934151  57.9281616  35.4786110  45.4844437  57.7685852
  61.3989220  40.1473083   8.9531021  61.8206291  39.8901558   9.7730217
  61.0676193  39.3274002   8.5867386  13.7539787  50.2600327   6.2010455
  13.3823156  50.7844276   6.9103479  13.0320444  50.1476135   5.5826564
  61.6573486  49.2000313  79.9996490  61.1667786  49.1807747  79.1779404
  62.3086090  48.5047989  79.9061432  48.9344749   7.6664519  79.5789795
  48.8907127   8.6225758  79.5909576  48.4458618   7.4141173  78.7955170
  74.9166565  23.3829460  74.1297379  75.4854279  23.3062649  74.8957977
  74.0369492  23.2130260  74.4666061  72.6375427  58.4588509  49.8771210
  71.7739029  58.8275452  49.6915703  72.5216370  57.5141869  49.7750893
  21.8358231  58.8558083  27.1337414  20.9258041  58.5744667  27.2283115
  22.2427769  58.6360703  27.9717979   1.0780264  23.2527161  56.4831696
   0.4803448  23.2990017  57.2294044   1.5906428  24.0593224  56.5364876
  82.6378403   8.5786572  45.8539581  81.9817810   8.5424643  46.5500221
  83.3095474   7.9529629  46.1251602  73.4892120  40.4993439  46.3085518
  72.8743057  40.2666779  45.6128616  73.9280396  39.6767464  46.5253334
  82.0863724  27.4609032  82.4825745  81.6690216  27.8831940  83.2333908
  81.3936005  26.9285488  82.0915604  78.9046936  27.2863636  56.4094696
  78.6007462  26.5136967  56.8857422  79.1528015  27.9075298  57.0941772
  36.5887947  42.1134529  67.8292999  36.0585632  41.3192482  67.7635193
  37.4750595  41.7960739  68.0026093  51.5258179  65.0681152  43.4142265
  52.0107727  64.5406189  44.0488853  51.1777115  64.4315262  42.7898788
  67.8159866  46.6853142  72.8477402  68.6808853  46.9219246  73.1827011
  67.7567215  45.7397537  72.9842606   4.9944291  60.7019272  45.2092018
   4.1048841  60.9293976  45.4797554   4.9323468  59.7902489  44.9242058
  31.9420643  70.7211685  70.1575165  31.6476994  70.1258087  70.8468094
  31.3997097  71.5021362  70.2678528   5.8558016   4.5202403  29.2821045
   5.8070917   5.4712076  29.3796768   5.4551277   4.3460207  28.4304352
  81.9204102  63.7380829  43.4977531  82.6209335  64.0362625  42.9175949
  81.1661453  64.2769318  43.2591057  70.3364639  54.4137878   6.6385093
  70.6683044  54.7503052   5.8061218  69.8927155  53.5978279   6.4071522
  29.8961468  58.0707550  79.7845993  30.3402042  58.9184151  79.7618179
  29.5887966  57.9855576  80.6871033  24.5039825  35.6935501  89.1817398
  24.2445393  35.9324608  88.2918854  25.2112713  36.3017273  89.3964462
  11.2547626  67.9749222  41.7663841  10.4349308  68.0355148  41.2760429
  11.9202271  67.8032990  41.1000977  28.7472534  63.3865280  41.5576057
  28.0898266  63.5042648  42.2432861  28.8078880  62.4379997  41.4442558
  34.8976326  19.6733818  61.4585686  35.5703087  20.2533398  61.1016502
  35.1941681  18.7927475  61.2288246  59.1345825  45.1271248  37.8160858
  58.4441833  45.3445625  38.4424248  59.7473412  45.8604431  37.8709068
   6.4603457  39.0239944  85.7729111   6.5245175  38.4017181  85.0484238
   7.3510947  39.0818977  86.1185226  50.1181374  27.6165333  44.4867058
  49.3135490  27.3813133  44.0245972  50.6589050  26.8279495  44.4426842
  22.3156471  66.3820724  45.2526817  22.4698429  65.5662994  44.7762756
  22.1045742  67.0208588  44.5717773  31.1289864  60.0071716  70.3876953
  31.1148491  60.9357758  70.6194839  30.2247505  59.8068771  70.1458817
  64.8718872  54.4405975  49.9030190  65.3664551  54.7321243  50.6689453
  65.3818207  53.7103653  49.5523643   0.5551999  70.0932312  74.5763016
   0.1137336  69.9452667  75.4126282   0.9990181  70.9342957  74.6852570
  75.8258667  69.3400879  88.0234528  76.4025269  68.9396057  87.3728333
  76.4155502  69.8285904  88.5977936  44.0515289   7.6386342  22.1907692
  44.9943771   7.6101565  22.3534393  43.6659203   7.1775708  22.9357243
   2.3388212  14.8691826  29.4285316   1.6411004  14.6468067  30.0449467
   2.6636388  14.0235786  29.1192112  45.9579964  34.1814117  80.4121704
  45.9204941  33.3266678  80.8414001  46.6165657  34.6691246  80.9067917
  20.2683372  36.8486023  19.7508812  19.4766178  36.5689201  19.2913284
  19.9812660  37.5777550  20.3005714  11.7012539  68.7428207  63.5372314
  11.0616922  69.4153061  63.7716522  11.1747580  68.0207520  63.1942177
  75.2847672   2.9020154  83.1690750  75.5510483   3.5684340  82.5356598
  75.4457703   2.0702400  82.7235870  44.5445290   4.4549675  35.2227364
  43.6190147   4.2158675  35.1728439  44.5426750   5.3503904  35.5610352
  31.6861649  46.5671768  61.9527855  32.1691322  47.3283463  61.6309166
  30.8261318  46.9127655  62.1918335  74.7132797  14.1452847  53.2217560
  73.9432602  13.5780191  53.2605896  75.3975067  13.6515951  53.6737938
  36.4471092  60.4741707  70.0147934  35.5711212  60.5330658  70.3961182
  37.0396843  60.5597038  70.7616425  68.1989746  25.5130539  54.2368126
  68.1469040  25.8088188  53.3279419  67.5665970  24.7966251  54.2921486
  21.7535419   3.0950048  10.5668344  20.9024200   3.0395789  10.1323814
  22.3583584   3.3638759   9.8753595  17.0857983  70.6080170   6.2826529
  17.6516247  70.1665192   5.6492910  17.6410275  70.7353439   7.0518999
  47.1285095  10.6477613  25.7512131  46.2815819  10.6751757  26.1963978
  47.3944740  11.5649357  25.6857338  62.2610321  26.0448132   4.5835757
  61.6408768  25.9080791   5.2997761  61.8583679  25.6101284   3.8318157
  47.7607155  61.8953094   9.7352266  48.2523727  62.2573433  10.4724064
  48.3075981  61.1798019   9.4108810  71.6704865  33.5453033  62.1318626
  72.1152039  32.7034035  62.0335159  70.7876663  33.3172607  62.4231606
  76.1949921  42.7232704  25.7069073  77.0733414  42.4135818  25.9278698
  76.2338181  43.6700897  25.8420334  47.8361816  70.3752518  30.1720219
  47.8831635  69.4659042  30.4671841  48.0634117  70.3375397  29.2429504
  42.5689430  46.4670830  59.3319244  42.2493019  46.4445038  58.4299545
  43.5138855  46.5946579  59.2480354  59.7155724  23.7635078  19.9244003
  59.2011414  23.4745350  20.6781178  59.2285576  23.4433632  19.1650867
  71.8093262  70.9846497  15.8779726  72.3271179  71.4892426  15.2506685
  72.0487671  71.3457108  16.7315140  49.5613098  17.1245384  80.2026138
  49.1250305  16.5180531  80.8010025  48.8612595  17.6975365  79.8898392
  47.4093590  65.3555374  72.4479675  47.4924202  65.9214630  71.6804657
  47.0614128  64.5333481  72.1027756  20.2910976  25.1663857  51.1298218
  19.9569702  24.5123672  51.7437019  20.0384178  24.8366013  50.2674828
  43.4727821  15.5490866  64.4538803  43.6656418  16.4856224  64.4978943
  44.2605896  15.1260128  64.7953491  76.6103668  16.2061558  -0.0971892
  77.2545013  15.7913294   0.4766047  75.8105087  16.2423744   0.4273556
  43.3739052  49.4225578  32.7144814  42.9376297  49.6928329  31.9064941
  44.0063744  50.1193237  32.8897896  63.0395546   8.0305910  24.8889236
  63.2542763   7.9047356  23.9646473  63.2394905   7.1886501  25.2980595
   3.6557684  11.4582720  52.2492828   3.7475019  12.2057981  52.8400612
   4.4715314  10.9686089  52.3541298  34.5011330  67.0448074   7.0604815
  33.8628540  66.7873917   7.7257404  34.0503731  66.9021759   6.2281938
  50.6329002  30.5189629  63.4655952  51.3252525  30.2618351  62.8566895
  51.0879974  31.0011711  64.1559525  26.7950077  39.3175926  53.1640663
  26.1243000  38.8319855  53.6442375  27.3301468  39.7244034  53.8455086
  26.5313911  48.9061012  16.0975552  25.7610683  49.3487358  15.7413111
  27.1626720  49.6093292  16.2498226  27.2529507  36.8704071   0.6339558
  28.0998306  36.8425331   1.0792069  27.4275589  37.3360825  -0.1839016
  25.8794174  44.6417770  18.4912910  25.8869076  45.5787048  18.2954769
  25.6412468  44.5924721  19.4170742  35.6586418  57.0851517  58.0128479
  36.2366066  56.7844009  58.7140884  35.9928894  57.9519272  57.7821732
  76.0067444  23.2124023  71.6613464  75.6236191  23.2447948  72.5379333
  76.9376602  23.3865738  71.8002396   0.1354085  13.5014076  71.5476227
   0.4266328  13.5613461  70.6377716   0.4705167  12.6577702  71.8512802
  23.8396111  22.2037392  80.7014771  24.6568985  22.6534290  80.4868851
  23.2551384  22.8996239  81.0020981  14.7023754  49.9614258  87.2958527
  14.8670454  49.0965691  86.9201584  14.4104500  50.4927177  86.5550766
  36.9807854  49.1982040  80.4344482  37.4948425  49.4797897  81.1912079
  36.3310699  49.8909187  80.3150864  11.4071989  50.1964569  79.8999557
  10.5099812  50.1500168  80.2302246  11.8968573  50.6324997  80.5973358
  21.4244423  70.2668152  85.0797653  21.2836609  69.3214035  85.0287170
  21.8024921  70.4988174  84.2315369  30.7656422  56.9871216  13.3692379
  30.4583893  57.6758232  13.9587431  30.3332329  57.1744766  12.5360804
   1.3691653  71.2738953  17.1706944   1.6786060  70.3774490  17.3005486
   0.4718022  71.1738510  16.8529472  10.8974867  20.2539806  77.6672287
  10.1642647  19.7382183  78.0028000  11.4876471  20.3461475  78.4151917
  12.5215225  57.2411766  80.3415909  11.7283907  57.0183105  79.8542404
  13.2336149  57.0998650  79.7177429  39.9909286   4.9726439  17.3609276
  40.2770348   5.4800539  16.6013813  40.7123032   5.0489221  17.9854507
  79.9291611  18.0597420  83.6179657  79.6808853  17.5034027  84.3562546
  80.0086823  18.9361362  83.9945831  12.4042101  70.8802338  12.0509443
  12.8853912  71.4536972  12.6474667  12.8135271  71.0244751  11.1977816
   5.3536711  40.2341194  88.2581253   5.8182940  40.8633804  88.8098373
   6.0190315  39.9113579  87.6503830  46.3392982  70.7131805  74.0749283
  45.8296928  70.8495560  73.2762146  46.8423347  69.9167404  73.9050217
  74.6153717   4.3278947  10.7845516  74.8111420   5.2421455  10.5794907
  74.1966553   4.3597231  11.6447239  21.3108788  25.7624226  26.9750137
  20.5181580  25.9195633  27.4879780  21.6741314  26.6347370  26.8222141
  13.8662968  34.6530113  49.2169685  13.6531973  35.2750359  48.5213356
  13.0838594  34.6325951  49.7679749  80.1670761  40.1558762  83.5766525
  80.8160400  39.4628105  83.6980515  79.7611542  39.9587021  82.7325058
  77.5797729  61.7118073   3.2945883  77.9978256  62.2756119   3.9454262
  76.8871918  61.2610435   3.7776825   3.9583006   3.0575199  73.6196823
   4.1282630   3.7283304  72.9583511   4.8177261   2.8701963  73.9972076
  33.6376038  56.7950935  77.6579971  32.7206726  56.5338173  77.7428894
  33.9305763  56.3807068  76.8464050  83.3172836  34.6284790  85.2439194
  83.4426956  34.1224480  84.4411545  84.1991730  34.7338943  85.6008377
  60.2672806  47.8487968  51.9956131  60.3635941  48.0433121  52.9278793
  59.9930267  48.6784782  51.6049156  40.0213242  23.0641403  82.3584671
  39.6765022  22.6430607  83.1458817  40.9721298  23.0097580  82.4546127
  72.4412613  49.6580582  49.1916428  73.3931198  49.5733833  49.1365585
  72.2867966  50.6017723  49.2337799  51.2926979  11.8499012   7.4638596
  51.7289505  12.1411047   8.2645569  51.9957924  11.4829445   6.9279180
  62.3927193  32.9980621  78.2109299  62.3630943  32.8843422  79.1608887
  61.7630959  33.6968918  78.0336075  20.3323250  43.2622337  10.8881855
  20.5324688  43.9061356  10.2088003  19.5247059  43.5817490  11.2905455
   5.9421649  20.4519272  29.0479126   6.2496223  20.8000031  28.2109261
   4.9980879  20.6097164  29.0406494  70.2296143  16.3348713  16.5553646
  69.3073425  16.2935352  16.8082447  70.6496048  15.6438446  17.0675373
  55.0998878  51.0657654  11.0762129  55.8690643  50.6175156  10.7245417
  55.4136658  51.9428368  11.2964897  70.3795013  17.9054356  46.0792427
  69.4362793  18.0120296  45.9559250  70.7730637  18.4343147  45.3852501
  17.2003803  36.7947655  71.1318512  18.1313057  36.7534370  70.9129868
  16.9804058  37.7241707  71.0682068  50.2969360  30.5581627  77.6980057
  51.0039635  31.1846008  77.5433350  49.7434464  30.6247635  76.9198990
  25.6179981  22.5073643  73.9781494  25.0986061  23.2367611  73.6398544
  25.3052635  22.3861637  74.8746643  70.1882401  31.6358719  83.5044327
  69.5999222  32.2841988  83.8914566  70.9458237  32.1434288  83.2134171
  62.0458641   3.6353867  54.4312363  61.9094391   2.9518175  55.0872498
  61.8518257   4.4516616  54.8919716  15.8651190   0.8029074  15.0891228
  15.9945374   1.2877892  14.2740326  15.1791782   1.2866457  15.5492477
  34.2537689  41.5872154  18.6561012  34.7860527  42.2455444  18.2094402
  34.7666245  40.7814713  18.5929642  10.9057856  48.1049957  41.1543274
  11.2015944  47.3082924  41.5947762  10.2211819  47.8073463  40.5551987
  68.7824020   9.5434074  49.0079041  69.2598801   8.7138138  49.0032806
  68.2159119   9.4980059  48.2376709  43.8092308   6.7375112  10.4249172
  44.7435226   6.8996005  10.2943115  43.6926079   5.8143649  10.2003450
   2.2739613  36.0165634  68.0439911   1.4435970  36.0508270  68.5189133
   2.1676123  35.2920113  67.4275894  39.3800697  69.1561966  45.2311401
  39.3976555  68.2462234  44.9347153  38.9589386  69.6329880  44.5159149
  51.0081367  18.0851841  50.4579430  51.9018173  17.7476139  50.3978004
  51.1084785  19.0364227  50.4217491   8.8654070  32.1376877  34.4952087
   9.3587198  31.5253620  33.9493752   8.0306177  31.6973419  34.6547508
  25.2800446  34.2169113  73.7835007  26.0930176  34.3891869  74.2585068
  24.6503544  34.8351212  74.1543579  10.8166513  52.6083603   5.5928845
   9.9421482  52.7133102   5.2181015  11.3795118  52.4265099   4.8403220
  84.9516754  41.4076805   6.4204106  84.9027557  40.6640625   5.8196864
  85.6064529  41.1490097   7.0689340  13.3506060  67.4569397  39.7567978
  13.8182468  66.6419830  39.5740547  14.0169687  68.0385818  40.1226921
  86.3506241  37.0974083  29.6747684  87.0849533  36.8625298  30.2420635
  85.5928116  37.1159172  30.2592430  10.3189001  41.9469604  66.8169327
   9.4595051  42.2785683  66.5567245  10.8671989  42.7287407  66.8834076
   1.2413489   1.0231024  59.4553719   1.3652613   1.5913705  58.6951408
   0.3256184   0.7493629  59.4030609  16.1305637  42.7852936  85.4588165
  15.8267164  43.2964783  86.2088776  16.5613441  42.0236168  85.8467712
  39.7544174  50.4778290  35.5850143  39.7112389  49.7556267  36.2117462
  38.8395119  50.6988411  35.4108582   4.3910017  68.7590256  58.9645805
   3.4710286  68.9814072  59.1075020   4.7014122  68.4624100  59.8200912
   8.7940893  36.6271973  29.6122608   8.4084873  36.3895264  30.4555016
   9.3442030  35.8787842  29.3809967   2.0939386  39.3758621   9.4727039
   1.7615027  39.3682594  10.3702908   2.8469026  39.9661713   9.5011578
  41.3110504  55.2112465  52.8541946  40.7781258  55.9248238  52.5034447
  41.3505898  54.5704994  52.1441841  68.3437119  13.6183004  66.0972748
  68.7339401  14.2407598  65.4836807  67.5253830  13.3506794  65.6789932
  66.5810623  38.3576279  76.6820908  66.8412170  39.1902618  76.2880402
  67.3492584  37.7952728  76.5827942  68.0501938   6.3677106  16.2595577
  68.9358368   6.1309552  15.9842176  67.5758743   5.5365753  16.2811985
   1.8945360  61.3761063  45.0460320   1.7285898  62.3164558  45.1126518
   1.6992712  61.1624832  44.1336327   4.9193907  64.1394958  46.3672066
   5.3140697  64.7762146  46.9630623   4.6184173  64.6618042  45.6236763
  14.9975786  12.2992601   0.6957857  14.1098585  12.4885864   0.3919078
  14.8779955  11.9360800   1.5733005  52.8036728   3.8277011  35.3721657
  52.6693382   4.1707482  34.4887009  53.6694946   4.1484571  35.6245651
  60.0953636  54.7085152   4.5189619  59.8354568  55.0192490   5.3862114
  59.4779968  54.0040321   4.3220043  10.2011814  28.0116806  57.1046944
  10.4728613  27.4828587  56.3545151  10.0434179  28.8822803  56.7394600
  17.7869358  45.9085121  73.2305450  17.5012321  45.3966179  72.4738617
  17.0177364  46.4225197  73.4762344  25.7772732  65.6706314  59.0628586
  26.4708652  66.2057495  59.4486198  25.9617100  64.7825928  59.3687973
  40.2239342  34.8315125  19.2363873  40.4456024  33.9057121  19.1364479
  40.4549637  35.0366631  20.1423512  36.2603455  43.8995972  50.4800262
  35.4426117  44.1866341  50.8864174  36.5278893  44.6379318  49.9327431
  86.1017456  36.5056763  33.4379692  86.8658218  36.6218758  32.8732491
  86.4335556  36.6541634  34.3234520   2.8532062  58.5099068  52.8696365
   2.5770993  57.5934372  52.8605385   2.3496182  58.9047127  53.5815048
  37.7304382  50.3815918   3.7699621  36.8585358  50.1142845   4.0607600
  38.1418495  50.7485771   4.5524545  62.4367828  63.0280266  25.0813293
  62.4927902  63.9335632  25.3864479  62.5997963  63.0820618  24.1396618
  21.6437836  54.6427956  82.6312332  20.9382973  54.4244576  83.2402039
  21.1941490  54.9492264  81.8437271  84.1931229  69.8253784  74.0248795
  83.3987885  69.2915344  74.0086746  84.8477631  69.2679977  74.4456100
  41.3734627   4.7397828   7.2886324  40.6216278   4.6652231   6.7009125
  42.1249428   4.8413267   6.7045102  85.9561157  21.4927444  26.2365971
  85.3929901  20.7187500  26.2288837  86.5539856  21.3612995  25.5007324
  23.2760086  49.9847260  52.6300430  22.4245281  50.0033417  52.1931572
  23.6331978  50.8626213  52.4960556   1.1613867  46.5096283  59.5235825
   0.9887505  47.3294106  59.0605659   2.1159372  46.4404640  59.5403671
  82.8237305  57.6750603  35.6903229  83.6639099  58.0615387  35.9372177
  83.0044785  56.7382584  35.6130867  28.8056240  70.8345871  27.7345638
  27.8545227  70.8563309  27.8402424  28.9403515  70.5084534  26.8447800
  56.7387848  64.6519547   4.9078097  56.3466263  64.7888794   4.0454311
  56.7505341  65.5221024   5.3064756  32.5000687  47.6057777  10.8457069
  33.1159401  47.3118896  11.5169439  32.4085655  46.8547859  10.2593021
  18.0999889  15.0160217  77.1763687  17.6335449  15.5418701  76.5266418
  18.9985790  15.3447790  77.1501999  11.4079571  39.9581490  85.0000229
  10.9011049  39.7479515  84.2157135  10.8956556  40.6352730  85.4419327
  30.9343376  27.5427704  80.9698715  31.2662334  27.1420403  80.1664429
  30.1591721  28.0305901  80.6916885  75.7903595  28.0000496   8.4737101
  75.5888138  28.6177158   7.7707868  76.1677780  27.2427425   8.0261955
  25.7112274   0.6237218   7.6443739  25.7375164   0.9568422   8.5413532
  26.1311951   1.3074936   7.1225343  24.4360924  60.2236595  20.9163876
  23.5463943  60.1609802  21.2638645  24.9897747  60.3185921  21.6914062
  48.0784225  65.7616653  83.8978653  47.8370934  66.6688004  83.7105026
  47.4305573  65.4689636  84.5388184  20.0270004  68.3268890  48.5185776
  20.5838299  68.6209717  47.7976837  19.5181408  69.1010513  48.7593575
  27.6877232  33.0510635  63.5416565  26.9402275  33.1753387  64.1264954
  27.3932991  32.3915634  62.9134789  82.9128799  18.2433014  14.2335167
  82.8698502  18.1053295  15.1797428  82.0044327  18.1745358  13.9398851
  21.0018501  18.9862289  86.2080994  21.6290665  19.6733990  85.9830933
  21.0603638  18.3622780  85.4845734  38.1619568  61.9822769  48.5195770
  38.2242432  61.0876961  48.1847992  38.1929970  61.8845673  49.4712715
  22.2431469  16.3286610  70.8286057  21.7323112  17.1046391  71.0591278
  22.6417732  16.0506573  71.6532516  82.3199387  29.2362576  28.2663746
  83.2341156  29.4688454  28.1038494  82.0107040  29.8981533  28.8848419
  53.0885353  36.3037720  64.0708618  52.7293930  37.0056648  63.5280952
  53.1680565  35.5579567  63.4761581  71.5127869  17.1145992   0.5280708
  71.6212463  16.6094532  -0.2777172  70.6426239  17.5057392   0.4502557
  79.2011032  14.7257652  77.5452423  79.9947357  15.0251865  77.9887772
  79.4009476  14.8112459  76.6130447  50.6913528  20.9685974  61.5585785
  50.1682549  20.1688480  61.6133537  51.0707932  20.9469090  60.6800613
  18.7671795  56.9750061  50.7811852  17.8916988  56.5901642  50.8219757
  18.8354435  57.3211327  49.8913727   0.1387471  41.8472404  39.3054771
   0.4179489  41.3025627  40.0414162   0.1475764  41.2558250  38.5528946
  57.2007675  65.6337738  28.2136898  57.3276100  64.7609634  28.5856400
  58.0683784  65.8888321  27.8999577  85.4380188  56.9728775  19.7259388
  84.9605560  57.8012238  19.6800632  86.1726456  57.0861511  19.1228447
  28.2915077   1.6257335  76.4171600  27.8941727   1.8937287  75.5885849
  29.0599022   2.1893044  76.5076599  81.9515381  30.7685833  30.5339375
  81.3034439  31.3261032  30.9644852  81.7906189  29.8949623  30.8904800
   8.5577002  34.1870995  43.7218933   8.8652258  33.4023933  44.1756554
   8.0438042  33.8527832  42.9867897   6.6195459  12.9943991  21.8145294
   7.1765170  12.5895166  21.1496353   6.0135417  13.5436573  21.3172302
  75.5599442  59.3121796  86.3750610  74.7111282  59.7384834  86.2567368
  75.5292740  58.9602547  87.2646942  32.1958923  40.8155327  45.8182564
  33.0753708  41.1151695  45.5881042  31.6276417  41.2102432  45.1567955
  54.7798729  36.0463181  19.3583050  54.3853340  36.3463173  20.1771908
  55.1506996  35.1898270  19.5707760  42.9410820  17.0961056   3.4119663
  43.0161667  16.9623890   4.3568020  42.1699333  17.6538429   3.3095334
  29.8220272  46.5089531  53.7763329  30.3394756  45.8330040  53.3386383
  28.9130459  46.2474709  53.6293335  47.9454384  68.7690353  48.8322411
  48.2312355  69.5718002  49.2682724  48.2848969  68.0634995  49.3828926
  39.6513023  70.5281372  33.4149818  40.4426804  70.8688126  32.9979858
  38.9438400  71.0690384  33.0640526  60.0774574  44.8096771  40.5470085
  60.4589043  45.3305626  39.8403168  59.1871605  44.6199532  40.2510262
  41.5949211  10.9314842  53.2306137  40.7339211  10.8833961  53.6460609
  42.2152023  10.8294134  53.9524651  84.7305069  17.3736706  29.1133595
  84.4837646  17.1583462  28.2139225  84.8503189  18.3233280  29.1080399
  68.6571121  57.1623268  65.9062805  69.0971985  57.5318222  65.1407547
  68.5851135  57.8950157  66.5180130  29.4891796  50.2092628   9.4597540
  30.0029545  50.0997849   8.6595774  28.8280602  49.5184212   9.4162960
  28.6914368  58.2734833  82.2445145  27.8038578  58.0203972  82.4982529
  29.2236786  57.5001755  82.4314423  25.0974941  11.1731815  72.8671722
  25.4829769  10.3006058  72.9462128  25.2817249  11.4356098  71.9652710
  49.7714615  34.8443794   9.9582062  49.6099663  34.1779747   9.2903318
  49.6448746  35.6762962   9.5019999   5.3600011  26.9525471  54.7106590
   4.9302740  26.9119511  53.8563080   6.2172432  26.5516815  54.5668716
  57.2964821  55.7371063  72.2188644  58.1976280  55.6007729  72.5114059
  56.8078804  55.9140320  73.0227280  64.3964386   2.7965817  46.9500389
  63.7799377   2.2035623  47.3795586  63.8593369   3.2961040  46.3350334
  85.7121964  29.8824158  37.1950035  85.3524857  30.7365704  36.9557152
  85.3228836  29.2740784  36.5668373  24.6402187  49.8136787  67.9341736
  24.6576118  49.9379501  68.8831100  23.7579308  50.0785255  67.6740646
  30.5056992  44.1931839  60.1364136  30.6941261  44.1334801  61.0729828
  30.1931057  43.3202057  59.8988647  53.8500252  70.2784882  81.0268860
  54.5013008  69.5933838  81.1775665  54.0025101  70.9122467  81.7278366
  85.0168839  65.7580109  10.9234676  84.5819244  66.6106339  10.9317789
  85.9386063  65.9577408  11.0870943  82.7969437  31.2639809  20.8521881
  83.1257629  31.7162018  21.6291084  83.5530243  31.2117119  20.2675209
  43.0266037  41.1833572  14.0525465  43.3957138  41.8432007  14.6395693
  43.7883797  40.7804337  13.6359119  77.8330841  55.1934547  32.6941109
  78.0163193  55.3746338  31.7722473  78.6054153  54.7199974  33.0032616
   3.9439669  56.4731483  50.7792816   3.0741568  56.6711807  51.1263351
   4.3924694  56.0267487  51.4974747  55.9970474  48.6208191  32.4668350
  56.6490211  49.3039589  32.6233101  55.1561050  49.0741196  32.5265465
   4.4895935  40.1398964  12.9349451   5.2242069  39.7949066  13.4424467
   4.1849341  40.8953018  13.4377098  44.7188492  13.2934713   7.6371603
  45.5548553  13.5843897   7.2728906  44.8761063  13.2333679   8.5794392
  50.2842979  59.7344971  77.4974136  51.1599731  59.4785957  77.7871323
  49.8517227  58.9078674  77.2834167  23.1874828  23.8311939  75.9987488
  22.6578484  24.4014969  75.4415436  22.9113178  24.0437546  76.8902588
  26.2682400  55.3199272  36.2865791  25.6943417  55.6979485  36.9528923
  27.0417519  55.8837585  36.2888527  33.8647957  30.8326645  65.6888428
  33.2927094  31.5752621  65.4952011  33.2950287  30.1984844  66.1240616
  36.1099434  24.4645252  66.7531891  35.5216103  24.6553097  66.0226440
  36.8116608  23.9416523  66.3653412  13.3180323  44.9400864   8.9588308
  13.4680080  45.6614647   8.3478012  12.6675482  44.3889427   8.5236969
  39.7912292  43.6384125  16.4684219  40.2534676  42.8104210  16.3380661
  39.2304268  43.4825897  17.2283249  75.2869949  64.3450699  36.2826729
  75.2204361  64.5561523  35.3514137  76.1020737  64.7602234  36.5646973
  59.0597878  64.3011627  14.5576563  58.5061111  63.8680916  13.9079475
  58.4702606  64.4882889  15.2881842  80.9154282  52.7219658  26.6585636
  81.7129669  52.7184372  27.1878529  80.4605026  53.5237579  26.9162445
  15.4319859  66.1060562  57.7299690  16.2404003  65.8374405  58.1664810
  15.6482029  66.0950623  56.7975731  20.2570095  49.1188354  45.5830612
  19.6096096  49.7037239  45.9767761  20.5767307  49.5961342  44.8174286
  76.1618729  13.5264673  28.0359344  76.8731461  13.3714304  27.4144096
  75.4229507  13.0309916  27.6827755  58.0061417  14.8352995  64.2682495
  57.1075287  14.8444691  63.9386482  58.0188751  14.1246128  64.9093399
  52.7682800  14.7206211  19.9050312  52.9917412  15.3295918  19.2011471
  51.8509903  14.9094543  20.1029015  55.1841507  69.8230667  23.3544827
  54.8683510  68.9268570  23.2391300  54.6557159  70.3430176  22.7489738
  79.1920624  32.2497559  58.8347626  79.0118637  32.0696754  59.7574387
  78.5306702  32.8942299  58.5828972  40.9571190  30.0994205  14.8249273
  41.8242302  30.0743084  15.2295504  40.4061928  30.5474625  15.4667749
  15.3791151  40.7678986  19.5040970  14.5990915  41.2615662  19.2509403
  15.0525036  39.8911934  19.7064438  13.5402079  44.1243820  79.4644623
  14.4196548  43.7895699  79.6396942  13.2630596  43.6659622  78.6711884
  64.7172852  34.4980392  14.9652681  63.8779526  34.4920197  15.4254026
  65.0490723  33.6052551  15.0605640  62.4459229  23.6864014  65.0190659
  62.9850159  22.9078407  65.1585388  61.5514603  23.3924236  65.1915359
  86.3783264  39.6662827  66.6315613  86.1208954  38.7447166  66.6575928
  86.3866196  39.8864288  65.7000580  23.0971737  29.5677605  66.2612228
  22.4248238  30.2384853  66.1416092  23.5952816  29.5795097  65.4439240
  20.1564846  13.8509569  72.2769012  19.2952919  13.7900820  71.8635330
  20.0326118  14.4671450  72.9988403  30.0824242  55.3533096  50.8582115
  30.1938992  54.5378456  51.3469086  30.2739143  56.0420837  51.4947281
   2.2072265  48.6989479  72.2257843   1.6885664  48.0722733  72.7302704
   1.5623974  49.3057442  71.8621597  30.8563271  68.2547989  71.2535553
  31.3454704  68.3433914  72.0715485  31.3043385  67.5529480  70.7813950
  30.1592140   1.2581549  66.7912292  29.9918041   1.0355676  65.8754425
  30.8311768   0.6360465  67.0699387  26.5347099  47.3022423  24.0425224
  25.9353065  48.0471077  24.0885887  26.3583069  46.9052505  23.1895790
  77.1792450  55.4775238  85.1745529  76.7857513  56.2988625  84.8799362
  78.1058884  55.5617523  84.9499054  54.8984718  57.4603233  71.9394684
  55.3601265  56.8141365  71.4050980  55.0949745  58.2996330  71.5233307
   9.9402781  56.1058235  43.2394371   9.7000484  55.8005447  42.3646088
   9.5956049  55.4359207  43.8299179  68.9367371  27.7678738  45.0668945
  69.2414322  27.0200710  45.5808868  69.6581573  27.9556942  44.4664688
  17.9217358  54.1956100  75.8328476  17.8758888  55.1129150  76.1024399
  17.9101849  53.7037888  76.6539536  53.0891151  53.0263786  69.9179001
  52.7661400  53.6509628  70.5673676  53.5453491  52.3603973  70.4322510
  72.5465317  54.7928276  38.4622002  71.7640991  54.4398575  38.8858147
  72.2090836  55.3310585  37.7461929  56.7646713  16.8936062  88.0581589
  56.4846001  16.0877934  87.6240463  57.1489601  16.5996094  88.8840637
  28.9283123   6.0236907  19.8957005  28.2081738   5.5695567  19.4582138
  28.7628345   5.8916516  20.8291950  19.9703560  56.8067169  74.2284775
  20.0004196  57.2914658  73.4036484  19.7953568  55.9022675  73.9685059
  47.8699875  63.2437744  36.3878365  47.1066704  63.0635033  36.9365425
  48.1341667  64.1315689  36.6291962   0.6556902   6.6399870  12.9703341
   0.0090247   6.9518218  12.3372345   1.0756431   5.8967195  12.5374079
  66.6568680  14.2041435  63.8895950  67.1131058  14.0660391  63.0595322
  65.7953339  13.8082724  63.7581177  72.0102692  15.6756163  68.9564056
  71.3441010  15.4497805  69.6055908  71.5368652  16.1753902  68.2913132
  16.3149033  49.6637115   6.1973786  16.6584015  50.4212379   6.6710839
  15.4081821  49.8968658   5.9980516  16.3530960  55.1841469  29.7477207
  16.4728508  54.7603149  28.8978634  15.8164186  55.9537163  29.5580673
  41.7809906  63.1885147  41.3066711  42.4365196  63.0565605  41.9915810
  42.2598343  63.6145172  40.5957108  15.7174816  57.3247185  62.0067825
  15.0297441  57.9818535  62.1136742  16.2800446  57.6768036  61.3170052
  80.0472717  16.4220428  24.3948689  80.1789322  15.8077812  23.6726627
  79.7125244  17.2152863  23.9766083  62.5333023  29.4686184   1.2594365
  62.6142197  30.0697498   0.5189469  63.2491112  29.7133274   1.8459220
  79.4131165  21.1384830  38.6096268  79.4708405  22.0607624  38.8592262
  80.2639923  20.7716503  38.8497963  67.5526733  34.2568016   1.1450477
  67.8557510  33.6401520   1.8114690  68.2933197  34.8482704   1.0114937
  48.0698662  51.8089561  61.7404327  47.2992554  51.6915436  62.2959557
  47.8830223  52.6006279  61.2358780  25.1738586   1.1029147  26.4167862
  25.5573959   1.8486989  26.8782387  24.3485012   1.4372030  26.0656910
  51.9323845   6.7469516  54.1318588  51.1091423   6.8305559  53.6507034
  52.5754700   6.5039496  53.4658089  53.9544144  37.0006599  21.8869534
  54.1787529  36.1847191  22.3343296  53.6822739  37.5917206  22.5889645
   1.2048929  49.3250847   3.1744969   0.3601753  49.6355019   3.5005703
   1.0857319  48.3822174   3.0603056  28.8610859  67.3511200  89.1111221
  29.5751152  67.3155823  88.4746170  28.3160191  68.0817566  88.8190613
  52.9145737  10.9569893  23.0453434  53.4366531  10.1596289  23.1341095
  52.1014061  10.7640324  23.5119915  83.7617188  54.4341583  46.2764778
  83.7682800  54.3947487  45.3201141  83.4821396  55.3272781  46.4774780
  54.7198448  33.7849197   7.7294669  55.0382843  34.0581589   8.5897970
  55.5139618  33.6060371   7.2258687  74.0307083  67.0706711   2.6730134
  73.5454407  66.4694443   3.2380526  73.9783249  66.6761322   1.8024797
  39.8297539  20.0779724   2.1113234  39.7087669  19.8672333   1.1854813
  38.9811211  20.4205303   2.3918724  35.1207047  61.4077492   4.8698368
  35.8581543  61.5837250   5.4541602  35.3705750  60.6108513   4.4021297
  18.7213554   1.7628475  50.7847481  18.4124184   2.6416092  51.0051308
  18.6049671   1.2590282  51.5902634  63.0377693  21.6236992  38.1203232
  63.2836304  22.4000206  38.6234207  63.8706551  21.2033291  37.9062653
   0.6421172  42.7786255   4.5435543   1.0544798  43.0089684   3.7110097
   0.2868236  43.6047249   4.8715110  61.2079010  55.9331284  36.4738655
  61.6008072  55.0644341  36.5588531  60.4509048  55.7988701  35.9036369
  71.1790085  61.9447289  53.2362404  71.9126587  61.4612389  53.6160164
  70.9858170  62.6290741  53.8770065  29.3760090  15.1320181   7.6609545
  28.5345306  14.7288904   7.4473262  29.9595909  14.8573732   6.9536819
  48.1387215  61.2489243  13.3071032  47.7231293  60.7465057  12.6063251
  48.4004402  62.0699615  12.8904076  60.9493484   6.1379924  29.2770329
  61.0270462   6.7642612  29.9967422  60.7890053   6.6797600  28.5043697
  86.2962494  13.2996473   8.6218319  85.9641190  13.8289385   9.3469362
  86.7997894  12.6037750   9.0442514  39.5635033  41.4902802  74.8981781
  40.0371513  40.7818184  74.4623260  38.9832458  41.0457497  75.5161743
   5.5517626  45.8729324  83.2649536   5.1182027  45.1950111  83.7832870
   5.6365452  45.4894600  82.3920288  85.6322021  58.9861794  22.0699844
  85.4631577  59.4343224  22.8987350  86.2610168  58.2997551  22.2927952
   0.2850212   3.3154857  77.3942566  -0.0505221   2.4677048  77.6856537
   1.1562945   3.1221371  77.0482407   5.6305199   6.1932058  22.8651009
   5.4866128   7.0918946  22.5686531   6.1681628   6.2837167  23.6518536
  66.7592926  17.4202862  40.2499466  67.6565247  17.1595764  40.0419922
  66.2236328  16.9853458  39.5865288  64.6412125  53.0575180   6.4220662
  64.4483261  52.2816582   5.8956943  63.9925652  53.7036896   6.1428757
   8.5609283   2.8554707  71.7671356   9.4317989   2.9085593  71.3734436
   8.2406425   3.7574844  71.7626190  27.6104012  67.9095688  78.3990479
  27.7005100  67.4348679  79.2253494  26.6915722  67.7954483  78.1562347
  75.2768097  23.5145798  54.3319397  74.3842697  23.4305363  54.6674080
  75.8339386  23.3969936  55.1013603  83.0815125  58.8309631   9.4635277
  83.0199585  59.2443581   8.6023960  84.0062866  58.6007614   9.5531445
  15.3511629  48.1143684  23.3187923  14.5022507  48.4727097  23.5779629
  15.2372551  47.8687630  22.4006767  64.4114304  25.9811192  39.4404106
  63.5516396  26.3936672  39.3579483  64.9978790  26.5473347  38.9387093
  37.7573242  14.4877090  63.8656693  37.9065704  13.5707369  63.6351929
  37.2190170  14.8295403  63.1518021   4.1518378  13.8940039  70.5334930
   4.9809089  13.6708183  70.9566498   3.9587109  14.7807598  70.8377914
  11.1476278  53.6232262  54.6945457  10.8176489  53.0985985  55.4240074
  10.5683842  54.3847313  54.6659088  11.8903847  41.6216736  81.7053375
  12.5121012  41.3864594  81.0165939  12.4052010  41.5954323  82.5118790
  13.9027586  52.2382812  36.7839661  14.6736603  51.9828835  36.2772942
  13.9007616  53.1949196  36.7511978  52.6275520  35.1466255  48.6855621
  53.0896225  34.4860687  48.1694374  51.8558388  34.6910515  49.0219269
  55.8913383  19.1295910  83.4448853  56.8224487  18.9999180  83.2647476
  55.5875053  18.2783070  83.7599030  41.4210167  25.2632313  14.9095869
  41.6059113  25.3206558  13.9721708  41.8761024  26.0145378  15.2899380
  69.1733170  47.2815323   2.1906006  68.7819290  47.8179932   2.8799913
  68.6898727  47.5185127   1.3991737  36.6766434  47.8798103  84.3694382
  37.3115463  48.1665611  85.0258713  36.5511894  48.6444740  83.8074951
  30.2771778  31.1807766  67.2869034  30.4725094  30.2582359  67.4512100
  30.1072598  31.2257252  66.3459778  48.7151947  25.9532852  58.1324005
  49.4958153  25.6358051  57.6784515  49.0434532  26.6201859  58.7354965
   8.0717840  17.8083801  73.9186096   7.9280205  16.9505424  73.5190048
   7.3902068  18.3651810  73.5422363  20.6846619  34.2163391   3.8788767
  19.7767754  34.4825211   4.0242147  21.0006962  34.8065186   3.1947389
  80.2174377  13.5022526   4.3022380  79.2641754  13.5594893   4.2370348
  80.4161987  12.5862160   4.1083236   8.7706299  57.2290192  33.9010887
   9.2386665  56.6202126  33.3296623   8.2215509  56.6687050  34.4495316
  75.0805588  28.3900909  37.8315964  75.0137787  27.7651272  37.1096573
  74.6722488  27.9436779  38.5733757  61.0752907  27.0842514  18.4152050
  60.2332268  27.0873661  18.8703365  61.3276749  28.0065727  18.3721180
  10.4619780  68.7105331  25.5982246  10.4112291  68.9201965  24.6656494
   9.5873098  68.3910294  25.8198280  51.3207436  67.0454941  85.5027618
  51.2727737  66.5805893  86.3381042  50.5099449  66.8110123  85.0512543
  59.4480400   7.2189398  73.6682281  60.2071533   7.7939005  73.7651749
  59.1336365   7.3851476  72.7795410  76.9742050  38.3686676  68.9240036
  77.8895569  38.5923042  69.0923767  76.9750824  37.4169540  68.8216858
  53.6317673  47.5998001   6.3940248  53.9908638  46.8173637   5.9756036
  53.1171799  48.0238762   5.7073030  84.6437912  52.9971695  84.8187103
  84.1451569  52.7268944  84.0476379  85.0079193  52.1828918  85.1659775
  77.0504150  16.8963165  60.1638641  76.7110291  17.6877041  60.5819016
  76.4610214  16.7440624  59.4251709  33.3635445  13.7970161   1.1937757
  32.7005386  13.3986530   0.6298969  34.1965904  13.4799814   0.8448372
   8.1356926  65.2309036  45.1949310   7.9086547  64.4590149  44.6764069
   8.2448587  65.9293442  44.5495644  34.0340385  33.3752632   8.7412357
  33.6988297  34.2316208   9.0067778  33.7389755  32.7787209   9.4292088
  77.7106400  19.9951553  74.5921936  77.8687515  19.2860584  73.9689636
  78.5608978  20.4243908  74.6873779  40.8719673  33.9976463   8.4395809
  40.9376411  34.8699913   8.8280811  40.4968338  34.1493988   7.5721259
   8.3720284  70.3333206   0.0108136   7.5041347  70.3760147   0.4122739
   8.9794044  70.3574219   0.7502355  65.1756439  49.1523628  61.8004265
  64.7836914  49.8420105  61.2647095  66.0814133  49.4341698  61.9284592
  39.3117294  58.0504837  19.1483288  38.8452187  57.2510033  18.9045448
  38.7824783  58.7582130  18.7805729  61.1459084  18.3307438  10.4133549
  60.7355881  19.1835213  10.2696943  60.4561806  17.6968842  10.2165623
   0.4438064  24.8835068  24.9277153   0.6687928  24.5467453  25.7950115
  -0.2399726  24.2930222  24.6114769   3.3712304  15.9334383   8.1781864
   2.4794440  16.2022781   8.3988094   3.3132353  14.9853468   8.0599031
  80.0834503  47.5063019  22.5006657  80.9198990  47.5314331  22.9653835
  80.2770844  47.8751488  21.6388721  34.2659760  37.2124214  70.9412994
  35.0321236  37.3017006  70.3744888  33.5765228  36.8868942  70.3625870
  34.3428307  69.7192764  12.3119431  33.7511749  69.6723404  11.5609608
  35.1919785  69.4453201  11.9653521  52.4888306  65.0062714  15.8726797
  52.9832573  64.3559189  16.3714962  51.8576965  65.3597717  16.4995327
  19.2364426  19.8301945  75.4877625  18.3982830  19.6111488  75.8948746
  19.0668659  20.6441307  75.0134430  32.0843735  43.8081703  55.3259964
  31.5864353  44.5278625  55.7137260  32.9901505  44.1176758  55.3234444
  39.7393341  34.6066399  24.9309750  40.4439430  33.9615555  24.9911594
  38.9720535  34.0992622  24.6662617  75.7176895  17.9659386   3.7204936
  76.6074600  17.6427441   3.8622534  75.5497742  17.8057003   2.7918606
  22.2683945  48.2908592  80.8372345  22.7208195  48.0262642  80.0362778
  22.0140171  49.2000465  80.6794281   6.8184624  40.3295212  65.5724640
   7.6933212  40.3160477  65.1842957   6.3098397  40.9007301  64.9969101
  41.6737938  68.8618851  78.1170502  42.5715218  68.6473846  78.3706360
  41.1870346  68.0481339  78.2478256  42.4783516   3.3284562  22.4705296
  42.3259888   2.3837597  22.4943199  41.6589851   3.7111866  22.7842026
  77.9752274  47.4643974  51.2696266  77.3266602  47.8022766  51.8872299
  77.4570084  47.1249619  50.5399208  41.3563995  61.6219063  88.5905914
  40.7095032  61.2227783  89.1723633  40.8416557  61.9678307  87.8614807
  31.2229748  56.1213951  54.9296608  31.5209122  56.6330376  55.6817780
  32.0280228  55.8698769  54.4770355  63.1342278  44.7828598  44.4669456
  62.2126770  44.7527313  44.2099113  63.1526070  44.3890152  45.3391724
  56.5741577  17.5244789  58.8716240  56.7726860  17.8313313  59.7563057
  55.6207047  17.5795078  58.8073540  18.1868954   0.1649962  87.0162735
  18.3264542  -0.1610711  86.1272049  19.0658169   0.2225736  87.3909912
  61.0763206  69.7179489  81.0461655  61.2103577  70.1514893  81.8889694
  61.3677216  68.8177338  81.1908722   0.0589492  19.7815609  16.3278942
   0.0062191  19.5844040  15.3927040   0.8891707  19.3958664  16.6075439
  83.9206543  43.9948997   6.7941508  84.0923920  43.0596275   6.6845784
  84.3015289  44.2102242   7.6455030  56.2285881  48.6656494  29.4192371
  56.8920860  47.9895744  29.2816753  56.2015266  48.7850342  30.3685760
  69.8924408  11.9333706  68.2744827  69.3554840  12.6825895  68.0164566
  69.5893097  11.2177029  67.7157669  24.7973175  51.1091309  38.0011520
  25.0890732  50.5022392  37.3208656  23.9206333  50.8038483  38.2345200
  58.6086502  49.8179359   2.2338715  58.3233261  49.0807953   2.7737298
  58.8744011  49.4192200   1.4052374  40.2907867  67.6585159  37.6863785
  39.9036331  68.3652649  37.1697960  39.9387054  66.8575211  37.2981949
  67.4630814  37.6437035  12.0746555  67.5887909  37.4129906  12.9950905
  66.6021957  37.2881393  11.8540258  44.4569588  13.6452408  77.0950394
  45.3935127  13.5582047  77.2725983  44.3490372  13.3056355  76.2066422
  80.8135681  29.6646385   2.7141607  81.3437805  29.4438248   3.4798927
  79.9095154  29.5981503   3.0215769  78.3652649  68.4815369  68.3257446
  78.5813980  69.1608963  67.6870041  79.1490326  67.9336090  68.3671036
  18.2500763  39.9263802  39.7927246  17.8667240  39.0700874  39.6028900
  17.9892159  40.4749107  39.0529289  26.2779140   7.0474563  67.1063995
  27.0711823   7.5360589  67.3259964  26.1269341   7.2393436  66.1808624
  23.0128937  14.0462685  61.2375183  22.8079109  13.1154156  61.1496162
  22.1826992  14.4914150  61.0676575  65.8532257  27.6948242  51.7729073
  65.8340378  28.2252636  52.5694618  65.2760162  26.9554253  51.9635658
  52.2412071  14.4867210  74.1194763  52.9984169  14.8216810  73.6391983
  51.9424324  15.2296429  74.6439133  56.9291344  14.1519547  28.7855244
  56.7877655  14.7878923  29.4868298  56.0492134  13.8645563  28.5418568
  55.0825043  33.4583740  35.7107925  54.3332138  32.8649826  35.7625694
  55.7530632  32.9574776  35.2463684  58.6605949  43.8948479   7.3211107
  59.3544083  43.2960930   7.5974131  58.1994858  43.4233017   6.6273837
  48.3661537  29.9748211  11.4349489  48.5829620  30.0693531  12.3624668
  47.9148254  30.7885075  11.2103405  39.5603905  43.0589142  44.8490639
  39.7029152  43.0905113  43.9030647  39.0140152  42.2845078  44.9832306
  25.9573269  47.7332458  54.6851349  26.0849781  47.2647476  55.5100250
  26.5261726  48.4999390  54.7546196  80.4536591  43.0825081  50.8049393
  80.9852066  42.5273438  51.3754463  80.4599457  43.9395332  51.2312012
  61.1854019  12.0866547  45.7097397  61.5536728  12.0679140  44.8264160
  60.3582573  11.6108322  45.6345253   4.4171677  11.6109266  23.1952190
   4.8854427  11.2835159  23.9631729   5.1029406  11.9672585  22.6304398
  67.8958969  21.7106628  30.7155437  67.3934250  22.4574203  30.3898144
  68.6583710  22.1024628  31.1414089  14.5338688  58.2442780  64.6645279
  14.3916636  59.1291924  65.0005875  15.0674219  57.8165779  65.3343277
  22.2010345  41.9748497  76.2788544  21.5806293  42.7020035  76.3296051
  23.0371666  42.3879890  76.0633774  67.7540817  48.2723923  64.3793259
  67.7809448  48.9287338  63.6831055  66.8720627  48.3458557  64.7438431
  70.9048843  64.4847794  45.0418015  70.7747345  63.6073036  45.4014282
  71.5558243  64.3660202  44.3501320  65.7628784  45.6275177  19.4853687
  66.0620041  45.9220467  18.6251316  65.0489807  46.2249527  19.7081871
  16.8972797   7.0018435   8.3496561  16.6054764   7.5048628   7.5893579
  16.3620853   7.3286662   9.0728340  14.8012495  50.8471794  59.4643669
  15.3826847  51.5220528  59.1140671  14.0869102  51.3353996  59.8737488
  84.6213379   8.4830885  32.8404617  84.8011703   8.1519604  33.7203751
  85.4814682   8.7187643  32.4928131  77.8404694   2.4776831  38.1460075
  77.6094437   1.6015364  37.8374214  77.8979111   3.0048714  37.3491364
  57.3130302  46.6073341  33.6213531  56.9421806  47.1706734  32.9421234
  57.2222176  47.1137886  34.4285049  32.2571526  10.1142282   4.2765574
  31.5393677  10.7383928   4.3834968  32.6482544  10.3412285   3.4329095
  20.3345871  51.5585136  82.4823837  19.9753990  52.1583176  83.1361771
  21.2138348  51.8938370  82.3071365  50.5955086   0.6875857  22.4603901
  49.8130798   1.2389319  22.4532433  50.8765602   0.6824756  23.3753853
  36.8653984  53.4936104  28.8570213  37.5940437  53.7366791  29.4281845
  36.3581810  54.2995262  28.7597294  23.1090317  67.6764832   7.1247172
  23.6993198  68.3936157   6.8933725  22.8643856  67.2873154   6.2851186
   9.1362591  57.3327751  69.3596115   8.3229427  56.8622322  69.1770172
   9.4986954  56.8947220  70.1296616  84.1632538  52.5944557  12.5350990
  84.7918015  52.3984756  13.2299042  84.1868134  53.5478134  12.4527292
  45.4603233  26.8552971  42.6772003  44.9513245  27.1507874  41.9223251
  46.3648872  26.8389778  42.3645897  53.9380417  64.1259003  52.7027283
  54.7864304  63.7408867  52.9223518  53.7520866  63.8076859  51.8193321
  56.3940163  26.5508022  56.3891983  56.3597183  26.0062008  57.1756248
  56.9699059  27.2777252  56.6261864  10.8580351  65.6594238   3.1864531
  10.3369942  66.3350983   2.7526193  11.4472723  66.1451035   3.7636430
  45.4843330  49.8274612  20.3288612  46.1506424  50.1443405  19.7190685
  45.2225838  50.6045723  20.8226433  39.5546188  68.6596375  15.6636515
  39.9748650  68.7133331  16.5219898  38.9335632  67.9359283  15.7458992
  26.0181389  63.4286003  19.7252655  26.9179134  63.1023254  19.7118607
  25.8603497  63.7328415  18.8315239  50.0330658  50.1073723  54.1076508
  49.6060867  50.2749062  54.9477997  49.4851303  49.4437180  53.6886406
  70.1692810  14.7381687  28.2167492  69.4140320  14.1500969  28.2173004
  70.9193497  14.1648645  28.3746967  59.1515198  68.3987961  41.3958549
  58.9476547  68.0637894  42.2690315  58.3069763  68.6803513  41.0441360
  65.3787460  13.5602589  23.7588844  65.9018097  13.5921984  22.9578743
  64.9213943  12.7206440  23.7129688   5.9160023  36.6721191  24.1378765
   6.4643230  37.4559669  24.1718979   5.7545538  36.4527473  25.0555058
  77.6621475  56.1725693  42.3624878  77.7105637  55.4265289  42.9602470
  78.0981140  55.8699036  41.5658951   7.9424720  63.3445511  74.7503281
   8.5752516  63.5466652  75.4395142   8.3990469  62.7262955  74.1797791
  36.4071503  55.3362770  34.3680611  37.1505280  55.5005836  33.7878685
  36.0303040  56.2019691  34.5255318   1.5797347   3.9291852   8.4038715
   0.9509550   3.8223677   7.6901088   2.4181395   3.6632042   8.0262957
  26.3854179  59.2129402  55.4186630  26.3831348  58.3995056  55.9231911
  27.2934093  59.3153992  55.1335564  82.1005630  63.5801697  62.2540665
  82.1692886  64.1793137  62.9973984  82.8035965  62.9454384  62.3922501
  72.6011963  51.9042892  75.9378128  71.7058258  51.6447372  75.7206192
  72.7335434  51.5842896  76.8301849  15.7722635  27.4951668   8.7615814
  15.8651247  27.7475758   7.8429418  16.0931129  26.5939980   8.7959719
  67.9380341  64.6053085  23.0420265  67.8223114  65.1071396  22.2351780
  68.7532501  64.1217575  22.9085026  20.4430008  52.8724365  29.5014954
  21.1506386  53.4193268  29.1603355  20.5720692  52.8778763  30.4499378
  69.4574356   5.7949500   7.3590446  68.7852325   5.1250372   7.2342052
  69.7300415   6.0289717   6.4718280  51.5126877  67.2864075   7.5483074
  50.8360939  66.6772308   7.2527404  51.8625450  67.6654053   6.7419643
  41.8909035  64.7592773   0.1656895  41.7967682  63.8344345   0.3938189
  40.9922981  65.0759354   0.0736663  44.5309372  26.2989616  63.4421997
  44.4109879  27.1131401  62.9533653  44.9161720  26.5737076  64.2742691
  30.8897381  34.1603012   6.3364873  31.7671413  34.3414383   5.9994645
  30.7053699  33.2641602   6.0551109  77.7737427  10.2937317  65.1374283
  76.8875275  10.6496849  65.2017899  78.3089142  10.8866997  65.6648941
  34.8551369  37.1560669  62.3447800  34.4363251  36.4088821  61.9175301
  34.4881630  37.9215202  61.9024620  35.3624954  53.0284157  24.9969959
  35.9204903  53.6157761  24.4872074  35.9394455  52.6798325  25.6765938
  29.7050533  38.6212425  58.2302055  30.2249107  39.4141693  58.0988808
  30.3000641  38.0151100  58.6715660  81.2676086  36.6034508  35.0901108
  81.5279465  35.9431343  34.4478989  80.6672134  36.1433983  35.6767235
  18.3317051  36.3844337  23.6542511  17.5152645  35.8881187  23.7119694
  18.1462421  37.2046318  24.1115341  12.1752882  47.5700035  14.8615484
  13.0250969  47.2771454  14.5324707  11.5541553  46.9203339  14.5323715
  49.1136093  42.6498299  36.5133095  48.2984428  42.3785477  36.9353790
  49.3856125  41.8860283  36.0045395   3.3729308  71.6514511  46.1602592
   2.5787129  71.7815704  46.6784477   3.2158511  70.8376541  45.6814232
  28.1139984  56.7498970  75.0503922  28.0178719  55.8221359  74.8353424
  27.2240772  57.0995750  75.0056839  45.5342178  68.4945221  14.3507957
  45.1814690  68.0748291  13.5661573  46.1398659  69.1562195  14.0167656
  28.6136246  38.9904556  63.1050072  28.5042515  38.7814178  62.1773376
  27.7982540  39.4281197  63.3496552  31.9051151  70.8305283  67.5946426
  31.9742355  70.9665680  68.5396042  32.7257080  70.4005127  67.3539200
  44.6311455  31.5292873  55.0477028  43.9502563  31.4032631  54.3868370
  45.4490051  31.3387890  54.5882988  71.2122803  37.1958351  51.1579742
  71.3487167  37.3755836  50.2277527  71.8928986  37.7016373  51.6019936
  11.6857595  32.0221901  70.9598465  12.6247540  32.2045135  70.9240875
  11.3331118  32.6951294  71.5420990  71.7904434  21.7653141  19.1103745
  71.2657013  20.9647732  19.1137619  71.8487244  22.0173893  20.0319462
  37.6325607  17.9796028  63.7027893  37.2497482  17.8245907  62.8392754
  37.0765495  17.4837341  64.3037872  11.5622168  25.8246727   2.7143865
  11.7355518  26.0399590   3.6308138  10.6079655  25.8404713   2.6409962
  28.8057518  67.4355621  17.9245491  29.3747540  68.0737762  17.4942513
  28.4782181  66.8875198  17.2113838  12.5123463  33.9534683   9.4051495
  12.9254761  33.5185356   8.6592350  11.9951706  33.2669334   9.8263741
  83.7510605   5.7642655  87.4351120  84.2850266   6.5578923  87.3994980
  84.2229538   5.1334853  86.8913651  86.7090607  20.4132023  82.7820969
  86.2237549  21.0578232  83.2970581  86.4626999  19.5694084  83.1609802
  73.1303406  12.2576456  51.8122482  73.7759171  11.7069950  51.3692474
  72.2968674  12.0268831  51.4020004   1.1004615  21.9191990  20.0395603
   0.6223981  22.6131096  19.5854950   1.5270331  22.3625317  20.7728577
  50.2850914  60.6935730  50.6844292  49.9666023  59.9713593  51.2259140
  49.8088455  60.6022720  49.8591499  58.4940529  57.9401016  55.4432487
  59.3055687  58.4476471  55.4517555  58.3972321  57.6281204  56.3429832
  49.8507729  54.3294067  81.7009048  49.0067406  54.6276169  81.3619232
  50.1023026  54.9974403  82.3386307  63.1843681  32.2206802  37.9013214
  62.5354881  32.8691788  37.6281319  63.8503914  32.2441254  37.2142296
   3.4609644  20.1046028  27.3026485   3.5373862  20.3551559  26.3819885
   3.9172883  19.2652073  27.3611050   2.3160808  42.8134766  33.9791908
   1.7772926  43.2964783  34.6058083   1.8641427  42.9205170  33.1422195
  63.7440224  14.2550259  60.6111794  64.4506836  13.8308802  60.1243896
  63.0939903  14.4774799  59.9446907  86.1765213   2.7812407  68.7513046
  86.7722855   3.4173753  69.1470642  86.7429657   2.0585637  68.4809189
  54.6625938  67.1234741  23.6613560  54.5617142  66.9675140  22.7223492
  55.1903915  66.3874435  23.9710541   8.8405151  55.1471825  85.8258972
   9.3240356  55.6475792  85.1686020   8.0310993  55.6414223  85.9555283
  67.0237961  33.6408920  38.4602547  67.8684692  34.0362892  38.6757202
  66.4301453  33.9585075  39.1406441  28.3982887  38.6088638  80.0547867
  28.8937283  37.9055443  79.6351318  28.5424061  38.4772148  80.9918747
  49.8878937  62.4383087  85.1454773  49.9202042  61.8124771  85.8690262
  49.3805733  63.1742706  85.4878464  42.8788452  59.9811897  24.6221218
  42.0643425  60.3440552  24.2740555  43.3999939  59.7748871  23.8461876
  59.5661201  36.1955223  37.9037323  59.5862160  36.0509377  36.9577293
  60.4484024  36.4982872  38.1185493  62.7640419  23.9726143  46.5439949
  62.6528320  24.7453156  45.9901009  61.8727913  23.7216682  46.7867584
   8.7274694  68.9584045  86.8496323   8.1806993  69.1622467  86.0908737
   8.5259151  69.6478882  87.4822617   1.0121645  53.4006500   6.7732177
   0.4865194  52.6139374   6.6282535   1.6308057  53.4132881   6.0429058
  68.6751938  69.9346924   7.1531549  68.7320557  69.0964813   6.6944628
  67.9158096  70.3691788   6.7648458  15.4874458  59.5209579  34.9873657
  14.5534220  59.7249222  34.9401360  15.5380077  58.7634659  35.5703583
  42.5240402  16.1266880  60.7844238  42.0620308  16.8848896  60.4267807
  41.8343048  15.5847406  61.1675491  56.1941948  36.5609779  40.4332123
  55.4837570  37.1971054  40.5159874  55.9014664  35.9631577  39.7453499
  78.0181198  19.6167870  12.3604622  77.7654114  19.8365555  11.4637613
  78.3643570  20.4340439  12.7188540   7.0231748  21.4938717  53.4873543
   7.0615916  22.0710030  54.2500305   6.6034088  22.0219669  52.8082809
   7.7051306  13.4632034   7.0320959   7.7705188  12.6139183   6.5954361
   8.0795336  14.0835600   6.4066267   1.8715023  36.5189056  31.7560272
   1.8161653  35.5730247  31.6200867   2.7951686  36.6794968  31.9491158
  26.1907330  64.0817642  54.0091591  25.4436684  63.4853249  54.0579681
  26.1657696  64.5650024  54.8350487  75.3560333  35.9293327  17.9381771
  76.1955109  35.4701309  17.9128609  74.8910522  35.5377922  18.6775837
  83.6805649  45.6883583  84.2306747  83.6795807  45.9054451  83.2984161
  83.0401001  44.9817429  84.3127213  20.1777782  49.1550140  83.9132538
  20.3701172  49.9959335  83.4984055  19.2239304  49.0831566  83.8779907
  11.9712200  43.2455940  87.6803360  12.6857481  42.8850517  87.1552734
  11.7698946  44.0849648  87.2666321  86.6975861  45.2983131  25.3413162
  87.2968445  46.0238419  25.5166073  86.1591339  45.2364426  26.1302872
  85.1712723  11.0790043  78.2113647  85.9120026  11.6725874  78.0880203
  84.8594208  10.8976917  77.3247452  78.4428864  46.7116432  11.6284742
  79.0445251  46.5849648  12.3621054  77.5718842  46.6159821  12.0137482
  67.9070206  17.7921886  13.9570932  68.7255402  17.9607792  14.4238224
  67.5722504  16.9836922  14.3450270  66.7747879  12.9381857  71.5188217
  66.0883636  12.2714167  71.4971161  66.7670670  13.3185663  70.6404800
  57.2099075  11.2891693  19.7612858  56.7415504  11.9194489  19.2139072
  58.1281242  11.5517502  19.6968117  79.6104050  25.5973625   1.1756694
  79.3084183  24.7460308   0.8590124  80.1723175  25.3896503   1.9222199
   6.6208501  37.6817665  73.2111969   6.0001512  37.4489288  72.5207291
   7.4154954  37.1947174  72.9931259  19.7855549  41.3543091  65.8811493
  19.6427059  40.7043495  65.1931305  19.0627270  41.2176132  66.4935760
  70.5269852  55.6858749  86.5058365  71.1725006  55.9036446  85.8334427
  70.1037598  54.8903923  86.1828537  19.4586182  59.6340141  70.3114853
  20.2847023  59.4618950  69.8596115  19.5937786  60.4766655  70.7449722
  34.2156868   9.0056076  73.5084610  34.6034393   9.6909351  74.0527115
  33.3691444   8.8254013  73.9172592  79.5523300  29.7031155   0.1174491
  79.0314713  28.9291954   0.3318820  80.0312958  29.9000454   0.9224615
   9.9464016  32.3303413   6.9455614  10.8408680  32.5572395   6.6912422
   9.8190231  32.7664146   7.7880845   2.1828415  25.1989956  27.3986931
   1.3712854  24.8761616  27.7903385   2.8733032  24.6928787  27.8268738
  16.9448318  37.5596123   3.2694187  17.2693844  37.8631821   2.4216311
  16.9016876  38.3507004   3.8065898  82.9426193  41.9552231  51.3831978
  82.5849609  41.6556587  50.5473938  83.6049118  42.6028442  51.1419716
  58.9982529   6.9539571  81.8722305  58.5962181   7.6731963  81.3851013
  59.8533554   6.8335042  81.4592819  27.3165245  32.5890121  80.2824173
  27.2332973  33.4586639  80.6735840  28.2542667  32.3999748  80.3161163
  48.3692894  47.7776909  56.3338699  49.2171288  48.1955986  56.4847031
  48.5871544  46.8929672  56.0405540   4.1313791   2.6356649  62.5312119
   5.0548086   2.6912301  62.7770233   4.0792828   1.8627515  61.9689636
  74.6567917  38.6138077  43.3354950  74.7471619  38.4308853  42.4002914
  74.8880081  37.7897758  43.7641563  61.2146339   6.2636447   8.2544641
  60.9163933   6.3146987   9.1625814  62.1432114   6.0406060   8.3195057
  47.3079529  23.1817722  60.0049515  46.4994965  23.3797436  60.4776459
  47.9713554  23.0976048  60.6898193  27.0715866  62.9205589  31.7121906
  27.6512604  62.5965195  32.4015465  27.4779320  62.6231804  30.8981380
  27.3036594  25.0122776   5.1585617  26.4446297  24.6977158   5.4402533
  27.2392216  25.9657574   5.2129202  22.3501568  21.3060417  85.9614716
  23.2193832  21.6984386  86.0433350  21.8061333  21.7986946  86.5759354
  76.9697876  16.3919640  36.6673584  76.3722610  15.7181730  36.9916992
  76.4616928  17.2021790  36.7076035  24.4871731  66.6622314  27.0667343
  24.3574810  67.1069260  26.2290859  23.6307144  66.2888412  27.2748070
  66.2918320  69.6987228  36.7550735  66.6045380  69.6529388  37.6585960
  67.0884857  69.6812897  36.2247276  47.7539101  70.2279510  46.4350128
  48.1889267  69.6646271  47.0750656  47.7088013  71.0839920  46.8609009
  67.3610916  46.5294914  46.8633194  66.5895233  46.9908714  47.1920090
  67.9806519  46.5490646  47.5927010  18.9375839   8.1357088  66.4450684
  19.0205212   7.5052094  67.1604843  19.8048401   8.5348406  66.3758316
  39.7344284  57.9372978   1.6927128  39.5664062  58.8793449   1.6691600
  38.9796486  57.5482674   1.2509077  22.7322044  22.2077808  66.5491333
  23.2009449  21.5546532  66.0295792  21.8475819  21.8531532  66.6380920
  14.1643515  45.9262009  14.2555161  14.1168203  45.4921494  15.1073217
  13.9839678  45.2314339  13.6222754  80.5053177  36.5722198  58.2325478
  80.0482101  36.7922668  59.0442543  81.2607956  37.1597748  58.2162590
  74.8215103  24.3554287   6.5323567  73.8875580  24.3277397   6.7402205
  75.1314087  23.4660702   6.7033434  30.0781155   8.4217701  13.3959446
  29.5379200   7.6398392  13.5099792  30.2410946   8.4649611  12.4537106
  79.4640121   1.4503261  54.4087410  79.6171951   1.2198123  55.3250542
  78.7599106   2.0980449  54.4391937  42.8028946  11.2148867  82.0753555
  43.5077705  11.7320547  81.6855850  42.1073151  11.2240973  81.4178467
  38.2366905  47.1244316  27.2253952  37.8453903  46.3999023  27.7134247
  39.1750488  47.0515137  27.3997478  39.7721024  46.7680969  31.1889820
  38.8990974  46.5301056  30.8768024  39.6192322  47.1710434  32.0436707
  61.6009941  18.6321564  61.5364189  62.2154732  17.9749470  61.8631020
  60.7393150  18.2302113  61.6468086  50.4807587   8.2430182  31.1095257
  49.8077812   8.7814951  30.6931419  50.2505531   7.3450675  30.8709412
  41.2024231  64.4657669   4.1648374  40.6043663  64.1184998   3.5030537
  41.9536476  63.8729477   4.1434669  51.6873627  13.1230726  71.3963089
  52.5377655  12.6837234  71.3999939  51.6093597  13.5012522  72.2721710
  50.3758354  63.2675667  41.6500587  50.8283691  62.5123291  41.2744751
  49.8211441  62.8972969  42.3366852   5.9419584  68.8799515   5.8909059
   6.8096051  68.5140991   6.0628781   5.6454587  69.2033234   6.7416401
  32.8546410   4.0665421   8.6927309  32.7771225   4.3480601   9.6043062
  33.1182709   4.8559294   8.2198677  11.6078157  50.8384361  36.9548149
  11.0188217  51.5447159  36.6893234  12.4855528  51.1883240  36.8018837
  41.3859596  38.1819038  66.9338074  41.8728638  38.1916084  66.1097565
  40.6113739  38.7169342  66.7606506  15.6995630  39.2055588  38.0913849
  15.1936331  38.7901230  37.3930435  16.1730766  38.4842224  38.5057411
  31.8502865  66.8667068  87.2893372  31.4546566  67.7382812  87.2814789
  32.1917915  66.7506866  86.4026947  77.7916412   6.5117927  58.0948486
  78.2795486   5.7311983  57.8324471  78.4525299   7.0910454  58.4742241
   6.6318240   1.7094800  66.6368484   6.5873723   2.6181939  66.3393707
   5.9444160   1.6404492  67.2993698  66.7526016  10.8871040  63.9516449
  66.3407059  11.2204952  64.7487793  66.1134033  11.0615120  63.2608147
  21.1794453  64.0412979  11.8609772  20.7899075  64.1095123  12.7326651
  20.6688557  64.6459122  11.3224840  20.4504433  43.5304451   1.9985029
  20.7411118  42.8869286   1.3522621  21.1290627  43.5154839   2.6733978
  15.9397554  40.2932816  42.7281227  16.2182808  39.3837547  42.8349495
  15.5738583  40.3294983  41.8443565  15.4816141  37.8735924  78.7611618
  16.1490078  37.2687302  79.0851364  14.8203411  37.3087769  78.3612442
  52.9045715  51.3772888   5.0072808  53.1443481  51.0591354   5.8776350
  53.0492058  50.6276016   4.4299788  84.7993546  16.2090187  88.8973694
  85.1812744  16.3095856  89.7692947  84.9198227  17.0634823  88.4831085
  23.8077374  28.0766411  12.7593708  23.3003693  27.8764057  13.5459557
  23.7353039  27.2887726  12.2206240  17.8260307  35.0525131   7.3718743
  18.1885185  34.1846809   7.1938219  17.6122684  35.0360031   8.3047543
  76.1113358  31.0256443  41.3954239  75.2791748  30.8324432  41.8271904
  76.4222107  31.8246269  41.8211174  21.0917740  61.6574097  71.1047363
  21.7077351  61.2685928  71.7257385  20.7977028  62.4623184  71.5312119
  32.8051186   3.0667915  56.6925201  33.3262138   2.4313264  57.1833115
  33.1939507   3.0708871  55.8178635  63.4679413  67.2508163  23.7349815
  63.7609825  67.9273224  24.3454704  64.2614746  66.7591171  23.5234051
  34.5263824  46.5914497  12.4838905  35.1868668  45.9117470  12.6180344
  34.9851036  47.4109802  12.6687593  67.5862808  67.2370300  29.0645981
  67.4338074  67.9311600  28.4233761  68.4680786  66.9200058  28.8692646
  48.8491821  62.4946365  45.3275681  48.4798546  62.9777908  46.0667496
  48.1042557  62.0253372  44.9519691   4.7265272  49.2120247  28.8290730
   4.9348283  48.7922897  29.6637383   5.5787730  49.4238396  28.4482288
  27.3665047  50.8259430  79.7410049  27.4496117  51.6381035  79.2412872
  28.0929089  50.2819977  79.4365540  61.6527519  38.8093491  65.3525543
  60.8387108  39.0752792  65.7801666  61.6813469  39.3278008  64.5484238
   6.5394902  69.6330414  38.3726006   6.6630559  70.5351791  38.6677513
   7.4181204  69.3359833  38.1359596  60.3292999   7.9403338  56.5939140
  59.5469475   8.3378448  56.2116280  60.1252060   7.0062838  56.6400528
  64.8424225  31.5567169  14.8434095  63.9405746  31.3277569  14.6187153
  64.8801346  31.4743252  15.7963114  18.0923500  40.6547356  60.9071770
  18.3967876  39.7482033  60.9489365  17.9287796  40.8947182  61.8192520
   0.5059609  55.7220268  75.7015915   0.9176665  55.0511589  76.2462616
   1.1284127  56.4491920  75.7058182  53.2029762  58.7528915   1.5396599
  53.0091858  57.8940964   1.1639601  52.4257126  58.9700661   2.0543706
  41.9254723  34.3302078  75.6912842  41.4440041  33.6990662  76.2261429
  42.0006447  33.9100494  74.8345184  84.0548248  57.7401543  73.4501724
  83.5274887  58.4579735  73.0996246  84.8671799  57.7707634  72.9448318
   4.0461411  54.2560158  81.5705795   4.1377149  53.4354897  82.0549164
   3.1891010  54.5934982  81.8310013  61.9504433  24.1395550  82.9359894
  61.7026443  23.4957924  82.2723618  61.2776642  24.0578327  83.6119461
  21.6076145   2.6765854   6.9557300  22.4109116   3.1757913   7.1031747
  20.9236717   3.1914067   7.3839979  69.3333664  66.8718719  47.6410522
  68.4125061  66.6167374  47.6972237  69.4772110  67.4209747  48.4117851
  45.7026634  53.1205902  52.6386604  45.0996208  53.8072128  52.9234848
  45.1516418  52.3443565  52.5383453  79.5266876   6.6699610  -0.0138410
  78.7421722   6.1708550  -0.2411227  79.5836334   6.6056623   0.9394976
  50.2275810  45.7666512  14.9658127  49.2709503  45.7340965  14.9714174
  50.4602928  45.8110199  14.0383921  61.5968323  42.7406845  37.5905075
  60.8960686  43.0260429  38.1767960  61.2913361  41.9031754  37.2419624
  42.5223083  47.1528397  46.5707550  41.9568787  47.9157524  46.4503746
  41.9185600  46.4111214  46.6103973  12.2997160  37.7180672  70.6640930
  12.3631334  38.5880852  71.0581436  11.3619013  37.5265732  70.6560135
  80.1239090  64.2409286  74.7161331  79.2765579  63.9380112  75.0424271
  80.3705139  63.5949478  74.0542221  32.6228294  46.2333565  65.2546616
  33.2160568  45.8800468  65.9175949  33.1928444  46.4613838  64.5202789
  79.9971924   1.6940427   0.5606063  80.7961349   1.1919591   0.7213562
  80.0195847   2.3948987   1.2121671  49.0363159  47.6736031  50.0975914
  49.5260506  48.0620651  50.8224983  48.1572647  48.0440636  50.1766777
  50.3727188   0.1749377  27.6252804  49.8302498  -0.5229178  27.9926434
  50.0782394   0.9680640  28.0730133  43.1180229  68.9687119   6.6246066
  43.0667000  68.1528778   6.1265993  44.0556793  69.1130371   6.7518954
  35.8225365  55.3994331  70.9388657  35.3673859  54.7287865  71.4480820
  36.4303055  54.9087410  70.3856277  41.4016418  35.5250320  67.5612946
  40.5400772  35.3256073  67.9275894  41.3641739  36.4591789  67.3558655
  12.5659313  69.8172226  31.0051670  12.6475630  70.2987976  30.1819687
  12.7748156  68.9119415  30.7747917  34.1591797  53.7238998  83.8519058
  33.3394966  54.1434975  83.5905838  34.1303482  53.7170410  84.8086472
   4.7305512  19.3253078  56.4307060   5.5981584  19.7046566  56.5706482
   4.5884495  19.3942299  55.4866219  33.2621269  40.8082275  68.2713318
  32.8332405  40.4600525  67.4896317  34.0936432  40.3364372  68.3185349
  25.0896988  43.7271271  78.8632050  25.9990120  43.7679176  79.1593781
  25.1314964  43.9415627  77.9312744  71.3497467  28.7309589  35.3635178
  71.5981979  29.4211369  34.7485733  72.1705246  28.2802887  35.5621376
  42.4027672  48.9096336  35.2427406  41.5614052  48.7879715  34.8028145
  43.0057068  49.1580772  34.5420456  86.3657150  13.4927845  61.5522270
  85.9544983  13.0353394  60.8188248  85.7400360  14.1775646  61.7885246
  54.5166588  56.1340561  27.7991581  54.5849266  56.9909592  28.2202148
  54.0637589  56.3080368  26.9740257  77.5929031  57.1565971   0.1389058
  78.3885498  57.1121178   0.6691933  77.3279266  58.0754166   0.1812195
  36.9182968  49.2389755  75.6224976  36.8642769  48.4402504  76.1472397
  36.0165329  49.4074898  75.3492661  47.1264114   1.7732006  12.9450684
  47.0773010   1.3896873  12.0694332  47.5453758   1.0982223  13.4790211
  78.2474060  27.9041824  39.0150604  78.8735504  28.4409046  39.5009613
  77.4542236  28.4385052  38.9751472  54.5408211   9.9738216  81.2255173
  53.8602409   9.3008852  81.2114105  55.3589401   9.4851999  81.3158493
  56.5950623  49.9847450  16.7891426  56.9639282  50.6937752  17.3158760
  55.6864548  50.2457047  16.6389084  30.4427700  41.6945305  53.2274551
  30.9198036  41.6691055  54.0569267  29.5997925  41.2855606  53.4233246
  18.3784142  64.9099197  42.9380913  19.1721344  64.6754379  42.4571991
  18.6851425  65.4802017  43.6430244  11.8052444  68.5322113  84.2068939
  10.8676920  68.3467712  84.2601776  12.1962395  67.9881516  84.8905258
  76.2178192   5.4330540  67.4371490  75.2851105   5.4715004  67.2254944
  76.2437363   5.1826525  68.3606567  80.7855682   5.3740134  73.3667221
  81.0194855   5.2815151  72.4431610  80.1816559   6.1163673  73.3876419
  48.4498634  21.7719288  50.7585983  47.7152061  22.3855171  50.7541275
  48.6346817  21.6263351  51.6864357  23.2831593  63.2196693  45.4787903
  23.8419590  63.5651016  46.1749611  22.4061775  63.2023888  45.8619804
  60.7692680  45.8916855  66.1230469  60.8706436  46.8069496  66.3842773
  59.8250198  45.7760735  66.0169296  20.6463413  61.8877831  60.8973694
  21.4282856  62.0917892  60.3843613  20.4030094  61.0039597  60.6219025
  76.6610413   9.9086971  33.0756111  76.4072876   9.5630350  32.2198296
  76.1965561   9.3562822  33.7043610   1.2897257  55.6599121  30.3206329
   1.3868780  55.9248962  31.2352791   1.0668765  56.4685097  29.8593903
  67.0670929  13.1732206  21.5233631  67.3433685  14.0835495  21.4174938
  67.5530014  12.6957150  20.8509655  40.3840256  65.4552612  66.0511246
  39.6615562  65.7148590  66.6228561  41.1612587  65.8372421  66.4588318
  34.1565590  39.3622513  33.7458305  34.5362244  38.9928093  34.5430756
  34.1755257  40.3086739  33.8878021  60.3843536  22.2655239  36.1608963
  61.1123772  21.6656265  36.3231850  60.0440407  22.0032902  35.3055305
  56.6732063  38.8712044  25.9598484  56.4253883  38.1127968  25.4310417
  56.2196312  38.7410316  26.7926464   3.7377753  12.9976454  73.8543015
   4.4134336  12.5366936  74.3515396   3.5425911  12.4161901  73.1194229
  48.6671104  50.9826851  21.9048481  47.8587341  51.2750320  21.4837856
  49.0358505  51.7764053  22.2924919  26.2212448  55.7940292  53.1421318
  25.9998302  56.5396690  52.5842552  27.1511383  55.9090958  53.3378143
  66.4888306   8.6496277   1.1678222  67.4379196   8.5264559   1.1846701
  66.3701782   9.5992603   1.1866127  82.1218948  58.3009605  16.0533257
  81.1734467  58.1837578  15.9990873  82.3309555  58.1395187  16.9733601
   1.3820333  47.1876717  14.4498024   0.4304878  47.2413101  14.3608332
   1.6659305  48.0974579  14.5388193  17.7322979   1.3552163   8.8462381
  16.8409729   1.0939451   9.0775557  18.2218323   0.5333330   8.8131170
  72.5811768  70.3110657   9.2311153  73.2571335  69.6335526   9.2141752
  72.5412064  70.5866852  10.1469049  76.1067734  58.6727715   5.1689353
  75.4191132  59.3243752   5.3059592  76.8347549  58.9749870   5.7120209
  40.6239166   3.0338137  37.3713226  40.2722778   3.1446922  38.2546616
  41.0646324   3.8624361  37.1832123  10.8488626  29.4492645  71.1240005
  11.2685852  30.3039665  71.2217178  10.9170885  29.2543831  70.1893311
  64.1452103  33.7447815  75.8850327  64.5771103  34.5945740  75.7982101
  63.7663116  33.7573738  76.7639618  46.5105209   2.9711318  42.3967094
  46.1891518   3.8299444  42.6712875  46.7342949   2.5265157  43.2143135
  33.4934006  41.7874908  22.0033360  33.3655930  40.8395195  21.9680367
  33.6199036  42.0462685  21.0905037  23.2188454  23.6917896  11.4297733
  23.9852009  23.2780781  11.0325670  23.3942299  24.6307144  11.3673925
  82.1247482  10.2556057  18.4786339  82.9224548  10.4863787  18.0025692
  82.2846069   9.3673391  18.7974777  36.9942703  25.0212193   9.9943895
  37.9513474  25.0247669   9.9795990  36.7640114  25.5874004  10.7310400
  72.2062302  46.7056732  61.0797043  71.6931152  47.3532982  61.5629539
  72.1311951  45.9049225  61.5987358   2.0387886  24.9624882  80.4781494
   1.6530756  25.7058525  80.9416885   1.6999118  25.0346489  79.5858612
  45.7065659  40.2900772   4.1350770  46.1683006  39.6225052   3.6277494
  45.3762627  39.8221893   4.9020271  14.9493904  56.6277351  31.8099842
  15.6040936  57.2598610  32.1066589  15.4600630  55.8702164  31.5243034
  65.0051956  63.2461739   9.9027300  64.7837982  64.1425095  10.1553059
  64.9456635  63.2448959   8.9473839  29.5237885   7.8679423  82.4313736
  29.3772297   7.6155238  83.3429794  30.4760303   7.8722186  82.3341599
  72.7519531  22.7658367  12.8430328  72.5895691  23.2046719  13.6780701
  73.0799484  21.9003429  13.0871038  61.2092438  42.6357727  19.5569000
  62.0092506  43.1608620  19.5346546  60.6517792  43.0198174  18.8801594
  33.8471222  53.2743492  69.8831863  34.0127068  53.1919518  70.8223419
  34.4648476  52.6664658  69.4768295  -0.0706766  47.8303032  19.2830944
   0.6180311  47.2149544  19.0315800   0.0472087  47.9496231  20.2254848
  57.9743462  37.0175705  15.4026670  57.4959908  37.8369026  15.5295668
  57.6095924  36.4232407  16.0583763  17.8218861  40.0474777  68.3445358
  17.3388004  40.1221046  67.5215530  18.1611118  39.1524048  68.3428192
  16.7909527  65.0530243  22.5241928  17.2122555  64.1978989  22.6107616
  17.3998127  65.6632233  22.9403324  83.2003632  30.2308712   7.4112296
  82.8113861  29.7948570   8.1693993  82.7178192  31.0539875   7.3346400
  42.6574211  55.9974442  72.9526138  42.8654671  56.5334854  72.1873627
  43.4072037  56.1122475  73.5364609  18.0149231  70.4301605  27.2031078
  17.3918381  69.7557526  26.9326077  17.5143585  70.9973373  27.7896061
  84.8235092  40.8079834   9.9927111  85.4838562  40.3915482  10.5465660
  85.1525650  40.6944008   9.1010523  40.8493156  49.7404861  59.4652672
  40.3583794  48.9292221  59.3346291  40.2616386  50.2963028  59.9770660
  17.8623867  40.7662582  86.8744049  18.6959496  41.1765633  86.6440735
  18.0923615  40.1089706  87.5311508  28.8890324   8.1138210  71.9132919
  28.1649628   8.5169439  72.3922958  28.7784443   8.4171867  71.0121994
   6.5134053   6.9919286   2.7495863   6.5044889   7.5923820   2.0041950
   5.6509047   6.5771279   2.7333300   9.5078955  64.8771057  34.3915939
   9.5141706  64.1880722  35.0559921   8.8177776  65.4768143  34.6749916
  64.8985901  38.0824623  37.0947723  65.6615906  37.5091438  37.0215073
  65.0080643  38.5201607  37.9389687  11.4329300  46.3323441  25.7823181
  10.9293766  47.1273384  25.6072521  12.3321753  46.6391182  25.8984241
  47.9417114  54.8037987  83.8178177  47.7022018  54.4853439  84.6881409
  47.4378700  54.2564812  83.2154770  16.5797482  58.5895195  32.3989677
  16.3185863  59.1046486  33.1622925  16.6515217  59.2298088  31.6910763
  44.9340324  18.7330170  79.0700150  45.1041183  18.5203876  78.1523590
  44.2157936  19.3650608  79.0402679  80.8996429  52.8106461  19.5279198
  80.5995026  52.4282341  20.3524837  80.8999405  52.0790367  18.9106865
  54.8843002  67.7649612  54.2136612  55.0406761  66.8806458  53.8823509
  54.6781540  68.2799988  53.4336166  60.2138214  32.2944450  75.3006058
  60.3389168  31.6009464  75.9484024  59.2648048  32.3488197  75.1881714
  48.6349449  43.9542542   2.1942980  48.2941628  44.8397369   2.0677259
  48.4742317  43.5141792   1.3595914  17.6919575   6.0351877  68.1796265
  16.8679752   5.5753660  68.3404083  17.9727173   6.3331895  69.0448456
  51.9213409  24.7842484  35.9261856  51.0404358  25.0761757  36.1607361
  52.2117119  24.2699146  36.6794319  77.0838089  22.9409485  45.0382271
  76.2420120  23.2296982  45.3906898  77.5314560  23.7508316  44.7934151
  46.3153000  24.9426556  70.8433380  45.9078407  24.0828342  70.9478149
  46.9625702  24.9880657  71.5470505  70.3373718  52.9107361  39.2536392
  70.6889648  52.0658722  38.9729004  69.9086227  53.2628555  38.4736290
  24.0515423  29.1139812  63.6211052  23.5908241  28.2757282  63.6571655
  24.7685299  28.9668732  63.0042419  83.6707535   6.6303816  47.6084671
  83.8706589   5.7818918  47.2130737  84.4903183   7.1213279  47.5491104
  57.0476952  19.0671329  61.4747772  57.4393044  19.0360565  62.3476486
  56.2418747  19.5703697  61.5915680  35.9019737  37.9692955  76.8571167
  36.6500244  37.6324654  77.3502655  35.5130768  37.1938667  76.4525146
  68.6636124  69.8068390  35.3257484  69.0955887  70.4621658  35.8736343
  69.1815720  69.7883835  34.5210037  56.6278572  16.1333561  26.3014336
  56.8511543  15.3535938  26.8097057  55.6728859  16.1821613  26.3447895
  15.8579741   1.5390759  72.4838715  15.3465376   0.7503668  72.6644363
  15.2708769   2.0925601  71.9688950  29.1233292  46.0139542  10.7304783
  29.9646587  46.2695770  10.3522520  28.6195126  45.6782608   9.9890547
  74.4754410  63.7700500   6.9925504  74.7560577  64.0010147   6.1070342
  75.2894974  63.5874481   7.4617982  49.9979210   8.1353464  61.2822571
  49.6401711   8.5055742  60.4752998  49.2347755   8.0061569  61.8454208
  11.2202387  33.3759308  56.1230049  11.4146643  33.9639893  56.8528099
  11.2381239  33.9398193  55.3497353  74.5589600  47.7964096  13.1310568
  75.0275726  47.0507622  12.7560282  73.7481232  47.4214096  13.4747877
  21.5139503  35.1994057  81.0114822  22.4065113  35.1372833  81.3516312
  21.1010284  34.3756256  81.2705383  20.3463192  48.7092476  10.0801592
  19.5993061  49.2968597  10.1937914  20.9991894  49.0286064  10.7030573
  76.8909225  40.1662102  47.9556732  76.8682480  41.1206627  47.8868141
  76.0887985  39.8756371  47.5216370  84.5867920   3.3451755  29.9527760
  84.1118546   4.1727509  29.8767166  84.2292480   2.9353545  30.7404594
  67.1733246  13.6112556  74.3111725  67.2191315  13.3553991  73.3899460
  66.4470673  14.2334957  74.3511047   8.0656404  39.4128342  10.3597870
   8.7161837  39.6090660   9.6856070   8.1340265  40.1406784  10.9776840
  76.3470917  45.4159203  25.4268055  75.7614288  45.6106224  24.6951447
  76.9517288  46.1574936  25.4535046  22.4250202  53.8169250  49.9408112
  23.1489220  53.5175095  50.4908562  22.8297138  54.4255028  49.3226776
  71.3013458  50.4713326  37.9214630  71.1223679  49.9264603  37.1551018
  72.1783676  50.8220749  37.7664223  69.1440353  46.1179848  78.4218750
  68.7787857  45.2882652  78.1146469  69.2370224  46.0031776  79.3675995
  20.7181911  62.0351562  63.7772751  20.8351173  61.6811333  62.8956718
  19.8891010  62.5117493  63.7359810  85.4925766  63.5334740  54.6877251
  84.7302017  63.4557076  55.2612801  85.1904144  63.2033005  53.8416061
  -0.2242310   9.5436926  59.9244347  -0.3642718   9.7729692  59.0057106
   0.6726853   9.8236809  60.1071358  33.3350792  45.0124664  23.9326534
  32.4471817  44.7075920  24.1195297  33.3597984  45.1089211  22.9806461
  44.0197868   5.8193493  58.0687218  44.9711571   5.7154250  58.0506630
  43.7866821   5.7308478  58.9928780  46.4788971  12.7013426  37.1616745
  46.2914734  12.7133017  36.2230797  46.7061005  13.6070633  37.3721046
  29.0490646  14.0789967  68.4027252  29.1497040  14.5373878  67.5684738
  29.6406231  14.5364466  69.0002518  18.6113930  65.1724472  35.3800278
  18.4907551  65.2296677  34.4321861  18.9003601  66.0477676  35.6379700
  61.7762222  26.3496170  79.2050552  62.1355209  25.8414249  78.4778214
  62.3662529  27.0987244  79.2883377  46.8068504  36.2456474  84.5551453
  46.6358070  37.1217728  84.9006653  46.6713028  36.3297310  83.6113281
  45.4163361  26.9641552  78.2153168  46.0697365  26.6361027  78.8331223
  45.7906990  27.7792606  77.8811188  51.9902916  68.4905014  64.5665283
  51.9265785  67.5453415  64.4292221  52.7595749  68.6000061  65.1254959
  22.6101532  46.5055847  39.2493858  22.6281700  46.3187828  38.3107643
  23.2960663  47.1610527  39.3763542  77.1304092   2.7402494  17.3576984
  76.8211212   2.2013707  18.0858364  77.9285355   2.3042333  17.0591660
  79.4452362  24.7947922   7.0856681  79.4430084  24.5743084   8.0171261
  79.9020081  24.0647316   6.6678166  41.0651588  58.6878281  10.7527313
  40.7132149  59.5557404  10.9504585  41.0777168  58.6466179   9.7965021
  58.1682434  48.6312752  68.6154633  57.9672546  47.7184753  68.8219452
  58.8843460  48.8588943  69.2084427  22.1422844  35.2792435   1.6158202
  22.3017521  36.1590233   1.9575626  22.8932457  35.1026535   1.0491604
  74.2524109  58.2343750  10.0398664  74.8990631  58.6524086  10.6084795
  74.0073090  57.4338760  10.5039272  45.1704636  23.2542191  38.6518822
  45.2264137  22.9258747  39.5492630  44.8398018  22.5122509  38.1455421
  65.4797058  63.7788353  29.9491692  65.3908081  63.3311234  30.7905293
  64.9303970  63.2736130  29.3497982   5.6800008  62.5018806   2.0550647
   4.7344398  62.6324921   1.9837463   5.9782414  62.4115143   1.1500127
  16.3080692  33.4770203  73.9532013  16.8539982  32.8366699  73.4969711
  16.8589306  34.2569542  74.0201797  68.5795746  61.2659111  62.7071342
  67.7502747  61.4409637  62.2623291  68.6362457  61.9415588  63.3827972
  72.6210785   8.4941483  19.2387218  71.8500824   7.9597807  19.4291267
  72.6364136   8.5608501  18.2839718  47.2859955  27.8293877  82.6402054
  47.2892151  28.0467987  83.5723801  46.8864670  26.9605656  82.5982742
  24.3846798  49.6188164  78.7482224  24.4990749  50.2119751  78.0057220
  24.4600029  50.1820183  79.5185242  70.7130203  17.2964668  84.3632202
  70.3491516  17.2380733  85.2466354  71.6123810  17.5969257  84.4940033
  30.0258694  60.3032455  11.3410101  29.6874199  60.9005432  12.0080299
  30.5465927  60.8604469  10.7625589  74.2643661  68.0566483  63.6385651
  74.1841965  68.9747543  63.3799591  75.1252899  67.7910614  63.3152847
  56.6647453   3.6932275  37.4229240  56.1029167   4.3858852  37.0753517
  56.5997314   2.9869554  36.7801323   4.4595790  52.9664879  30.4991055
   4.2873149  53.6006432  31.1950970   3.7086041  52.3734970  30.5241394
  79.8776245  70.9693832  56.8106232  79.0029526  70.5899429  56.8954811
  80.0490570  71.3691101  57.6632996  70.8172684   1.1823694  54.7661819
  70.7773743   0.5364334  55.4714546  70.7087708   2.0251455  55.2068520
  23.6132584  34.8850899  24.7292633  23.4968472  34.4926605  25.5945263
  23.1571121  35.7248459  24.7837944  81.0839767  52.3730774  68.7782974
  81.9561844  52.5989571  68.4550858  80.7864990  51.6738663  68.1961975
  56.5088196  24.9765491  19.6167908  55.9628143  24.5075436  18.9858055
  56.8404884  24.2941437  20.2003536  63.9637566  58.5750656  79.7796936
  63.2492218  59.1720581  80.0016632  63.5703697  57.7035828  79.8243790
  23.0680275  41.3840675   2.1780045  23.4788189  40.7242851   1.6192862
  23.2012920  41.0601578   3.0688212  28.2111168  46.5671425  39.3369827
  28.1110802  47.3202591  38.7547112  28.1957150  45.8090286  38.7528114
  39.7601967  69.8543243  23.3933353  40.6241455  70.2638245  23.3471565
  39.9384499  68.9457779  23.6362381  29.0136299  37.4447403  19.1961269
  29.7871990  37.1293640  19.6634140  28.4228439  37.7455826  19.8865604
  18.2542210  40.8839951  10.4711065  18.9412880  41.3619003  10.0065880
  17.9674931  40.2136536   9.8508949  65.4352264  43.6239243  77.9394379
  64.9362335  42.8734436  78.2619553  66.1305084  43.7450180  78.5860825
  65.6006393  47.7772713  39.2740898  66.1494064  48.4745407  39.6331177
  64.7352142  48.1761322  39.1836929  83.3555450  15.6486664  18.3141956
  82.9500580  16.3170834  17.7618999  82.7936478  14.8804903  18.2121506
  25.2319393  67.2606354  51.5814209  25.2106762  67.5270538  52.5005493
  24.3178062  67.0785522  51.3636208  20.5290051  61.8822594  87.3080597
  20.9410858  61.8795662  86.4441071  20.4595375  62.8089752  87.5374069
  41.5575104  58.7649307   7.9241629  42.4525833  59.0771675   7.7915521
  41.5874672  57.8403473   7.6782279  61.4104729  50.0951385  76.9319153
  62.1343536  50.2772331  76.3326874  60.9290466  49.3801537  76.5156708
  30.0436153  54.1564064  20.2082863  29.1856270  54.0403481  20.6164761
  30.3546753  53.2656136  20.0471764  15.0986843  45.3741188  48.4463882
  15.9590864  45.5335121  48.0584030  15.2892494  44.9877586  49.3011627
  72.0969009  54.4359360  83.0525360  72.9635849  54.8243065  83.1719284
  71.6912994  54.4846268  83.9181824  71.1857681  23.8196850  37.3816986
  70.3637085  24.1897659  37.0600014  71.8620529  24.4029427  37.0371857
  36.2390213  63.5878754  35.8671875  35.8705559  63.2395248  35.0553284
  36.3410988  62.8218117  36.4319496  14.0408945  51.8306198  67.8326492
  14.4796352  51.1074562  67.3845749  13.2609692  52.0015793  67.3047104
  38.5466232  25.8163624  73.6633148  39.1573181  25.6600094  74.3836136
  38.6135445  25.0324402  73.1181335   0.8051016  62.8690147  79.4658508
   1.1707788  62.5742340  80.2998886   1.5700579  63.0617599  78.9237061
  16.1765442  10.5032892  81.5252686  16.9061794   9.9041061  81.3676605
  15.7876625  10.1968746  82.3444824  55.7511482  63.2099876  74.7580566
  55.7613983  62.4252319  75.3060455  54.8979988  63.6094589  74.9277191
  47.6202469  18.2623348  52.0306053  48.2148705  18.7360992  51.4490547
  47.2084770  17.6057167  51.4688873  82.0986023  43.6484413  84.9029388
  82.4495316  43.5760002  85.7905426  82.4984512  42.9204483  84.4271469
  73.3136292  33.8072205  44.9419518  72.4573364  33.3872833  44.8603935
  73.6852875  33.4395790  45.7437859  84.1429443  15.9963923  71.1874924
  84.3334427  16.3413811  72.0598068  84.3507385  15.0639839  71.2480469
  58.1875343  34.0199394  38.9223404  57.2649040  34.2305870  38.7787781
  58.6632805  34.7646408  38.5544815  77.7688141  27.6068897   0.8223628
  76.9139328  27.7352467   1.2333816  78.0385590  26.7311687   1.0990957
   2.2882659  13.9000721  18.9728088   2.1817877  12.9966726  19.2707424
   1.4711492  14.3321695  19.2214928  55.4399567   2.5251338  27.0759449
  55.3725433   2.1992013  27.9734154  54.5353775   2.6990063  26.8156891
  38.4352875  32.9920387   9.8733358  38.3048668  32.9225845  10.8190622
  39.3527679  33.2470322   9.7761717  52.2933388  10.7010756  20.2711048
  52.5603752  10.9305992  21.1611843  51.5515862  10.1076813  20.3890877
   0.0475506  42.4846954  53.0076332   0.9225788  42.5025826  53.3952408
  -0.2035592  43.4059296  52.9405212  56.8168297   4.7323265  80.8789062
  56.0226021   5.1590314  81.2004013  56.6307220   3.7959967  80.9487762
  71.3610840  52.4226532  27.5755272  71.4041061  53.2647285  28.0286198
  70.9906311  51.8215752  28.2218208  28.4646244  27.9670143  16.0395775
  28.6820431  27.5105324  16.8523407  29.0106277  27.5465202  15.3752766
  67.1430283  52.8466682  76.9485016  67.6955414  52.2700043  77.4761581
  66.9507751  52.3387833  76.1602631  20.8777008  13.5441608  65.5767670
  20.1192989  13.1014643  65.9576569  20.7877941  14.4555655  65.8551407
  19.2821465  38.2853851  21.7633247  18.5575504  38.9108353  21.7609215
  19.0996799  37.7102966  22.5064316  79.1426849  14.9631090  59.8604012
  78.7472534  15.8153133  59.6770668  78.4543915  14.4709940  60.3079567
  27.0114193  42.8755913  61.8358459  26.9677162  42.3041000  61.0692177
  26.3534660  43.5505524  61.6692505  49.2963638  12.8871965  33.9146309
  48.3707161  13.1020041  34.0297852  49.7638245  13.6081800  34.3364067
  58.8601189  47.3350983  83.5600204  59.4107170  48.1013947  83.3991928
  58.2770538  47.2957573  82.8019180  71.5759888  34.2244911  75.8711853
  70.6426086  34.2017593  75.6601791  71.6143494  34.6100616  76.7464523
  63.1113625  35.9488144  40.9664307  63.7025414  35.2857780  40.6098900
  63.6653557  36.7184486  41.0967751  59.5863152  60.4995384  10.2402229
  59.4545784  59.5517921  10.2146444  58.7452354  60.8504486  10.5329409
   8.7918463  46.0533943  71.7444763   8.8550997  46.4567947  72.6102142
   8.4389725  46.7441330  71.1835861  43.8087959  33.4479904  64.7751465
  44.6879730  33.5382118  64.4075317  43.2302399  33.8099518  64.1039658
  57.5603752  53.5868073  32.2415123  57.2882614  54.2253952  31.5824299
  57.1366463  53.8798561  33.0482407  30.4074440  33.2211304  78.2954941
  30.9608784  33.9172935  77.9415207  31.0040855  32.4842262  78.4267349
  58.8635406   6.3702083  77.8878937  58.7893219   5.4346952  77.6993790
  59.7040901   6.6252313  77.5075378  66.4722977  -0.3595522  83.4923553
  66.5205078   0.2859183  84.1975327  66.4783020   0.1618044  82.6896210
  35.7198143  49.5873947  13.7238941  36.3842125  49.9596825  14.3037252
  34.8931465  49.9487038  14.0437536  59.7809258  31.3383427  25.9733829
  59.9936218  31.5465565  26.8831291  60.6005173  31.4756069  25.4983444
  79.1082993  29.0098019  25.7258091  78.6092529  28.8047466  24.9351521
  79.4801712  28.1710320  25.9985847  25.4540005  19.3726673  81.0557480
  25.4249725  19.5225830  82.0006943  26.3651619  19.1392727  80.8781509
  50.3880234  28.8061943  25.9186745  49.8165894  29.3667355  26.4435463
  50.4790535  28.0058308  26.4357452   9.6699333  44.4120407  26.6952782
   9.9210873  45.2288017  26.2639313   8.7132397  44.4360275  26.7151527
   4.2387681  26.6657619  37.2552223   4.6297565  25.7922573  37.2739525
   3.2950265  26.5059204  37.2611275  16.5781040  12.9947987   4.2405162
  17.3924599  13.4861488   4.3483748  16.7895489  12.1114578   4.5425634
  79.3195877  58.5535278  51.0903854  78.7918930  58.8621902  50.3538399
  80.1264572  59.0658607  51.0382767  58.7298164  44.9119263  87.3622131
  58.3227806  44.0961266  87.0706253  58.0324974  45.5643539  87.2965240
  26.3348160  51.5289841  12.0722866  26.3126869  50.5724068  12.0458479
  26.7086105  51.7363319  12.9287424  56.9443359  47.4777946  87.7539444
  57.1560211  48.4070320  87.8430481  57.0023918  47.3080063  86.8137131
  18.5515938  16.4983387  17.7490311  17.8235283  16.2965984  18.3367825
  19.0334873  17.1948605  18.1949768  80.2217255  56.5380287  44.3171043
  79.7954102  56.1036301  43.5783310  80.4927063  57.3883591  43.9710693
  51.9422684  31.2728138   9.3845243  51.6772842  31.1215515   8.4772568
  51.1414757  31.1434231   9.8926773  61.4768753  45.3818054   8.5249157
  61.4260941  46.0222969   7.8153906  61.4061813  44.5334511   8.0872812
  71.7529984   2.3323381   3.8417714  71.6048889   2.5543716   4.7610083
  71.2964554   3.0173500   3.3533494  58.4843178  24.7752628  70.5603180
  58.2089691  23.9714413  70.1195374  59.4407501  24.7471027  70.5343246
  70.3075256   0.3842294  35.7703819  70.4042816   1.2481066  36.1711121
  69.7879028   0.5426308  34.9822655  28.3348980  19.8298950   1.0112126
  28.2104683  20.3953876   1.7734239  27.6538906  20.1031151   0.3965496
   8.7446861  17.6252785  84.3700180   8.7971020  18.3214359  85.0248795
   9.5478497  17.7175713  83.8575287   8.8473196   2.5492134  21.4785862
   8.5856867   1.7786449  20.9745979   8.1940966   2.6128056  22.1753559
   9.9284153  27.9421711  59.9262543  10.2010164  28.8074017  60.2317047
  10.3382311  27.8517914  59.0659561  15.5387812  34.6206741  15.1320372
  16.0148888  35.3819046  15.4638195  15.5290289  34.0058708  15.8656254
  21.7528152   5.4585419  65.9324417  21.9622231   5.7651410  66.8147049
  20.7970161   5.4873452  65.8894424  47.0863800  37.7863197  51.2519722
  47.2055473  36.8831749  50.9581032  47.9754410  38.1328087  51.3277855
  82.9236526  63.3194809  87.1103745  82.7567978  64.1598892  86.6836319
  83.2200165  63.5523109  87.9902573  59.4927368   8.3803358  61.4158058
  59.4793816   7.6294861  60.8222733  58.5694809   8.5717249  61.5807228
  73.2743378  33.0184212  70.9127808  73.6170654  32.1431885  70.7318420
  72.8259735  32.9308968  71.7539291  47.1174889  35.9903412  58.1197929
  47.1551819  35.3969498  57.3696594  46.7261124  36.7916107  57.7719078
  64.0053253  41.5901947  79.2905655  63.0762138  41.6887321  79.0825272
  64.1027908  40.6658974  79.5194931  53.4975281  36.2118187  32.1178970
  53.4129028  35.7446365  32.9490471  52.8406715  35.8099747  31.5493088
  81.6098938  29.7836628  37.2265472  81.9909286  30.5782070  36.8527222
  81.9390259  29.7600288  38.1250725  61.4670296  18.9518509  36.4489212
  61.9288101  18.6858311  35.6537933  62.0887909  19.5149670  36.9099503
  14.8857927  35.5861549  72.0522690  14.1062164  35.9299355  71.6160278
  15.6185675  35.9579048  71.5612717  63.8523521  64.4590378  81.9878540
  63.6679230  64.5512848  82.9225769  64.6030426  65.0326691  81.8340836
  45.3192749  61.2475128  45.0041237  46.0975609  61.2876968  44.4483490
  45.4614258  61.9254761  45.6647186  77.5577164  15.6064682  64.8849869
  76.9147720  15.5328674  65.5902786  78.2485504  14.9890175  65.1252670
  40.4990158  56.0580978  49.7220192  41.4014702  56.3323860  49.5590019
  40.2699242  56.4708977  50.5546951   5.4474816   2.8446927  84.5116425
   5.5268388   3.0584133  83.5819855   4.5366225   3.0455196  84.7266617
  69.3933334  41.8139610  56.2124519  69.7602844  42.6319046  56.5479393
  69.6523361  41.1537857  56.8553467  61.7394447  23.7732773  51.7476387
  61.6598587  24.6975212  51.5116920  61.1208954  23.3247643  51.1710434
  23.0221863  31.0753345  88.7083435  22.4396610  31.2876339  89.4376068
  23.7843189  31.6396503  88.8384705  11.2687931  68.8682175  16.9243603
  11.6648817  68.0297165  17.1615467  11.7593670  69.5163498  17.4298248
   7.4428515  39.9998894  23.0952263   7.5566893  39.4626961  23.8792553
   8.0313578  40.7432632  23.2266998   7.3461075  43.1263275  63.7526588
   6.5462661  43.0198479  63.2377319   7.9921794  42.5777893  63.3077660
  14.1142807  47.0760574  30.4609642  14.8234196  46.5433273  30.1010284
  14.1852465  47.9121132  30.0003090  34.0684776  45.5078964  33.2324409
  33.4108353  45.2167168  33.8640633  33.6679077  46.2621231  32.8000984
  65.9108353  59.0863686  39.9506454  65.0996094  59.2086830  40.4437828
  65.9176102  59.8051834  39.3185959   0.7582597  54.5174980  24.6291218
   0.0214607  54.5733490  25.2375965   0.3634505  54.6278114  23.7641430
  65.0846558  31.0902557  58.5651093  64.5846710  31.0124912  57.7525826
  65.4382858  30.2132549  58.7136002  17.8984966   2.5802245  81.5422058
  18.6069603   3.2237492  81.5559082  17.4174595   2.7362361  82.3549118
  15.8547077  66.0148849  28.7054348  15.6102657  66.2829895  27.8196583
  15.2961111  66.5409775  29.2776470  28.8409557  39.0043411  14.5217276
  29.7335377  39.0705376  14.1823950  28.9372425  39.0998993  15.4692659
  43.5690536  27.6614056   7.0014572  43.9439278  27.3758049   6.1683097
  43.6291771  26.8918438   7.5674877  39.8778839   2.8722551  71.0842361
  39.8441925   2.9876978  70.1346207  38.9819908   2.6408572  71.3293152
  83.4712601  55.4473724  64.2110214  82.5713959  55.5845795  63.9149666
  83.5817871  56.0636406  64.9350586  56.8011589  14.8158722  21.7120571
  56.8179054  15.0874462  20.7943439  57.5797234  14.2684641  21.8140907
  48.0997162  28.4870319  85.4422379  49.0414505  28.6523113  85.3969421
  47.8081436  28.9727020  86.2138214  65.6189957  31.5748615  76.8850555
  65.5977173  31.8074341  77.8133316  65.2114716  32.3192253  76.4422455
  28.2181015  39.8491440  55.4659538  28.5036297  38.9990311  55.8006401
  28.7084541  40.4874611  55.9839630  61.6644478  52.8314095   7.7401409
  61.7594147  53.4300537   6.9993029  60.8147469  53.0539894   8.1205339
  41.3717918  66.2378693  22.4795647  41.7794685  66.0130005  23.3159046
  41.6078148  67.1544647  22.3368301  58.6472664  41.4457169  25.6237526
  58.2569008  40.6159935  25.3491592  58.1504021  41.6982498  26.4019470
  37.9824104   3.6970897  88.4012146  38.0052299   4.4536815  88.9871140
  37.4470291   3.9833131  87.6611633  76.2193985  44.9348183  56.3779716
  75.8007202  44.3339615  56.9943428  77.1472626  44.7017403  56.4090691
  85.2670135  33.4749870   7.9831543  85.5612030  32.6900215   8.4452229
  85.6425095  33.3918152   7.1066194  82.2741928  22.3650894  28.5594044
  81.7939301  23.0839100  28.1484623  82.6318054  21.8654709  27.8254223
  83.3413925   1.7106596  55.3160934  83.1812973   1.1968050  54.5245399
  82.9351730   1.2021675  56.0179863  62.2864723  16.1835461  21.8767738
  62.8639183  16.7966461  22.3316288  62.1460419  16.5798435  21.0168533
  63.5678787  27.9850140  70.3102798  63.6979218  28.9189777  70.4746933
  64.1826706  27.5499477  70.9010315  38.1968079  28.2350311   5.1492820
  38.0504227  29.1242104   5.4720230  38.1091156  28.3077221   4.1988831
  48.1482620   6.4242110  67.3871155  49.0576248   6.2905087  67.6543503
  47.6763306   5.6813216  67.7634506  41.8895149  45.1791039   7.1435289
  42.2936249  45.5602531   6.3640103  42.3473625  45.5909081   7.8763456
  77.8442230   2.0959399  57.9206772  76.9333191   2.2419655  58.1759453
  77.8825378   1.1676661  57.6903038  44.1453018  50.8894920  51.7782440
  44.3991699  50.8146782  50.8583603  43.1886024  50.8612289  51.7657433
  18.6338062  10.8213034   2.4683573  19.3382320  10.7051601   1.8307631
  18.2436829  11.6658630   2.2430701  16.0693340  50.1660194  16.8296661
  16.7157249  50.8433914  17.0285969  15.2264090  50.6165237  16.8821392
  80.7130051  28.0853748  84.5346756  80.5501556  28.6889000  85.2595673
  80.6707306  27.2159214  84.9327850  71.2670288  46.1189537  51.9571877
  71.2472839  45.8766098  52.8829918  71.6572266  45.3622093  51.5197868
  78.2696762  48.7042465  17.5010319  77.3179626  48.6038170  17.4813061
  78.5677567  48.3246765  16.6744080  56.9027138  18.3920441  46.4051514
  57.1025047  19.3056755  46.6090965  56.1195221  18.4348488  45.8565063
  37.0401955  59.0895653  27.3867760  36.1560745  59.4539757  27.3447495
  37.3316193  59.2705383  28.2803936   6.5181885  56.5875473  69.5801544
   5.8455586  56.3022232  68.9617767   6.0429430  57.1084213  70.2275009
  65.7978668   9.1100664  70.1772156  65.8946533   8.1777668  69.9830933
  66.6161270   9.3504248  70.6118546  85.9632797  10.7375422  53.3250275
  86.4523392   9.9254761  53.4577065  85.5985260  10.9409151  54.1863213
  66.7086563  10.6828508  34.3624725  66.9746628   9.7690210  34.4644051
  65.8000488  10.6360674  34.0650253  82.4873657  38.4939880  36.8545952
  81.9968567  37.7493057  36.5066261  83.3781738  38.1623840  36.9673843
  84.0327301  12.5237246   4.1843958  84.7751083  11.9769306   4.4415402
  84.1859741  13.3588762   4.6262884  60.1958122  40.5419426   3.4789088
  59.3217163  40.9318619   3.4910793  60.7526131  41.1886330   3.9124959
  22.8285084  66.0370331  47.8337593  22.4041290  66.1798096  46.9877434
  23.6583157  65.6120911  47.6167870  34.1582870  60.5837746   8.0689125
  35.0645180  60.4460182   8.3445959  34.1233711  60.2354546   7.1780219
  26.4978600  47.4264870  79.4131699  25.5846252  47.1425209  79.3731766
  26.4615097  48.2939873  79.8161087  81.7839355  64.1139526  48.1325378
  82.2309036  63.3050156  47.8833961  81.9922180  64.7290268  47.4293098
  71.2023392  27.0124626  40.7509689  71.9080048  26.3716354  40.8382034
  70.5149689  26.5482635  40.2731934  68.0948410  43.3762627  52.0503349
  68.0174561  43.8472595  52.8800354  67.7172775  43.9702606  51.4016075
  65.2594376   7.2349024  18.0519371  65.1894073   7.9784350  17.4531994
  66.0354538   6.7600455  17.7543850  62.4163170  36.8056488  47.2697258
  62.6043472  37.7432365  47.3122368  62.7226524  36.4616470  48.1088028
  75.3667450  20.1203461  22.8630428  75.6884003  20.8748512  22.3695965
  75.9327393  20.0793247  23.6338844  59.1373253  62.1916275  84.6959686
  58.2871628  62.6077309  84.5534286  58.9850044  61.5746498  85.4117737
  84.4247971  62.0305901  27.6584320  84.5323181  61.0801582  27.6951504
  84.9354630  62.3000870  26.8950024  20.1484356  34.4035683  56.6453056
  19.2351799  34.4739685  56.3673859  20.4497948  35.3098221  56.7095070
  63.1001740  -0.1329025  72.8017578  63.2773018   0.0560821  73.7232437
  62.1869011   0.1245326  72.6757126  52.8344193  31.9786682  77.4421768
  53.5523300  31.4876766  77.8418732  52.9158173  31.8016930  76.5050049
  80.7174454  53.9095840  74.2883148  80.5021286  54.4303894  73.5146027
  80.5674210  53.0040359  74.0168304  57.7949371  11.0496063  61.4552078
  57.1174355  10.4238167  61.1990662  57.8204384  10.9972916  62.4106369
  83.6664200  34.3283691  20.1984100  84.1551208  33.5534019  19.9212284
  83.4906769  34.1809921  21.1277256   2.2574675  69.9075470  51.0350227
   2.8501561  70.5203781  51.4702072   2.3678308  69.0863647  51.5143013
  82.7586517  51.5555992  38.1800804  82.1126633  50.8880692  37.9491196
  82.3213882  52.3865356  37.9941292  86.2947922  64.0918808  32.3199921
  86.4094620  63.1645355  32.1123657  85.6889343  64.4136505  31.6524391
  71.6174545   7.5243526  25.0082188  71.9857407   7.8226371  24.1765823
  71.5602493   8.3164043  25.5426483  31.2530327  65.7030716  48.4789352
  31.5956059  66.1905212  47.7297592  31.0257149  66.3770218  49.1195183
  73.7940216  60.0079231   6.5849738  73.2258606  60.6244965   7.0467768
  73.7504501  59.2059326   7.1056919  11.6730137  37.5268784  75.1294632
  11.3304825  37.6585045  76.0135345  11.0555935  37.9886208  74.5621719
  50.7837791  13.6454277  78.6898575  51.0314064  12.7219305  78.6444016
  50.2715721  13.7166901  79.4953308  43.9342461  55.1985016  16.9609470
  44.3416672  54.6580315  16.2840939  43.0034103  54.9805145  16.9134235
  22.3986511  44.3166885   8.9742060  21.5125370  44.6372643   8.8060837
  22.8693562  45.0791588   9.3108158  25.1379967  55.0048218  58.3322983
  24.2321434  54.9668465  58.0253448  25.0655079  55.0805588  59.2837372
  77.1840897  70.3581009  18.3224163  76.7866516  70.5947342  17.4843941
  77.1283722  69.4030075  18.3527298  61.7723656  39.3924294  39.1282539
  60.9369774  39.8302689  38.9650078  61.7920723  38.6716728  38.4986877
  14.9813814  13.9276009  66.9084015  14.8323631  13.3633823  67.6671371
  14.9762945  14.8156366  67.2656097  73.1019821  65.0150986  31.0342770
  72.4658356  65.5037079  31.5565815  72.7149582  64.9769516  30.1596413
  11.2094011  44.2010193  50.3251686  11.6827850  44.0519638  49.5066795
  11.8691750  44.5528412  50.9227905  85.0307083  10.5508757  37.4295425
  85.2403488  10.9977999  36.6094551  85.1684723  11.2141628  38.1057854
  24.3891602  54.7662125  24.0127449  24.1184521  54.2884521  23.2287197
  24.0156288  54.2664642  24.7386627  84.0591583  48.5034218  30.8629990
  84.1357651  47.5496635  30.8363037  83.9065094  48.7056999  31.7860451
  41.4665718  40.1866188  87.5227661  40.9933014  39.3599777  87.6171722
  42.1560326  39.9965706  86.8865585  16.8448277  18.7195740  56.7218704
  16.7599392  19.5750751  57.1427536  16.2390766  18.7556763  55.9816055
  82.9615021  45.4856300  53.4641953  82.5304489  44.6482620  53.6351967
  82.2491760  46.1249962  53.4587440  68.9632034  61.2304230  51.8238411
  69.4687881  61.4715157  52.6000443  68.6399155  62.0633278  51.4803505
  48.6223068  55.9579964  50.7798157  48.8578529  55.9860802  49.8524742
  48.6145020  55.0257530  50.9968185  29.9127579   4.2386293   5.6038494
  30.2597160   4.1860881   4.7132926  29.0280857   4.5878549   5.4960155
  50.7822418  65.4784851  22.9877892  50.5132942  64.5999451  23.2562485
  51.7031326  65.5354080  23.2426510  36.6516609  31.6377163  43.1070175
  36.8282509  30.8763218  43.6595802  36.3124161  31.2684326  42.2916794
  19.8532772  29.2805290  21.0065060  20.7056637  29.5872154  21.3157215
  19.5662270  29.9533081  20.3890896   9.9237900  68.7479477  60.8961525
   9.5316114  68.0927734  60.3189354  10.6919050  69.0597153  60.4175797
  60.7728653  52.2150879  41.5466042  60.5091248  52.8395576  42.2224045
  60.0782967  51.5564461  41.5449142   1.1896368  53.2784233  53.6590462
   2.1202481  53.0671425  53.5845146   0.9569661  53.0237198  54.5519180
  79.5112534  62.5377350  63.8367538  80.0015259  61.7319183  63.9996033
  80.1085663  63.2385025  64.0982437  76.0876465  60.9450722  12.1231270
  76.8318024  61.5386848  12.2235432  75.4248199  61.4664001  11.6702337
  33.7738724   7.4908056  85.9477539  34.4318428   7.1478968  85.3430023
  33.5505600   8.3523178  85.5953827  72.6676483  43.3985481  15.1598673
  72.9318466  42.8470116  15.8962393  73.1250610  44.2268028  15.3047771
  13.7537823   3.0848327   3.9180350  13.9400110   4.0094452   4.0812602
  14.5210752   2.6227412   4.2556224  35.0829430  24.8891430  75.7091446
  34.1673088  25.0856266  75.9072418  35.0807343  23.9655647  75.4576950
  59.2004471   1.9976115  89.0153580  58.7329292   1.1654797  89.0875854
  58.7998962   2.4328396  88.2627792  78.4092102  17.1630707   4.7573376
  79.1296539  17.5483665   5.2560735  77.9984512  16.5486870   5.3656502
   6.0313454  49.2767448  80.9883575   5.7857199  49.2618256  81.9133835
   5.4626904  49.9417534  80.6002426  23.6950607  36.4336205   4.7345514
  24.3005295  37.0246849   5.1820822  24.2587700  35.7726517   4.3325796
  37.0173607  48.6781235  23.8244057  36.0869331  48.7244949  24.0443764
  37.3306465  47.8926697  24.2729015  17.1595306  11.2971859   8.5965767
  17.0894070  11.1587715   9.5411167  18.0674782  11.5682535   8.4609852
   1.4492811  21.5452232  60.9525909   1.9924703  22.2615089  61.2813950
   1.7697425  21.3899937  60.0640869  35.0545998  31.9011288   0.7663156
  35.4249191  31.1276379   0.3411040  35.0756760  32.5789680   0.0908004
  55.8521500  70.2683411  32.7802582  55.4732857  71.0555649  33.1713753
  55.9662781  69.6665802  33.5158463   6.8502126   8.1988831  80.0578690
   6.4873576   7.7951183  80.8462524   7.6266065   7.6763721  79.8568039
  56.9913521  70.5075912   2.4294665  57.5396347  69.7484283   2.6276882
  57.2225342  70.7418518   1.5306290  34.8093643  35.8146362  75.5461731
  35.1497879  34.9931717  75.1918640  34.4933624  36.2933006  74.7798462
  61.8167992  57.9365959   1.0885906  61.2265625  57.5567856   0.4377468
  61.3028069  57.9556427   1.8958575  73.8837585  16.3003502  20.7662716
  74.6434860  16.3945942  20.1916809  73.5301132  17.1865082  20.8430233
  25.2051010  65.1438217  21.7175026  25.5529480  64.4682007  21.1354637
  25.0651283  65.9009705  21.1488533  18.0120506  58.9595490  57.1943321
  18.1675873  59.0786629  56.2573929  17.2641983  58.3637810  57.2391357
  53.3624535  30.5057011  27.4760456  53.9812431  30.5423717  26.7466717
  53.0941010  29.5877819  27.5165558  69.9524994  20.3052444  65.2292709
  69.4011154  19.5405540  65.3949738  70.1081238  20.2882137  64.2849579
  77.1620026  43.2708206  50.7114601  76.9647446  42.9097900  49.8471794
  77.4317322  44.1727753  50.5383911  82.5514984  34.3381500  30.0280266
  82.8349304  34.7271614  29.2006378  82.9393539  33.4630508  30.0265369
  44.0863647  27.4603004  57.7168465  44.4708672  26.6285458  57.9935684
  43.1942482  27.2355938  57.4525337  72.5302048  52.3303299  66.1277618
  73.2409897  51.7995796  66.4873810  71.9476471  51.6975250  65.7077408
  33.2819214  70.8957520  27.6801815  33.6342888  70.4551544  26.9069118
  32.7639656  71.6196594  27.3281670  73.1099701  20.1355095  14.6179066
  73.6394348  20.6126976  15.2568016  73.3528519  19.2181225  14.7429800
  77.5203629  25.5141468  68.1527328  76.9406204  24.7979355  67.8935471
  77.5052414  25.5001698  69.1097183  48.2532692  45.7867088  80.7873688
  48.0343056  45.8015900  81.7190628  48.6177101  46.6544876  80.6130905
  38.4616051  71.1863937  26.9256630  38.2635193  70.8052826  27.7810860
  38.2655678  72.1177826  27.0272179  68.1875610  33.5596199  34.1937447
  68.2601089  32.6273499  34.3983002  69.0792084  33.8952293  34.2863197
  49.6603432  17.5965176  24.8636265  49.3353920  17.5232124  23.9662628
  49.4083633  16.7711601  25.2777805  -0.0927885  26.7796764  57.6450691
  -0.0769255  27.0727882  56.7339897   0.4971413  26.0261269  57.6645470
  79.3559723  54.0421982  53.4973106  79.7308426  54.8869438  53.2480850
  78.4759903  54.0502167  53.1207619  61.5935745   8.7905073  74.4689560
  61.6885147   9.4957924  73.8288040  62.4808388   8.4501877  74.5837326
  34.9203110  30.5273781  16.2955208  35.5132065  31.2730961  16.3883133
  35.4324875  29.7756462  16.5935230  17.4077530  31.8953953  17.0745525
  16.5819550  32.3785744  17.1033058  17.5740261  31.7606087  16.1415920
   5.5876713  17.3526192   8.6409569   6.1063685  16.8422718   9.2628336
   4.8301902  16.7994175   8.4501114  38.1881981  24.2983990  71.2021561
  38.7290039  23.5727177  71.5138397  38.3193474  24.3048248  70.2540054
  44.2869987  25.3783436   8.3565426  45.1914482  25.1376629   8.5572357
  44.0682182  24.8619328   7.5808573  42.5202179  44.3358765  56.3389130
  42.8543167  44.3189163  55.4420700  41.5925751  44.1159859  56.2531281
   1.3046249  18.7535000  57.3490715   1.2185736  19.7050667  57.4069366
   1.3309529  18.5720806  56.4095879  65.8312988  50.4548492  53.0055084
  65.2113342  50.2656517  52.3011742  66.6921768  50.3185196  52.6098709
  49.1674080  63.6714783  76.6501465  49.3915825  64.0953979  75.8217316
  49.9733582  63.2308960  76.9195251  75.5548859  66.9991531  32.7608299
  75.1591187  67.8695755  32.8051033  75.8420486  66.8207779  33.6563492
  26.2244720  56.4504623   5.3072257  26.6166592  57.3021736   5.1148448
  26.6953869  56.1390381   6.0801983  34.5809975  60.3304253  27.6279469
  33.8956642  60.0196266  27.0363789  34.1494713  60.3985291  28.4796391
  64.6662827  67.4478455  87.7320709  65.4356918  67.8983459  88.0803299
  64.9171677  67.1979065  86.8427887  11.1992588   2.4396977  54.9592819
  11.5210562   1.8520159  55.6428833  10.3945704   2.8105180  55.3214989
  63.4652290  14.7120638  73.1590805  62.5695496  14.4872208  73.4109421
  63.5904579  14.2840853  72.3120956  71.0822372  -0.1230392  39.8480797
  70.5654984   0.6826394  39.8576622  71.2245178  -0.3273334  40.7723351
  74.5379715  47.3316803  63.5683022  74.5481033  47.7437248  62.7043877
  73.7595673  47.6895294  63.9952240  26.5518188  11.6955843  62.5638809
  26.1249256  12.2797747  61.9372101  26.4505539  10.8225002  62.1847992
  57.3581696  20.7828503  53.2902908  58.1345177  20.3551159  52.9289589
  56.6291809  20.4218445  52.7858315  70.3422241  66.6901245  23.4576111
  71.1707916  67.0425720  23.1328335  70.2858353  65.8161774  23.0712605
  63.3692322   6.8904424   3.7749081  63.6560135   5.9987392   3.9720187
  62.7022552   7.0789714   4.4350853  49.3288689  38.2560081  81.3820190
  49.7482567  37.4287796  81.6187515  49.9859962  38.7171059  80.8606720
  55.9212646   2.2665901  87.2801132  55.3327179   1.5122049  87.3075256
  55.6068459   2.8411527  87.9781494  40.1298485  61.8776665   3.4230578
  40.2759094  61.6414795   2.5070262  39.8338890  61.0661125   3.8353918
   8.0213718  61.0464897  17.1086178   8.0298424  60.9753952  16.1540985
   7.5039949  61.8321075  17.2856960   1.9580551   9.6867161  14.2537813
   2.5001559  10.2429447  14.8132172   2.4319282   8.8561687  14.2105713
  26.8591518  36.4614754  77.3867111  26.5174122  35.5862961  77.2036667
  27.8018417  36.3332672  77.4922180   2.3591549  69.5662384  48.4431839
   2.4027381  69.7360001  49.3842010   1.4694487  69.8177338  48.1953888
  30.7076626  48.2518501  40.8746567  31.5244370  47.9018822  41.2305069
  30.0368805  47.6313972  41.1598206  79.4571838  14.8279552  33.4161606
  79.6604462  13.9582634  33.0718498  79.8908463  15.4316769  32.8130913
  10.1635246  63.4593086   4.5893011  10.3711119  62.6072578   4.2056999
  10.4064150  64.0919189   3.9132531  54.8929176  41.6491051  71.0458527
  54.9344444  40.8612862  71.5879288  55.2523880  41.3778725  70.2011948
  25.3142109  60.2056160  73.4835358  25.9572754  60.0991096  72.7825623
  25.1733379  59.3191490  73.8160477   7.1376243  22.1599483  73.6924820
   7.0807772  22.3676128  74.6251526   7.5780878  21.3106365  73.6626205
  44.5449219   0.4818447  75.5469971  45.0195007  -0.0034122  74.8720627
  44.5723343  -0.0879650  76.3156281   9.6881590  46.2802162   8.9734192
  10.2477922  46.1057129   8.2167206   8.8027678  46.3216248   8.6120329
  85.5586319  71.1485062  19.2814617  86.2349167  70.7389069  19.8209953
  85.9058533  72.0177383  19.0812092  54.4433899  55.8896790  54.2554321
  54.0598450  55.0142250  54.2033539  55.1871834  55.7903442  54.8496819
  64.7318115  45.2076797  29.3413830  64.4224014  45.7302437  28.6015015
  64.4796066  44.3104897  29.1230431  17.1138706  25.3731251  30.4838734
  17.8700523  25.9160404  30.7067261  16.3574638  25.8923779  30.7567425
  84.9232483  29.1112766  40.1453781  84.8991165  28.3562698  39.5574913
  85.2327728  29.8321095  39.5968971  38.9766808   1.5181147   7.2581439
  39.4232216   0.8877752   7.8233919  39.6123848   1.7152795   6.5702200
  58.2309914  67.8301392  11.5195150  57.7664452  68.6483994  11.3437691
  58.3442688  67.8183975  12.4699163   4.2925506  53.9846344  11.4047194
   4.4480648  54.0410385  10.4619226   3.9669325  54.8517914  11.6460571
   2.9208536  10.3407898  20.0687943   3.2110896   9.7153559  20.7327423
   2.9265552  11.1863022  20.5174675  24.4852943  21.4105568  76.1786499
  23.9442101  22.1881828  76.3156052  24.2981014  20.8525352  76.9335022
  11.3584652  58.5127525  39.2557335  10.7536945  58.0861168  38.6487198
  12.2169933  58.4210625  38.8425064  31.3627548  58.4194794  67.3368759
  32.0245781  58.4839935  68.0253983  31.2891712  57.4811668  67.1625519
  47.6185150  40.3095779  70.5900421  46.9340668  40.6904716  71.1402054
  48.2886810  40.9908447  70.5354080   2.9824848  53.3418427  17.2267570
   2.1024892  53.5848885  17.5144501   2.9487376  53.4061470  16.2723160
  84.2494736  10.4034328  51.4095535  84.7320099  10.4405079  52.2353973
  84.5895462  11.1390657  50.9002151  17.3342133   2.9370770  66.6879501
  17.6021805   2.6150148  67.5485916  16.9629383   2.1709237  66.2504654
  46.7030487  11.5039654  88.0020905  45.8368225  11.2231359  87.7070999
  46.6239014  12.4518433  88.1093063  78.2317734  59.7436333  28.7260952
  77.7882462  60.5916519  28.7455597  79.1237869  59.9331436  29.0170193
  12.7832565  28.1099949  50.2046890  12.7607574  27.1647205  50.0557518
  12.1911144  28.2502041  50.9435692  20.0266552   2.3023384  18.2067223
  20.4906330   2.4257617  19.0348072  19.1035099   2.2516959  18.4546547
  76.2863770  22.9118004  39.6738358  75.7613144  23.1284466  40.4442940
  76.7478027  23.7233810  39.4625244  68.8311005   2.2341852  45.9027901
  69.3667068   1.5068442  46.2195435  67.9405594   1.8839236  45.8805466
  24.0121880  59.9370842   7.3060756  23.8526840  59.0120316   7.4933424
  23.8740768  60.3783951   8.1441689  58.1483002  34.2571335  67.9283600
  59.0346375  34.2606087  67.5669403  57.6157150  33.8377609  67.2525558
  38.7935867  52.8478928  78.3624268  38.4077034  51.9756737  78.2814484
  38.0621185  53.4108124  78.6160126  79.8726807  39.8037834  10.8779354
  79.6116867  40.7129326  10.7311020  80.8254166  39.8102417  10.7858343
  25.5092049  66.6203156  76.1561356  25.7028980  66.5287857  75.2232208
  25.6328621  65.7411041  76.5138092   7.2934113  69.9689102  75.7835999
   7.0384331  69.0660934  75.9737015   7.0451126  70.1002960  74.8685455
   9.0631809  56.5496635  77.6937256   9.0310669  57.0094070  76.8547745
   9.5621042  57.1317329  78.2668686  54.9973984  52.3448715  44.2489433
  54.4535828  52.4461479  45.0301208  55.8564301  52.6763649  44.5104980
  29.6327648  20.3919220  74.4479675  29.1921902  20.8768749  73.7501526
  30.1673183  19.7441120  73.9888077  62.7409973  46.0463715  76.1429443
  62.4945335  45.3526802  75.5311584  63.4198380  46.5407715  75.6836243
  76.0634155   0.3138506  82.2514343  76.1785431   0.1072889  83.1789627
  75.3975906  -0.3039261  81.9493332   1.8080194  16.2691174  78.5401154
   2.2075026  15.5055790  78.1233978   1.8767821  16.9631615  77.8845215
  69.7362213  65.6116028   9.3565254  69.0745239  65.2590408   9.9515791
  69.4620743  66.5155945   9.2020025   8.4643517  11.8625746  19.9972782
   9.1257801  11.7212229  20.6746006   8.4754419  11.0573130  19.4799175
  78.8992462  71.2849808   9.4810934  79.5583572  70.6069489   9.3325148
  79.3680878  71.9764938   9.9482517  66.9008179  13.4084644  82.8116074
  67.3600235  13.8347588  83.5352325  67.2035675  13.8709946  82.0301743
  18.5781689  13.7847815  63.3090057  18.9588642  13.2606478  64.0136948
  18.5629063  14.6769419  63.6554871  75.5601120  59.9767303  82.0650940
  75.9627838  59.7412148  81.2292557  75.3159027  60.8965569  81.9625549
   4.3882523  25.2611523  31.6738110   3.5395682  25.6022625  31.3916569
   4.5862899  24.5642853  31.0482006  45.5746155  33.7132568  18.6305046
  46.4831505  33.8307495  18.9079781  45.0635338  33.8190613  19.4328976
  30.2167835  54.4076157   1.2675827  29.7724457  53.8048248   1.8637681
  30.6270428  55.0538979   1.8422471   7.7465944  27.7507648  81.4563522
   7.8550830  27.9485226  82.3865967   7.9587479  28.5709496  81.0107956
  37.3640327  43.4313431  53.1815338  38.2785072  43.2072830  53.0090065
  37.0674438  43.8615837  52.3795624   6.3314404  22.5187550  61.7421837
   5.9391460  21.8514385  61.1791306   5.6547647  23.1907558  61.8243790
  28.7970963  41.5285225  18.0372486  29.2190189  41.4339981  18.8912258
  28.8800220  40.6651917  17.6322575  56.5990372   4.8533683  73.8807449
  55.8381348   5.2466459  74.3080521  56.6299820   5.2673969  73.0182724
  67.5005112  39.5393333  79.8938599  66.6135178  39.4064941  80.2282715
  67.8891525  38.6645889  79.8916550  20.9064846  48.6316185  28.1448002
  20.2112484  49.2859230  28.0757809  20.5589104  47.8640099  27.6907063
  69.5304031  45.1636238  17.1766376  69.4352875  44.8014717  16.2957115
  69.4449615  44.4072800  17.7570477  67.9639206  43.4939728  42.9505196
  67.5491486  42.6952591  42.6245499  67.3714142  43.8103752  43.6324692
  74.5698471  47.6735039  67.7793121  75.4829025  47.4591064  67.5880203
  74.0641022  47.0197487  67.2965469  14.2980709  56.3109512  69.9097519
  13.8929977  56.4000969  69.0470810  15.1493549  56.7393188  69.8200455
  61.8252411  31.3380203  61.8001404  61.0554390  31.2949009  61.2328873
  62.4194031  30.6751041  61.4483681  77.9381790  40.1318359   6.9314942
  77.6815567  39.6770210   6.1292977  78.8951874  40.1164932   6.9198384
  16.4136868   4.3136635   9.0049019  17.1164055   3.7034783   9.2287169
  16.8332195   5.1740174   9.0089331  12.2866287  65.3699341  68.8015060
  11.8657942  65.1356049  69.6286774  13.0021133  65.9536362  69.0537109
   1.3184280  10.4386950  38.7617989   0.5210014  10.3136492  39.2762947
   1.6379453   9.5517864  38.5958633  64.3013153  69.7880783  13.3122206
  64.0465469  69.4861679  14.1841002  65.2493134  69.9082260  13.3678865
  82.6892929  42.3074493  23.4678230  82.5124893  43.0692253  22.9158554
  82.6279678  41.5606689  22.8721790  30.9827175  64.5108032  85.8394699
  31.6115665  65.1997604  85.6246948  31.4638233  63.6952400  85.6994019
  53.9971161  68.8410492  13.1248293  54.3136711  68.2011490  12.4872131
  54.1129036  68.4118958  13.9725628  70.4298859  34.4698257  80.3326569
  69.7559814  35.1474457  80.3866119  70.7502594  34.3786583  81.2300339
  47.6102600  38.9250069  37.0719872  47.5977478  38.0238914  36.7494011
  47.1448631  39.4257393  36.4019852  11.0485611  23.7954216  57.4926262
  10.6804552  22.9266624  57.3314209  10.2881498  24.3760605  57.5220108
   4.7963786  47.8536072   5.9970684   4.7611775  47.9464760   5.0450344
   4.9268270  46.9164238   6.1416364   6.2553020  21.1295433  85.4408340
   6.0775070  21.9631844  85.0053329   5.6699939  20.5054893  85.0116501
  25.8263493  18.8009109  71.5873413  25.7865524  19.3220024  70.7854004
  24.9526501  18.4183140  71.6679764  54.1379547   4.9451876   9.4123526
  54.4916115   4.0810299   9.2016582  53.8366890   4.8665085  10.3174934
  63.1382751  50.2947388  33.8445625  63.7371445  50.9711914  34.1607933
  63.3260422  50.2272377  32.9083900  50.9654160   9.1060410  57.6778908
  50.7863693   8.3347893  57.1399841  51.8479233   8.9606133  58.0188637
   2.1100793  50.0590897  35.4357491   2.5718937  50.8736076  35.6345406
   1.9643565  49.6518402  36.2896500  45.5881691  66.8567276  49.6933250
  46.0310287  67.0526199  48.8676529  44.6970177  66.6195679  49.4367447
  30.1843662  45.9810791  82.5849762  30.7096977  45.6100082  83.2938919
  29.2782555  45.8292427  82.8535614   3.7167263   6.6108027  83.0276566
   4.6354051   6.5128360  82.7773361   3.5611582   7.5549564  83.0030823
  10.6771202  30.7579403  56.2989807  11.1781693  31.4452114  55.8598442
  11.2898874  30.3810997  56.9304390   7.4319181  19.1604881  62.6677208
   7.9287047  19.2522564  61.8546906   7.2177939  20.0586071  62.9202385
  51.7387581  71.0676651  56.1293488  52.6396828  70.7672577  56.2490158
  51.2466087  70.2728882  55.9235420  85.1130371  44.3427048  37.0542984
  84.2495651  44.4883537  36.6677361  85.5403290  45.1983566  37.0153198
  17.2558403  50.7278900  74.1339264  17.1341591  51.1644211  73.2907944
  18.1808395  50.8607941  74.3411560   3.3331742  53.6886635  38.9246445
   3.2538531  52.7436028  39.0542564   2.8013020  54.0715790  39.6222954
  10.1750326  36.5624084  55.0307236  10.1961718  37.5193405  55.0225830
  11.0954981  36.3021927  54.9951782  16.0224953  30.1705608  12.0610027
  16.7445869  29.5591564  12.2059183  15.6473026  30.3085613  12.9307261
  72.2627487  36.1524811  84.1832733  71.6417618  36.8511238  83.9771118
  72.9130249  36.1954422  83.4821777  44.0003471  69.8986435  37.9482498
  43.6392517  69.0123520  37.9299126  43.2325172  70.4696121  37.9740829
  23.3089371   3.3126781  52.9879570  23.6310558   3.9002779  52.3044395
  22.6286163   2.7948287  52.5575790  19.5767574  32.6569748  78.5951385
  19.0534515  32.7265396  77.7966766  19.6686916  33.5594406  78.9006424
  54.3792953   8.7114697  19.6816177  53.5991592   9.2595558  19.5966339
  54.8013191   9.0183067  20.4841022  64.7940750  42.8095779  38.3191986
  64.8124237  43.6423035  38.7908592  63.9229774  42.7774467  37.9237404
   3.4352391  54.8806114   6.0868411   4.3358464  54.7421455   5.7936425
   2.9766719  55.1996231   5.3095508  55.8895149  33.7141037  19.9332542
  55.2002945  33.0635033  19.7993622  56.6408272  33.2072105  20.2411766
  79.7831421   7.9840393  58.9140320  79.7750320   7.9476051  59.8705063
  79.5843582   8.8972950  58.7074432  86.4419861  38.6678085  23.1263847
  87.3357544  38.4046974  23.3458862  85.9342041  37.8581009  23.1789474
  64.3363953  10.9864111  68.9307022  63.6654396  11.1787472  69.5857315
  64.7891769  10.2148075  69.2710571  24.1081257   2.9209611  14.8316383
  25.0434074   3.0081322  14.6475697  23.6771870   3.2417383  14.0394096
  56.9686966  47.7885513  26.2374287  56.5097694  48.2941208  26.9082623
  57.0447769  46.9100418  26.6098042  19.2226944  34.1301727  75.1505508
  19.6745205  33.7340393  74.4054565  19.0291309  35.0233650  74.8659973
  60.1565170  36.5364075  57.9803734  60.8106117  36.8733101  58.5926552
  60.3031693  35.5905685  57.9697037  12.3629332   3.3547289  10.8658838
  11.7820816   3.5460603  10.1295166  12.6182051   4.2148814  11.1993589
  78.4246826  20.7761993  44.0230675  78.5478745  20.8431988  43.0761948
  77.7128525  21.3864460  44.2157593  75.9945068  45.1599312  64.6373215
  75.4433594  45.8017654  64.1895294  76.3533478  44.6197052  63.9333153
  69.5985260   8.2068024  45.1382446  69.2306671   8.6223621  45.9181328
  70.4823074   7.9478002  45.3991470   4.4076610  59.4927101  50.7778320
   5.1037955  58.9081955  50.4778824   3.6883986  58.9070282  51.0141983
   1.1529691  63.7738495  68.3392944   0.8363710  63.7681656  67.4359894
   0.6141289  64.4323196  68.7778091  84.9316330  25.3648872  21.7490578
  85.0823364  25.7439537  22.6149845  85.6369171  25.7182159  21.2068787
  82.5258942  33.9980164  61.7438736  83.0449295  33.3766479  61.2332535
  81.7269516  34.1209068  61.2312088  17.1731510  43.4649506  53.0864716
  17.1322346  42.5209846  53.2397346  18.0380516  43.6079254  52.7021103
  35.4028931  59.1988869  49.6342621  34.7065468  59.2412910  50.2896538
  35.2180672  59.9269562  49.0409775  67.6240234  52.3917847  43.5515404
  68.3281097  51.7831993  43.7754135  67.6818390  52.4856148  42.6007080
   8.8741951  44.6230774  54.1737862   8.9210672  45.4200478  54.7018700
   8.9871254  44.9258003  53.2727661  34.6130600  10.1835260  28.4379139
  33.9938965  10.4066010  27.7428551  35.4706306  10.2147541  28.0138531
  33.4181595  48.3460770  38.6374359  33.6411133  48.9613304  39.3359947
  33.1931267  48.9020119  37.8914261  74.1913681  62.0720673  75.4359741
  73.7337036  61.5523109  74.7751923  74.0045700  62.9801979  75.1979828
  60.6904259   2.6767199   9.0980129  60.2962990   2.0072796   9.6572514
  59.9474792   3.1859300   8.7740231   2.7687397  38.8185921  65.5378189
   1.8303519  38.9847221  65.6276016   2.8318641  38.1780357  64.8293457
  80.4311295  47.7639351  86.7299576  80.1924057  47.1948586  85.9982452
  81.1253586  47.2886429  87.1864319  16.1079102  70.5584869  56.5724068
  15.5243692  69.8102875  56.4462624  16.9869957  70.1797638  56.5695496
  52.1901054  14.1949167  56.8765068  52.9916725  13.7371368  56.6232147
  52.3753090  15.1173925  56.7005272  67.1322861  34.0680008  51.6511726
  66.6026459  34.8549538  51.5230141  68.0288925  34.3508263  51.4713402
  54.7439270  61.2672462  88.0917053  54.0740471  61.4166641  87.4244995
  54.8266716  60.3148003  88.1389465  82.2628860   7.6987753  19.0597992
  82.6591644   7.6680474  18.1890259  81.3340225   7.5257449  18.9064713
  14.1371803   6.9957170  22.3876839  13.5842972   7.2225266  23.1354198
  14.0983362   7.7647543  21.8190861  69.5518799  11.9518967  71.4832916
  68.5974350  12.0222101  71.5013580  69.7807770  12.0363102  70.5577011
  13.5532475  55.2728653   3.7482309  13.7306356  54.7850761   4.5524869
  14.3847866  55.2637138   3.2742152  43.8942528  24.8053055  80.5773697
  43.4105988  24.3464050  81.2641907  43.5777283  24.4174385  79.7615280
  72.2784958  30.9846725  57.9458275  72.9250183  31.1903725  57.2706032
  72.7301102  30.3785686  58.5331268  30.9105453   1.5962441  70.3909531
  31.7891502   1.9180232  70.5928040  30.3229351   2.2354698  70.7938690
  31.2401695   2.2882426  58.5206184  30.8572159   1.5779818  58.0057335
  31.7401867   2.8015037  57.8859711  73.7392120   8.3279524  53.2381401
  73.5304337   7.3992205  53.1376419  72.9498520   8.7838573  52.9460945
  59.8047104  59.0268173  74.6720200  59.6409607  59.9162445  74.3584366
  60.2900848  58.6078415  73.9613190  45.0275917  54.2017784  30.0889721
  45.6898880  54.4890099  30.7175388  44.3091278  54.8250694  30.1964302
  36.2947197  49.0267448  38.6722565  35.5391197  49.4596214  39.0696487
  36.1181450  48.0919228  38.7779007  28.7534809   5.7613425  72.9587173
  28.9154549   6.6045413  72.5356140  27.8040237   5.6488290  72.9128647
  35.0388718  36.6124039  67.5228119  35.2393036  36.3653793  66.6200180
  35.2172585  35.8221359  68.0326004  35.4375267  64.1124496  20.6369419
  34.9955673  64.8639755  21.0320530  35.9097290  64.4783096  19.8890095
  12.3907299  49.9318161  64.7900162  12.5732708  50.4787636  64.0259781
  13.0957384  49.2843819  64.7950439  34.2901382  58.4047928  62.8167839
  34.2168121  57.5118904  63.1537971  34.3590736  58.9513474  63.5995750
  26.8204861  48.6718407  20.5757065  26.6425247  49.4768982  21.0619640
  27.7694817  48.6723824  20.4506454  19.1924629   3.1837192  72.0828552
  18.7328815   2.6315577  72.7154160  18.7813320   2.9790156  71.2430344
  16.5600719  63.9685822  25.7142773  16.4392300  64.9127731  25.8149529
  15.7973042  63.6816826  25.2121735  65.4004059  52.9797211  71.5199127
  64.7311630  53.4720650  71.0445709  65.6422424  53.5484848  72.2508392
  60.6499329  37.7105713  79.0952072  60.5976791  37.0318947  79.7681885
  59.7420807  37.8522758  78.8269577  69.5333328  56.5992050  51.8520279
  70.4675980  56.7351608  52.0098190  69.1038208  57.3070526  52.3323402
  42.4950104  43.8178482  69.4077606  41.9766769  43.9250908  70.2052917
  42.9990120  43.0176010  69.5554657  10.1852036  43.6021385   2.4233260
  10.1636324  42.9001541   3.0736983  11.0932493  43.6208267   2.1211090
  13.4877234  60.9259148  53.6396179  12.6620979  60.8184776  53.1673546
  13.7385988  60.0364304  53.8888359  36.4361801  41.1551857  88.3616943
  37.0851250  41.2295418  89.0613937  36.9409790  40.8852081  87.5945435
  45.7563591  64.9553757  85.3948898  44.9510918  65.2473297  85.8221359
  45.5470276  64.0836792  85.0594101  73.6537933   1.6644008   8.3822889
  74.1805038   2.3859391   8.7260733  73.1365509   1.3675138   9.1309900
  41.9208260  21.1837196  71.0789413  41.5170898  21.7423935  70.4147797
  42.2045135  20.4063778  70.5978012  78.1203918  21.2169209   3.4709003
  78.8467636  21.6142311   2.9905260  77.3350906  21.5706024   3.0532312
  24.2467613  56.1844788  38.2398109  24.3653831  55.9965210  39.1708488
  23.3449726  56.4981384  38.1717834  34.6246109  61.9471550  82.3537369
  34.3228188  61.4716301  81.5797653  35.0289040  61.2765923  82.9042969
  70.3164597  15.5694342  41.6678009  70.8509369  16.2804165  41.3141479
  69.7972717  15.2667027  40.9227943  60.1939240  67.4622574  29.6510258
  60.9084854  67.9385986  30.0737953  59.7158737  68.1320572  29.1620750
  58.3418541   4.5642753  39.9487801  58.3677597   3.7159047  40.3913040
  57.8050308   4.4124022  39.1709709  63.5277100  53.6464195  63.6420631
  64.2047729  54.3211098  63.5909920  63.8731537  52.9206200  63.1223373
  63.5698242  70.7105942   4.6670938  63.2857742  71.6231384   4.7201834
  63.3430595  70.4405518   3.7772164  52.0862846  54.9798431  71.6283417
  52.5845490  55.3381653  72.3628922  51.7805099  55.7494125  71.1482391
  57.3991661   6.7255225  24.0562038  57.2670174   6.6355791  23.1124458
  58.3333893   6.5608354  24.1840096  85.1187744   2.7212944   8.5589390
  85.2326889   3.6200790   8.8678751  85.5191956   2.7142994   7.6895447
  62.5564156  33.9690475  43.5554581  62.9215584  33.0988083  43.7154045
  62.4227486  34.0023117  42.6082191  53.3486633   5.2963243  27.3079624
  54.2532158   5.3485398  26.9992695  53.0370789   6.2012272  27.2906857
  75.9994583  43.4040222  17.4279461  76.1534576  42.4912720  17.6716709
  75.7947159  43.8413429  18.2544231  29.1303177  69.2622223   8.5852299
  29.5420189  68.7296448   7.9047189  29.4977570  68.9301147   9.4043312
  61.7501411  66.3297424  65.3796310  62.6334152  66.2758026  65.7445221
  61.3099861  66.9903946  65.9144592  50.8943901   7.2536521  33.7566681
  50.7769127   7.9943776  34.3514442  50.8024178   7.6317697  32.8821411
  52.6925964  68.0606842  83.5126266  52.1250420  68.8197403  83.3786774
  52.2104683  67.5064468  84.1263123  17.2848148  50.9511185  86.7976074
  16.3758144  50.6555519  86.8484802  17.2554016  51.7190056  86.2268906
  73.0293732  71.4557495  83.8684616  73.5905075  71.3676987  83.0980072
  72.7406235  70.5629883  84.0577545  61.5522499  42.8360634   4.7809539
  62.1151886  43.4090195   4.2603240  60.7819481  43.3698235   4.9758048
  28.9984226  43.5377731  88.5433121  28.1197834  43.8346519  88.7801361
  29.2125702  42.8753052  89.2002029   4.8801370   9.4357119  69.9117661
   4.3628669   8.7404652  69.5051956   4.6957579  10.2119293  69.3828735
  78.6833038  53.3526154  86.1956024  78.3232269  54.0929756  85.7072983
  79.1334305  52.8261452  85.5349579  81.7201385  34.2970467  76.0791397
  81.8008118  33.3628922  75.8865814  82.2257080  34.4205360  76.8824921
  19.6250439  47.9191093  56.7292252  19.4401646  47.5239792  57.5812378
  19.0367393  48.6726990  56.6819725  70.3057022  61.5284767  32.8132896
  70.4333878  62.2115288  33.4715996  71.0400620  60.9287720  32.9448433
  58.2927895  25.6317425  73.9489517  59.1623344  25.2522430  73.8220444
  58.4608192  26.5498257  74.1613693  40.0504189  47.5539017  83.3964996
  40.4209404  46.7356071  83.7271652  39.5722046  47.9184761  84.1412277
  52.2891655  45.3937073  21.9045238  52.5961876  45.5077248  21.0050964
  51.7665329  44.5921745  21.8794098  85.7384033  34.4749451  86.6186447
  86.2753525  33.6881828  86.5242004  85.4808807  34.4799232  87.5405350
  80.7171249  50.7551918  17.5540028  80.7880554  49.8322906  17.3101749
  80.5211182  51.2055931  16.7324486  62.8227768  64.9027786  18.4397850
  62.3771019  64.0898056  18.2017155  62.1744156  65.5878830  18.2770081
  69.0900726  62.6221123  64.9360962  68.8806992  61.8030014  65.3849335
  69.9185181  62.9031296  65.3246155  83.3471603  35.6969452  65.7788162
  83.0792847  35.2353973  64.9841843  84.2053604  36.0631828  65.5653076
  51.5875053  23.8204842  73.7100830  52.4710732  24.1457710  73.8824921
  51.3588409  24.1890717  72.8567963  20.3588734  63.9374695  83.5604630
  20.6037083  63.0447960  83.8042450  20.7704315  64.0741348  82.7071381
  85.3730469  48.5050201  45.0325661  85.9218216  49.2594643  44.8183517
  85.4825363  47.9107208  44.2902374  75.5264969  69.2174530  13.7535629
  75.8003387  69.3880615  12.8523779  74.8943100  68.5024414  13.6804991
  48.4067421  15.4669704  76.1618576  49.3603897  15.5383587  76.2029495
  48.2110672  15.4076252  75.2267532  46.5908470  46.7750244  52.4741516
  46.4629555  47.3139534  51.6934891  47.3886414  47.1198692  52.8751907
  30.3923550   0.3339723  17.1213112  30.9652061   0.8849859  17.6546555
  29.6947021   0.0648146  17.7188625  59.5213127  23.3311329  29.7787418
  59.3775749  24.2752781  29.8432655  58.8694649  23.0324078  29.1446342
  50.0530128  15.2486944  20.7029896  50.1474800  14.4291859  20.2174854
  50.2492447  15.0137691  21.6099262   2.9418278   3.5355716   1.1836672
   3.0347116   4.2760272   0.5842257   2.9338064   2.7660956   0.6143919
   6.4885106  15.8094578  22.1754875   5.7219224  15.6514482  21.6244831
   6.9671597  14.9806166  22.1633263   3.4810112  69.6323090  31.8801308
   4.0779853  70.2540588  31.4638615   4.0487280  69.0745239  32.4119225
  24.2942677  49.9479446  55.5610619  23.4598637  49.8152351  55.1111794
  24.8421783  50.4016418  54.9206047  11.8195553  48.6062775  11.9935656
  11.5627718  47.7006340  11.8200531  12.7670126  48.6168060  11.8577528
  83.1756363  64.2520905  26.9833069  83.9940491  64.7301483  26.8495102
  83.4476318  63.4071465  27.3415260  77.4462891  36.8239937  76.5633850
  77.7273483  35.9490395  76.8311462  77.2041855  37.2585220  77.3811874
  73.2028046   1.6607528  33.3936310  73.2611389   0.7058567  33.3619652
  73.5187225   1.9485424  32.5371208  30.0524216  71.4645691  57.3293419
  29.6247196  71.5682449  56.4793091  30.9878349  71.5263977  57.1359291
   0.7889763  54.6407394  46.4086533   1.2362909  54.5289230  47.2474861
   0.5057925  53.7584267  46.1687393  76.9669495  28.8179092  10.8020020
  77.1634903  29.7256126  10.5703144  76.6734009  28.4197350   9.9825401
  53.9191017  49.1840057  12.7858057  54.7003365  48.6899414  13.0344038
  54.2331924  49.8225861  12.1456547  13.6607437  46.5996666  59.6936455
  13.1467781  47.1216240  59.0775032  13.5474043  47.0419350  60.5349426
  85.7061615  52.6549759  47.8571053  85.3308105  52.4870224  48.7214775
  85.0622787  53.2127953  47.4206581   0.0222084   3.5074484   6.0352702
   0.3941649   2.6433330   5.8586783  -0.1972077   3.8549786   5.1707983
  41.0778313   8.2987270  57.5697975  40.9979897   8.8367691  58.3574295
  42.0162506   8.2876348  57.3814278  71.5102997  32.6853371  24.2186680
  71.6365509  32.4536552  25.1387844  71.0017548  33.4958992  24.2433796
  32.5608940  49.3601418  65.4498749  31.6902580  49.4754448  65.0691757
  32.5404892  48.4832726  65.8331680  29.4954987  51.1462250  74.8056641
  28.8202438  50.4886246  74.6388779  29.5177231  51.6744232  74.0077057
  40.4129524  28.5400009  72.2353516  40.3799782  28.8001633  73.1559219
  41.3196793  28.2667484  72.0960083  46.7893486  39.6898422  47.5657501
  46.7450638  39.6667671  46.6098557  46.5059128  38.8176003  47.8397751
  69.5518417  50.6893272  83.9687195  69.5097504  49.9902840  83.3161926
  68.9273148  51.3448486  83.6580963  77.4999695  48.8363609  47.3613815
  78.0575790  48.0615234  47.4315605  78.0755615  49.5144310  47.0076294
  65.4123993  52.6056290   9.0357180  64.5172119  52.4591751   9.3413706
  65.3888397  52.3761864   8.1067219  65.4369049  26.2481689  47.7245445
  66.1468353  26.8674355  47.8940811  65.6313400  25.8924541  46.8574219
  64.7053070  70.1782608  59.2172165  65.2932358  70.2596664  58.4662552
  64.6096115  69.2345047  59.3452797  61.0917320  14.4350424  69.3646927
  60.7768173  15.2434406  68.9602737  60.3684883  13.8169546  69.2592621
  85.0853348  41.3613434  27.3704262  84.2773514  40.9584427  27.6883335
  84.8073349  41.9079132  26.6354332  77.8818970  59.4845886  49.1104622
  78.2201614  59.9516029  48.3464546  77.0332565  59.8920021  49.2838440
  67.5331268  14.6586895   1.0826079  67.2587280  15.1506538   1.8565000
  67.8956680  13.8447542   1.4323295   8.4966545  34.0665894   8.9032345
   8.2091932  33.2761574   9.3601971   9.1036901  34.4877129   9.5118351
  69.7111053  18.5202122  24.3656178  70.2772903  18.7813168  25.0919037
  69.7463837  19.2582626  23.7571201  59.7409668  45.1499672  43.0971870
  60.0801849  44.9823952  42.2179337  59.3319588  44.3246117  43.3574371
  28.4581909  51.7094841  84.7267838  27.5172729  51.6094398  84.5822220
  28.7539749  50.8381577  84.9904785  32.5193214  15.1423292  15.3292570
  33.0703239  14.7051773  15.9785070  33.0913963  15.7997093  14.9332600
  72.6873169  69.5568314  38.1714516  72.1972656  70.0744019  38.8103600
  72.9051132  70.1779785  37.4764900  76.1012268  27.5687542  27.4770584
  75.6166763  26.7779121  27.7137280  76.8668747  27.5614376  28.0514774
  43.1494179  59.6675911   2.5099568  42.6731262  58.8926964   2.2117698
  43.5700302  60.0086517   1.7206562  48.6124420  26.8116302  75.9876328
  47.7371025  26.7997799  76.3747635  49.2015266  26.9388580  76.7312927
  60.6797905  25.8502865  41.9700661  61.1933632  26.6496258  41.8537521
  59.9474068  25.9454231  41.3611374  85.9368210  58.9721565  78.6777191
  86.6845474  59.5697289  78.6710205  85.6116562  58.9852753  77.7775421
  80.4659271  44.3319168  65.5290527  80.7954559  44.5872307  64.6673889
  79.8678665  45.0374908  65.7754593  73.3411713  35.2192459  23.1929512
  72.7393265  34.4749413  23.1972561  73.0483932  35.7597656  22.4592266
   5.5233006   4.3115935  66.1116104   5.3342752   4.8552618  65.3468094
   6.0684500   4.8655005  66.6703873  55.0354881  17.9609852  17.0236797
  55.3689499  18.8102798  17.3130474  55.3682632  17.8643951  16.1314011
  26.6561928  39.7955704  71.1248169  27.0961628  38.9686050  70.9278870
  26.7460747  40.3114319  70.3235397  40.0735092  49.4093437  51.4278183
  39.4628105  49.9009285  50.8786163  40.6223640  50.0796204  51.8349075
  82.0082626  20.1214314  80.0693207  82.8122940  20.3190880  79.5890045
  81.7955551  20.9355621  80.5255890   3.2532666  34.1896286  36.5418091
   3.2130952  34.0124626  35.6020050   3.8212473  33.5028038  36.8909492
  22.6895466  64.8997955  34.5552254  23.1710091  65.7118683  34.3972015
  23.1962223  64.2282257  34.0986099  68.0801239  31.1279564  75.9718552
  67.1322327  31.1817551  76.0936508  68.4462051  31.5007877  76.7738571
  57.1917419  31.1957188  39.5714378  57.3315620  30.3210602  39.2085953
  57.8433113  31.7435570  39.1337624  77.7522964  13.6245947  70.7414932
  77.6079330  14.4796953  70.3362808  77.0630951  13.5530748  71.4018860
  54.0995407   7.5188541  62.6958504  53.6872406   7.8550544  63.4915924
  53.3877487   7.0914159  62.2195320  56.0642853  14.4371710  87.2135391
  56.6242371  13.8852119  87.7594528  55.5516815  13.8182201  86.6935654
  24.1493378  58.6148911  50.8792801  23.4313278  59.1399345  50.5256958
  24.1019745  58.7507591  51.8256035  46.0581245  38.1637726  25.9712639
  46.7331314  38.5536308  25.4157410  45.5578575  37.6004829  25.3807793
  81.5298538  25.8285770  40.4992332  81.1204300  26.4986706  41.0465698
  82.4382248  26.1161842  40.4077415  75.9580460  11.5129976  36.7748985
  76.4184113  11.6867895  37.5959320  75.2166595  10.9629002  37.0278168
  37.1650505  61.0961533  16.2612476  37.4762993  61.1664047  17.1637001
  37.2304764  60.1632309  16.0572681   9.7523708  61.7849541  37.9356651
   8.8014383  61.6978455  37.8695335  10.0033159  61.1605644  38.6163979
  75.6815872  14.2616558  87.1563797  75.6969528  14.7597961  86.3391571
  76.0808411  14.8461704  87.8007202   2.1000330   3.3761289  37.4952316
   1.6468674   4.0704069  37.9736137   2.9864058   3.3754787  37.8565826
   4.9376841  43.4864731  34.5562820   5.0157957  44.3378792  34.1258926
   4.0223212  43.2370110  34.4293480  50.1564102  58.3195572  73.8086777
  49.9230576  57.7926025  74.5729446  50.0463295  59.2248955  74.0993195
  18.2029247  32.0238380   9.2520761  17.4727669  31.4131947   9.3531561
  17.9649029  32.5585098   8.4946470  54.3289223  69.0072556  27.9981136
  54.0756035  69.6489639  28.6616459  54.8968353  69.4928131  27.3998299
  15.3678150  45.5544510  67.9375076  14.4827366  45.8462639  68.1559448
  15.2534494  44.9993324  67.1661530  86.4126892  21.4431152   7.0294266
  87.2327194  20.9612980   6.9215097  86.5300217  21.9368496   7.8410249
  37.6583252  67.6339569  72.8582687  36.9422302  67.9346695  72.2987900
  38.3311653  68.3089905  72.7696686  41.6548462  43.6162796  66.7951965
  42.0862694  43.5696678  67.6483841  41.0487175  42.8754463  66.7925110
  41.0802536  69.0318375  28.8974628  40.3427277  68.4727325  29.1417618
  41.5335617  68.5436172  28.2101650  57.8740196  43.8490791  13.5684767
  57.7759972  42.8972855  13.5417919  56.9938011  44.1753578  13.7555304
  69.0475540  22.4119701  51.9515686  69.1265640  23.1553516  51.3537636
  69.0294724  21.6450806  51.3790436  74.6372604  47.6786613  79.5827789
  75.5872269  47.5732002  79.6345444  74.3263626  47.4862709  80.4673996
  52.9204140  49.4479294  69.2669373  53.6687698  48.9710884  69.6258469
  52.2712746  49.4394035  69.9703445   8.2085781  31.9414787  14.6093645
   7.4015832  31.9417191  14.0945911   8.2489710  31.0645771  14.9909945
  56.9156151  61.2483063  10.8508539  56.7581787  60.9618454   9.9511948
  56.0997849  61.0513802  11.3111534  13.3132925   1.7848022  12.9518671
  13.1471443   2.5119038  12.3519087  14.2516785   1.6152703  12.8686666
  22.8502026  58.1969910  43.7349396  23.7898464  58.3747673  43.7761345
  22.6498833  58.1830750  42.7990379  66.9449768  36.3656654  32.4769135
  66.7101898  36.8336296  33.2782326  67.8213425  36.0211601  32.6487770
  72.7627335  24.8493710  61.9363060  73.2388992  25.4024391  61.3169403
  73.4330826  24.5399055  62.5454826  31.4098949  66.6555862  79.7996826
  30.5761528  66.2129288  79.6410675  32.0624542  66.0946198  79.3805008
  39.0023537   4.3087687  62.9562950  39.3491974   4.8815308  62.2722816
  38.0772324   4.5458536  63.0208893  72.0735703   4.0535431  33.8588104
  72.6152344   3.2660968  33.8062820  71.3157578   3.8602247  33.3069229
  83.3125534  54.5348549  89.0827332  83.9122391  54.8271713  88.3963165
  82.5093613  54.3032494  88.6164017  33.3213921  51.8715286  23.6838665
  32.6336365  52.2233315  24.2490692  34.1349487  52.2108192  24.0570164
  33.8680992  43.1682739  59.8940392  33.0207748  43.4851303  59.5811844
  33.7783127  43.1452866  60.8467407   8.9388838  56.5619240  51.2990913
   9.6403198  56.6692772  51.9415054   9.3465338  56.0837250  50.5770264
  81.1250458  21.9854031  83.0400772  80.8659592  22.3371735  82.1883926
  81.7864914  22.5982742  83.3611832  77.8224335  26.3279839  25.6155033
  77.3360901  26.8827209  26.2253990  77.7421112  26.7722511  24.7714615
  29.3186092  35.8062782   3.4411240  28.9806843  36.2566147   4.2152267
  28.7609062  35.0335693   3.3510263  52.3515625  13.1026354  66.9825134
  51.7477760  12.7460918  67.6340866  51.9235382  13.8998289  66.6702499
   1.7267997   7.8490849  70.9783707   2.1568108   7.0586300  71.3047180
   2.0462120   7.9423370  70.0808716  10.7869797  20.9819603  75.2915268
  11.1709633  20.2742195  74.7739487  10.9153662  20.7108040  76.2005005
  63.9879684  22.5773525  52.5682106  64.2354584  22.0805435  51.7883606
  63.1269913  22.9392090  52.3584328  78.3071289  16.1971474  55.9782181
  78.6490860  17.0895004  56.0330162  79.0869598  15.6446829  55.9246025
  22.6125145  16.6344700   2.6909413  22.5164433  16.9447269   3.5913541
  23.4631767  16.1957855   2.6782448  26.9884109  19.5542698  67.9575119
  27.1991844  18.8373413  68.5556946  26.7178154  19.1196728  67.1487274
   3.7663453  49.0190659  26.1213665   4.4597774  48.8724861  25.4780178
   4.1697226  48.8022385  26.9619045   5.6925311  27.8157139  63.1271400
   6.2764993  27.4370708  62.4699936   4.9026709  27.2766857  63.0846939
  56.6054420  53.1070824  72.5769272  56.8520012  52.9265213  73.4840317
  56.7161331  54.0531502  72.4824142  78.5445709  31.5541763  61.5121307
  78.7157211  30.6657696  61.8246498  77.6264648  31.7125988  61.7316971
  75.3472137  14.3198252  37.3063316  75.6427078  13.4180756  37.1807861
  74.6866989  14.4522972  36.6263275  12.3852711  21.1579323  69.5154114
  11.6018381  20.8302536  69.9570999  12.7163439  21.8452682  70.0935059
  15.6391945  28.4706612   6.1833248  15.5147791  27.9744263   5.3743105
  14.9311533  29.1147881   6.1804986   3.5383503  43.5237083  49.1887894
   2.8296235  44.0037956  49.6171036   4.0806313  43.2035675  49.9096718
  85.3302383   5.0971813  51.5564308  85.7049332   5.2038646  52.4307632
  84.9404068   5.9484482  51.3574104  44.3402786  61.5402374  82.5687027
  44.2978821  60.5883560  82.4773026  44.3103561  61.8686981  81.6701202
  48.6242332  39.9561424  13.1844072  48.8505096  40.0133743  14.1127148
  49.4370003  40.1697845  12.7261534  56.4027367  60.4939003  75.0643158
  56.7931404  60.4042816  74.1949539  57.0859222  60.1970062  75.6654282
  84.7295303  44.1694756  14.9513378  84.8879547  43.9368820  14.0364428
  84.1636963  43.4715271  15.2813807  10.0653028  63.0281372  16.7789612
   9.6847677  62.2956886  17.2636719  11.0030518  62.8377228  16.7544441
   9.1529455  67.1781845  12.0537071   9.9128695  67.7031174  12.3050919
   8.4253407  67.5594482  12.5450974  48.2734985   7.3069234  28.4167519
  49.0359612   6.7451110  28.5554924  47.5271416   6.7080998  28.4411259
  26.2746124   8.9947042  14.2254171  26.2484264   8.7216110  13.3083754
  26.7166595   9.8435793  14.2100019  86.5753098  17.1163292  74.3398819
  86.0617676  17.2608452  75.1346283  86.3421860  16.2305622  74.0618439
  81.1750412  19.0283451  75.7860718  80.6942825  19.7999477  75.4865189
  81.0190506  19.0005016  76.7300644  27.4618416  60.7504883  44.5240974
  28.1868095  60.2944908  44.0966415  27.1700077  60.1479721  45.2082291
  12.7066288  45.2057495  52.1563644  13.1091585  46.0571861  52.3274193
  13.0309496  44.6420555  52.8587151  19.4862633  55.7983856  12.8395452
  20.1011467  56.1268654  12.1836090  18.6489067  56.1980057  12.6042337
  57.8678246  51.5252609  70.6186600  57.7565536  50.5805893  70.5116882
  57.3685493  51.7374573  71.4072876  71.2514038  18.1644707  41.1768341
  71.5651855  18.3605328  40.2940407  70.3215714  18.3907986  41.1562920
  69.4526367  37.4913864  21.8391399  68.4964218  37.5337334  21.8486214
  69.7338028  38.3667297  22.1055088  65.6448822   2.0986774  60.7228394
  65.4811096   2.7201405  61.4321976  65.3951492   1.2491068  61.0862846
  81.4468994  62.0963135  73.5224380  82.3604431  62.3284378  73.3557358
  81.4940796  61.2781105  74.0169601  58.9715500  63.9564552  88.2692642
  58.9411774  64.6302872  88.9484253  59.8963623  63.9002037  88.0288696
  47.1188889  27.1173534  10.7224045  47.7239532  26.6641655  10.1352530
  47.5557480  27.9447384  10.9244442  74.9726486  64.9311218  70.3683472
  75.2815933  64.2103424  70.9172134  75.6920395  65.5625229  70.3748779
  48.2916718   2.2891312  22.9352665  47.4558487   1.9547592  23.2605743
  48.0816841   3.1518843  22.5777817  18.3557835  62.2329063  31.3645802
  19.0099220  61.7520905  31.8716812  17.5192909  61.9907455  31.7619114
  29.8009529  70.3466110  33.7920151  30.7235489  70.5131226  33.9852066
  29.7391891  70.4172134  32.8394241  60.1766510  49.8697929  82.7979126
  61.0316277  50.2244110  83.0418243  60.1147766  50.0211754  81.8547897
  19.9137726   7.2042079   5.0898404  19.9694786   6.5558662   4.3878565
  20.1144047   6.7126799   5.8863192  50.6445961  26.4055176  63.4808540
  50.5212822  25.4815407  63.6983261  50.9946556  26.7954559  64.2818756
  71.2108231  23.8116684  48.2919197  72.0095215  23.8189754  48.8194160
  71.1013641  22.8959103  48.0357208  83.9458771  36.0310669  15.2164116
  84.0527115  35.7027092  16.1091595  83.1735687  35.5737457  14.8838196
  82.6010666  23.4980774  35.0651245  82.6681747  24.1780987  34.3948288
  81.6659927  23.4490128  35.2637634   4.5214624  51.0218773  20.7181873
   4.9404430  51.0284271  21.5787945   4.2680941  50.1089058  20.5820923
  62.1766319   6.3540139  70.5833664  62.0658913   7.2152491  70.1805725
  62.7302284   6.5162382  71.3472061  53.2595329  35.2942657  40.7612228
  52.8895378  35.2873497  39.8784523  52.6360664  34.7923279  41.2861748
  84.1243286  27.7690048  80.5664978  84.6403580  28.4008350  81.0672379
  83.2762604  27.7474251  81.0098495   2.8224919  24.6912708   9.2897673
   2.1472299  24.3693542   8.6925888   2.5235937  24.4202232  10.1577673
  36.1317253  65.9203568  26.5325317  36.7575188  65.5100327  25.9356689
  35.8465500  65.2093506  27.1064396  69.7325745  45.2973862  55.9862061
  70.2253647  44.9055176  56.7071953  69.6346207  46.2165451  56.2347565
  15.0229168  46.7990265  55.2830582  14.2944326  46.4589653  55.8025780
  15.8041048  46.4320831  55.6969795  65.5635223   6.0072541  29.2295189
  65.0318604   6.7164621  28.8681488  65.0948334   5.7345481  30.0183086
  69.9182358  43.2831116  47.6555748  70.3381577  43.0006065  48.4680328
  70.2817001  44.1525955  47.4878731  66.2193222  51.9052963  84.6608963
  66.1972351  51.7749329  85.6089249  65.7428665  52.7235336  84.5204849
   2.7429783  64.4227982  20.7210522   3.2969265  64.7621307  21.4240627
   2.2771082  65.1911469  20.3911533  66.1082535  56.5184250  60.5554848
  66.8032227  56.6780128  61.1940613  66.4875793  55.8905678  59.9405556
   9.6059628   8.6334696  85.0745010   9.1273928   7.9213057  85.4987946
   9.3424435   8.5849915  84.1555710  78.2934647  65.6555557  66.7951965
  78.0007172  66.4536057  66.3551331  78.9207382  65.9599991  67.4509964
  32.5924988  11.9933443  87.8666458  33.3454170  11.5716801  87.4524689
  32.4792252  12.8109198  87.3819122  58.5618973  19.7306709  75.2403183
  59.2573891  19.7636089  75.8971634  58.4529343  20.6397266  74.9610748
  57.8456955  34.7510567  52.3208351  57.5322266  34.4264030  53.1649704
  57.1248398  34.5784798  51.7151833  17.7790260  56.3178101  59.7598267
  17.1230640  56.6995125  59.1765213  18.4408588  55.9549522  59.1711464
   5.1403728  54.3287582  55.0273056   4.6924558  54.9324150  55.6199265
   5.6521211  53.7620354  55.6045151   4.4763436  57.6483879  44.7776489
   4.4403548  57.9470596  45.6863441   5.3687568  57.3198166  44.6686897
  51.4768257  32.6379623  61.3382797  51.3396454  33.4831467  60.9104080
  52.2565765  32.7666626  61.8783302   9.9512529  65.6862640  17.9034348
  10.1374331  65.0079880  17.2541924   9.5713654  65.2120361  18.6430473
  38.6262970  56.2016106  32.5928650  38.4519196  57.1206055  32.3897133
  39.5548935  56.1794510  32.8240585  25.2001877   9.0000505  11.6445189
  25.9784660   9.0479584  11.0893412  24.4895382   8.7798872  11.0422440
  49.8057899  28.6160965  74.0823975  49.0627060  29.0741539  73.6896591
  49.4125443  28.0387249  74.7367935  86.4095001  41.0711594  24.7247124
  86.0668411  40.6571922  25.5168304  86.2852478  40.4152298  24.0387440
  76.9883270  37.4989052  73.2099915  76.4986496  37.6751747  74.0133438
  76.6595383  38.1429977  72.5828781  74.7569504  60.0148888  51.0999832
  75.0075989  60.5675392  50.3597221  74.0223923  59.4954300  50.7731590
  73.7654190   7.7025232   2.6582005  74.0554047   8.6032572   2.8024821
  74.0978699   7.4802675   1.7885412  68.8266754  31.9507542   6.1821818
  68.4478683  32.5758209   5.5640950  69.5392914  32.4318237   6.6028633
   0.6888786  48.3294754  77.8660583   0.4123900  48.9081688  78.5766220
  -0.1079204  47.8633041  77.6130295  72.0752335   4.5222473  46.4098015
  72.4138870   3.6411881  46.2508087  72.3416367   4.7229543  47.3070030
   9.2922258  70.3438034  78.6499405   9.0320282  69.5107498  79.0430756
  10.1432638  70.5384369  79.0424728  70.0552292  18.6641541  53.9873505
  70.1766663  18.4953060  54.9216805  70.7599869  18.1755867  53.5620842
  86.3362656  36.9776497  17.1911716  86.2391586  36.8778152  16.2441578
  86.6194229  37.8844337  17.3086300  51.3766136   8.2639856  49.5822029
  51.4178009   9.1542444  49.9314537  50.5746956   7.8974175  49.9547424
  24.4012318  33.1467018  12.7252207  24.4294167  33.7943687  12.0209742
  24.8157101  32.3688126  12.3519535  40.3927917  44.2386513   0.2972191
  39.4906845  44.0886116   0.0145151  40.3086700  44.6754112   1.1448023
  75.5443954  49.8610725   9.9868555  76.4965134  49.7627144   9.9815006
  75.2109299  48.9693298   9.8877611  69.6431732   7.3821931  22.5423565
  68.7312088   7.5083499  22.8043461  70.0056000   8.2672377  22.5026932
  29.0512810  58.3917656  46.0362206  29.4862823  57.5814209  46.3014412
  29.6298733  59.0874596  46.3484306  25.5249920  47.2675629  32.4305191
  24.6686459  47.0150452  32.0853539  26.0805283  47.3508987  31.6554947
  34.7382584  51.1149902   8.4730902  34.8247948  50.4915771   9.1942682
  35.5159874  51.6688881   8.5406818  75.7244339  67.7629776  25.0179863
  74.8147659  67.7257156  25.3135281  75.7047424  68.3397903  24.2543583
  54.0993004  45.6210518  42.8935890  54.8478546  45.1538773  43.2645988
  54.4672775  46.1249161  42.1676788   7.8835030  58.5253601  67.0236664
   8.0630236  59.3486099  66.5695038   8.6023321  58.4352608  67.6492844
  49.8662529  43.4137917  46.2336006  50.5756836  43.7462120  45.6836548
  50.2690353  42.7131958  46.7465935   0.9232175  33.5897980  59.0784035
   1.4915893  33.8233643  58.3444862   0.6999091  32.6716309  58.9256401
  33.7290497   4.9604812   4.3436608  32.9310341   4.9744349   3.8152566
  33.6885910   4.1293101   4.8166828   0.7818159  16.6882057   8.5265179
   0.1990413  17.1828117   7.9503498   0.1930717  16.1682968   9.0736084
  60.8854294  45.6347351  78.2846146  61.5910149  45.5078506  78.9188690
  61.3288422  45.9275742  77.4884567  29.1409683  15.8368549  70.4710922
  28.3096256  15.5734606  70.0764694  28.8896427  16.3559132  71.2350616
  61.2018547   9.6521559  58.5739174  60.9315605   8.9289169  58.0081444
  61.5499229  10.3099689  57.9719505  52.2122765  30.7760277  74.2511597
  51.3830376  31.1593056  74.5369873  51.9732323  30.2053242  73.5208282
  85.0724640  63.8859482  44.6321106  85.1167374  64.7457962  45.0503616
  85.5567780  63.3077126  45.2214470  82.3036728   7.2893801  16.0811825
  82.7723541   7.8126850  15.4310093  82.9415131   6.6355243  16.3673134
  44.3945923  69.2064285  18.9805679  44.6662903  68.6622772  18.2414398
  44.0389099  69.9982071  18.5770836  10.3245173  50.0207367   9.5090084
   9.5597572  50.3345985   9.9915676   9.9642391  49.6534576   8.7018290
  42.1646423   1.7525561  66.4953079  42.8093681   2.3083615  66.0575409
  41.3716087   2.2874494  66.5301819  80.5649643  42.1133080  77.4063034
  79.9947281  42.3004456  78.1519852  80.7510757  42.9716682  77.0257645
  12.0063267  50.5549393  77.2406616  12.2861891  50.3220749  78.1259232
  12.1052284  49.7465172  76.7377701  19.4015274   3.3149078  85.3675156
  19.7014484   2.6205499  84.7808762  18.4976330   3.4808419  85.0997925
  83.6602097  42.6559563  74.3925171  83.1043015  43.1878395  73.8230362
  83.0627594  42.0175629  74.7820511  39.7364349  64.5190582  42.1929359
  40.1018219  65.4036713  42.1792984  40.3877754  63.9838676  41.7395515
  28.4439011  61.8560829  48.5733719  28.6540661  62.4968987  49.2526474
  27.5036831  61.9610405  48.4277496  79.8852386  51.7792168  84.2636261
  80.6530533  51.3668671  84.6594238  79.6164474  51.1725273  83.5737610
  16.9263744  59.0436211  59.9973793  16.6522198  58.9873238  59.0820084
  17.8796120  58.9619637  59.9673615  82.2471771  28.1245365  31.9353504
  83.2021255  28.0594482  31.9277458  82.0016098  27.9381809  32.8415527
  72.1833801  39.8167496  81.6254349  73.0174713  40.2164078  81.8720016
  71.5200195  40.4066658  81.9834595  27.8551941   7.9912472  79.9205322
  28.4312344   8.2552290  80.6379776  27.5387516   8.8158741  79.5516357
  63.6647415  44.8472443  66.1199417  62.8533173  45.2432594  65.8021393
  63.8613663  44.1601791  65.4831467  61.7404366  23.0543022   7.4941764
  62.3490791  23.1625404   8.2249784  61.5839615  23.9444580   7.1789460
  57.0210152  14.8377962  32.0537949  56.4690018  14.1155157  32.3535080
  57.8959923  14.6197205  32.3748665  52.2120056  16.3194427   5.8930936
  51.3615608  16.5141506   6.2868776  52.0642929  16.4021587   4.9509835
  45.4977417  61.5044479  54.1452675  46.1838379  61.1699524  53.5676727
  44.7534637  60.9214134  53.9957390  77.7279282  18.7324104  71.6829910
  78.1571426  17.8771324  71.7053909  77.2686768  18.7480030  70.8432999
  49.7214699  41.0220070   0.8221045  50.2356567  40.2259407   0.9567022
  50.3727798  41.7007599   0.6451241  59.6649742  18.7393036  80.7706375
  59.2224426  19.4636955  80.3283157  59.2469864  18.6925068  81.6304855
  52.2274437  15.7573919  70.2249527  52.0765266  15.0923290  70.8966293
  52.9733162  15.4270782  69.7241516  66.4491730  30.3084393  36.4372368
  66.2449265  31.1666565  36.0657806  67.3626785  30.3786602  36.7143707
   1.1849349   9.2017021   1.7956282   1.0298502   8.6940260   2.5921493
   0.3319333   9.2343941   1.3625561  62.2534027  29.1156387  57.6253014
  61.3696823  29.1166458  57.9930916  62.5111351  28.1937904  57.6237564
  72.3557587  71.2305756  42.6467667  73.0068665  70.5310898  42.7016373
  71.5800323  70.8699493  43.0762291  51.4218292  30.8614311  68.7719803
  52.0909653  30.5913086  68.1430740  50.8509674  31.4489250  68.2768021
  47.2489052   0.5074919  27.9819851  46.9827347  -0.3986706  27.8262444
  46.6180267   0.8356835  28.6226997  81.0649414  34.9877472  67.3289413
  80.9065170  34.0497475  67.2226868  81.9283295  35.1302795  66.9410248
  49.2734947  17.4932003  22.2190609  48.9284439  18.2078934  21.6839104
  49.5189667  16.8176174  21.5869503  -0.2912970  70.9532623  50.6081276
  -0.1181729  71.8170242  50.9825325   0.5210961  70.4658203  50.7446861
  19.9504299  14.7541819  53.8924370  19.9679165  15.7068367  53.8009300
  20.5102215  14.4352503  53.1845207  51.5223999  38.2238731  45.3199997
  52.3478622  37.8603058  44.9995842  51.6468391  38.3035088  46.2657318
  46.9683914   6.0227799  58.7342033  47.5328445   6.0861778  57.9637451
  46.7477531   6.9300876  58.9447861   5.6583161  70.0027847  69.2510757
   5.8452539  70.5684052  70.0003128   6.2609591  69.2658615  69.3510437
  46.9023209  56.7452278  39.6281662  47.5022087  56.2211380  40.1589165
  46.0531845  56.3157616  39.7318840  72.1020508  14.5120201  62.3875084
  71.5045624  15.1975174  62.6863861  71.5442810  13.7432690  62.2685699
  71.7140503  42.1279831  28.8527775  71.3077469  41.5846634  28.1775341
  70.9810562  42.4348907  29.3864040  39.4423523  27.9646873  16.6683178
  40.2214317  27.8115921  16.1336880  39.4927521  28.8906879  16.9054127
  59.8063698  48.3031311  25.0886021  58.9522095  48.4135284  25.5062733
  59.7653809  48.8574905  24.3093472  73.4715347   5.6954150  36.8077583
  73.2691956   4.7608643  36.7641182  72.6535263   6.1046653  37.0899010
   8.9406490  23.3108978  60.3310738   8.1480732  23.1081066  60.8279953
   9.6470184  22.8979874  60.8278427  72.9009018  10.6913414  11.8323164
  72.2962418  11.4303722  11.8990698  73.6815109  10.9769268  12.3069906
  76.5294113  64.6520691  81.3382874  76.5561676  65.5447998  81.6826019
  77.2111588  64.6338806  80.6666260  26.6572399  29.0657349  83.0957413
  27.4907093  29.4236507  83.4014511  26.7087326  29.1203442  82.1414948
   1.8946037  65.8787994  36.0044975   1.9179569  66.8191299  36.1818733
   1.6941541  65.8161240  35.0706215  60.7685394  32.7499886  57.8804626
  61.6844826  32.8120117  58.1514473  60.8040009  32.3754539  57.0002937
   7.6880150  60.1693077  57.4181900   7.4643240  60.7558632  56.6955948
   6.8974576  59.6477394  57.5568161   8.5925646  50.0532036  60.1265297
   8.6995678  49.5027809  60.9023018   8.0965490  49.5100250  59.5140266
  81.8886566  29.2429371  57.4232864  82.0692520  28.7605686  56.6164818
  82.0765228  30.1555157  57.2038918  74.6425171   8.0335093  26.2040462
  74.3252945   7.5033855  26.9351902  74.9465179   7.3947382  25.5592308
  22.3961143  17.3422565  64.9766235  21.7923641  18.0839252  65.0171661
  21.9037094  16.6118279  65.3511124   8.7119780  36.9324112  81.5970993
   9.4426537  36.3285942  81.7303162   9.1240349  37.7475510  81.3107605
  25.4392109  64.1299286   6.6721773  25.9783478  64.5711975   7.3285666
  24.9131336  64.8294678   6.2847295  65.1845016   2.3710899  17.9527111
  65.3049088   1.5377114  17.4975033  64.9249573   2.1238868  18.8402710
  80.3844681  48.0356865   1.3362054  80.0037689  48.6790657   0.7384049
  79.6991196  47.8769150   1.9852933  86.2570953   2.3766716  41.2074738
  85.3348389   2.3837409  41.4636345  86.6548309   3.0767267  41.7251282
  38.6124115  36.1637802  88.1919708  37.6870575  36.3664246  88.0545502
  38.6187286  35.2462921  88.4647598  63.9008064  25.0061779  49.6234779
  63.1178665  25.5262032  49.4423447  64.5986862  25.4473362  49.1391487
  30.8617001  44.4268684  52.5988655  30.9953175  43.6183357  53.0934906
  30.6291866  44.1331329  51.7180214  76.7571106  65.6256256  52.4948349
  76.8852081  64.9975204  51.7839813  75.8360672  65.8776703  52.4286652
  23.6462593  52.8508110  13.8165741  24.2839222  53.4964714  14.1210995
  23.4214516  53.1355362  12.9307842  45.4970665  54.8094025  19.4241505
  44.6994400  54.9287720  18.9086189  45.2138824  54.9176750  20.3320694
  40.7019730   5.9469047   2.1470695  41.0869980   6.6711087   1.6535952
  41.4074821   5.6451664   2.7192948  65.2079620  20.7396698  32.8085442
  65.8701172  21.4098568  32.9777603  65.4734802  19.9979706  33.3522453
  83.6607590  66.3195724  57.9345512  83.7843475  65.5875015  58.5387230
  83.1040192  66.9337387  58.4131660  26.8418655  30.6650448  10.3313789
  27.2154579  31.3238869  10.9166908  25.9200268  30.9102936  10.2520208
  68.8644714   3.1659539  18.1834927  68.2467880   3.4898546  17.5279102
  69.6380692   3.7196946  18.0779037  74.0421371  48.7649231   0.9750313
  74.9754105  48.7519569   1.1873246  73.6733322  48.0345497   1.4717926
  64.0954590  62.8407059  70.9128494  63.7488403  63.4257317  71.5865173
  63.7002258  61.9908524  71.1072006  71.1579590  39.4294815  54.8530502
  70.7265778  39.2056541  55.6776962  71.3650665  38.5844345  54.4540138
  35.9253082  59.7285652  58.0542603  35.7388039  59.9205551  58.9732780
  35.2595787  60.2150383  57.5680695  26.4935513  44.5204887  68.4146423
  26.3345299  45.4613304  68.4905243  25.6259136  44.1238556  68.4928665
  27.9678059  66.9176331  14.9703865  27.4642048  67.7161942  14.8125420
  28.8710117  67.1596985  14.7657928  74.5683823  53.6800957  61.2131157
  73.8725662  53.3573647  61.7857590  74.4472504  53.1990623  60.3944778
  80.1139221  59.9692345  39.5282822  79.7220154  60.8397255  39.4583588
  79.4061813  59.3684883  39.2949677  23.9685020  48.4939842  61.3271942
  24.9247208  48.4701996  61.3634453  23.7596149  49.4022598  61.1089401
  64.0578461  47.2508774  82.3209839  63.8853455  47.9996300  82.8918152
  63.6744652  47.4979439  81.4794312  76.0005798  29.6616993  61.8332062
  75.9609528  29.0353088  61.1105042  75.0898590  29.7684841  62.1078224
  29.4781570  47.6647606   7.9917030  28.5688572  47.6434631   8.2899532
  29.6857109  46.7522202   7.7906480  20.6946411  64.5567245  68.6457596
  21.1373463  64.0916061  69.3556213  21.3702717  65.1226044  68.2722168
  57.1954727  49.7875443  35.3441505  57.5731850  50.4624786  35.9080925
  57.3912888  50.0816002  34.4545326   4.9515457  68.6875916  48.5255508
   4.1147075  69.0177536  48.1985550   4.8838758  68.7642899  49.4772720
  62.5991287   1.1906347  39.6952782  63.1971207   0.9448045  38.9894409
  62.2281456   2.0271366  39.4144478  49.4340515  42.1892357  26.4371681
  49.0909500  43.0740051  26.3118916  48.6750984  41.6186562  26.3160725
  15.0403318   0.9544480   9.8746729  14.1420450   1.1626390   9.6178293
  15.0280943   0.0129546  10.0469294   8.3383751  56.2133827   5.2736650
   9.2425642  56.3975906   5.5281096   7.8791327  56.0780983   6.1025357
  74.3553009  34.5579414  53.0249367  75.1470184  34.0356903  52.8958321
  74.5179214  35.3644104  52.5356598  61.7060127  22.0998459  26.0815582
  62.4367332  21.5905285  26.4320965  61.9318008  23.0090694  26.2779331
  23.4321518  29.3395157  18.9641972  24.1643734  29.0076180  18.4446526
  23.1720161  30.1478615  18.5224571  49.5706749  67.6042175  81.4619141
  48.8511429  67.6926575  80.8368683  49.2625618  68.0562973  82.2473602
   2.0859518  70.0098114  59.0365257   2.0578830  70.8541183  59.4866219
   2.0274758  70.2317276  58.1072426  75.3920364   5.6463132  40.7079124
  75.4581375   4.8757200  40.1439552  75.3538361   5.2907476  41.5958023
  47.3197365   4.2572041  75.5948563  47.5811234   5.1747322  75.6726532
  47.3735771   3.9163013  76.4876709  73.4148560  58.5707893  37.6258698
  72.5133057  58.8107567  37.8400078  73.7069397  59.2526207  37.0208702
  66.5532684   5.1059990   6.1982784  66.2944870   4.2450404   6.5269356
  66.1757202   5.1504211   5.3198042  24.7602806  31.7678432   3.1379495
  25.6588249  31.4398079   3.1732049  24.5287266  31.7327175   2.2098434
   8.7309828  25.9265289  68.6332321   9.1696873  26.3208599  69.3870773
   7.8560181  25.7068253  68.9532318  19.5780315  28.4815159  80.5170288
  19.2420025  29.3752308  80.4492874  19.2613335  28.1701851  81.3649673
  42.6101265  49.1198235  74.2392654  42.9133301  49.8911591  74.7181625
  41.8747330  49.4371147  73.7150955  13.7664356  28.5177345  16.0048485
  13.6684465  29.1372776  16.7278957  14.1921291  29.0231876  15.3123655
  84.2724457  11.1704855   8.7326651  83.8667145  11.6186781   9.4747820
  85.2076187  11.1675339   8.9367990  24.3567352  66.9515228  15.0618877
  23.6068993  67.5049515  15.2802792  24.0479641  66.4036865  14.3402462
  79.3632736  23.7576180  55.9348145  80.0485611  23.2701874  56.3920021
  79.4375992  23.4769516  55.0227089  -0.2411952  46.7904243  34.1676979
   0.6612263  46.6592789  33.8767204  -0.1831564  46.8190117  35.1227074
   4.2938304  61.1457329   6.7969975   3.3530526  61.2773857   6.9146290
   4.3831735  60.2116432   6.6079860  15.2966089  57.2741661  79.8587418
  15.0775623  57.9404678  80.5101166  15.8849173  57.7195511  79.2490234
  17.6849957  23.0788021  18.8219624  16.9622498  23.6781998  18.6359730
  18.0891495  23.4298592  19.6154671  68.6580963  37.1336975  17.4763622
  68.5914230  36.9314957  18.4095840  69.3484268  37.7946434  17.4232235
  61.5003967  21.1834850  19.4984856  61.4981346  21.2486191  20.4534645
  62.3594475  20.8190346  19.2853088  79.0511017  45.6840057   6.2929492
  79.1529617  46.6045113   6.5348701  79.9467773  45.3646088   6.1834707
  31.9806271  12.4754934  78.3878479  31.0700130  12.4169636  78.0987244
  32.4735909  11.9899282  77.7264481  10.3315868  31.5218182  49.9325485
  10.3555717  31.9181461  49.0615807  10.7462263  30.6667137  49.8180809
  70.7779922   0.2387136  52.0330505  70.7329712   0.4656201  52.9618759
  71.4596863   0.8102203  51.6796417  11.7157612  43.5496368  14.9348726
  11.2673388  44.3515968  15.2032261  12.2085438  43.8007317  14.1536236
  44.9242439   3.1876256  89.0417633  44.6676826   3.7202260  88.2889404
  44.4355965   2.3714478  88.9354095  82.3713531  38.8931618   6.9406996
  81.9796295  39.5934792   6.4188361  82.3362274  39.2168961   7.8408089
  37.1838875  31.8344059  78.9912796  36.3868942  31.3415775  79.1866074
  36.8717766  32.6446915  78.5884705  23.8031845  59.0669098  34.3880768
  23.3775444  58.2671585  34.0791054  24.1826630  58.8252029  35.2329483
  67.6244202  29.1555233  63.2598000  66.7013474  29.3855190  63.3659515
  68.0394363  29.4502125  64.0704498  62.1330719  21.5434914  33.8679771
  62.6214485  20.7892609  34.1979065  61.9265099  21.3170376  32.9611778
  72.2482910   7.3503394  33.7733231  72.2754974   7.8167672  34.6087494
  72.2369461   6.4245248  34.0161629   2.7006855  61.0880280  19.6596680
   2.6028347  60.3022003  20.1973801   3.4958055  61.5065346  19.9896183
  65.0101395  22.7583141  21.8441982  65.8105316  23.1720715  22.1673336
  64.5940781  22.3975983  22.6271458  57.0163383  19.3950787   2.2585874
  57.5899391  18.6588631   2.4711847  56.4549980  19.0663586   1.5563942
  40.5033760  20.3148270  81.0853500  41.2813034  20.2473240  80.5317230
  40.2700462  21.2427635  81.0584564  81.0965729  21.9858112  57.9170799
  81.3438187  21.9234676  58.8396912  80.3722763  21.3674469  57.8209076
  76.4590378  38.9904404  36.2532005  75.7924652  38.5481720  35.7275467
  77.0166855  39.4307022  35.6117744  23.2472401  61.2390480  24.5171337
  24.0071316  61.8176994  24.4542236  22.7951756  61.5228844  25.3116817
  27.4319572  52.5577583  19.2744942  28.1567001  52.3367882  18.6895580
  26.6548538  52.5230865  18.7166920  28.1861191   0.9644946  59.0693779
  28.7032509   0.5190710  58.3982544  28.0951710   0.3183799  59.7697296
  28.1094379  14.6248493  13.5868797  27.6231804  15.4492464  13.5992708
  28.6443768  14.6503544  14.3802414   7.0189252  25.6692562  15.3251438
   7.2673683  25.1507454  16.0904236   6.0812774  25.8263302  15.4363928
  34.0562859  34.6068916  61.4351044  33.7688332  34.8931770  60.5681305
  33.3958397  33.9701614  61.7082634  85.4733124  20.6558094  75.5844040
  85.9019623  19.8285885  75.8039398  86.1888885  21.2330265  75.3179245
  25.7346573   0.6672578  61.3994217  25.2873554   0.9355786  62.2020149
  26.2691154   1.4239730  61.1586533  28.2688560  22.9737949  70.8551559
  27.4331455  22.9910564  70.3887711  28.0339565  23.1119423  71.7727432
  57.7829247   1.4096589  56.9265633  58.0630989   2.3105254  56.7647781
  58.3219490   0.8817430  56.3375053  28.0742741  33.2690392  10.9203424
  28.9506321  33.0215302  10.6254416  28.1962624  33.5448418  11.8287945
  60.7712708  23.0977364  85.3751831  61.2794952  22.3700733  85.7335739
  60.2645569  23.4249611  86.1184158  31.6752052  10.2704945  67.6106339
  32.3852272  10.3140936  66.9701691  31.7860241  11.0568943  68.1449814
  23.0350571  49.1462021  13.2333364  22.6863785  48.2553520  13.2655401
  22.8326168  49.4508133  12.3487673  32.4650688  43.8093338  62.1771851
  32.5240440  44.7495766  62.0077782  32.0352821  43.7461433  63.0301361
  50.5489311  13.0000753  81.3986359  49.9192543  13.2028208  82.0904694
  51.1950531  13.7045135  81.4488907  13.6123610  71.0163040  20.6874599
  14.4200783  70.8960037  21.1868114  13.0919123  70.2369766  20.8824387
  19.8040295  39.5819397  63.5060730  19.2298851  38.8429642  63.3048172
  20.5506134  39.1889877  63.9582138  13.4752550  32.2939682  48.0892334
  13.7216558  33.0041046  48.6818771  13.5538788  31.5011158  48.6197357
  23.5267487  66.8004379  59.9944839  23.7198315  67.7338867  60.0817871
  24.3163795  66.4282227  59.6018410  31.7343750  65.1194077  26.5876827
  30.9629936  64.6283951  26.3046494  32.4729233  64.5491714  26.3741093
   3.1182053  33.7219467  74.0356979   3.0026999  34.0355606  73.1387405
   3.7894156  33.0429382  73.9674530  65.7668686  58.9782219  70.5313492
  66.0428238  59.2341003  69.6512299  66.2645950  58.1818123  70.7163544
  86.7013321  15.7531538  30.7677841  86.7686310  16.7076054  30.7408619
  86.1111374  15.5342264  30.0466919  57.4146957   8.6961889  75.1055527
  58.0804482   9.0643148  75.6865005  57.8124390   7.8961577  74.7620697
  66.2073441  51.6022835  65.2400055  66.2037506  51.2496338  64.3501434
  66.3046875  52.5472755  65.1227493  28.3875065  29.7244396   8.2779427
  27.7021408  30.0121155   8.8810606  28.9491386  29.1574688   8.8064747
  27.4697399  70.5154495  63.8756332  26.5353165  70.5279160  64.0828247
  27.5205021  70.8446274  62.9782524  18.5433445  12.8205605  66.6201172
  18.5884190  13.1158400  67.5295181  17.6399517  12.5243149  66.5089874
  43.5406418  48.8003159  13.3052464  43.4457359  48.2587776  12.5216885
  44.2090149  48.3541183  13.8252592  29.6263828  40.8068542  65.0531235
  29.2157898  40.2106476  64.4268799  29.0706120  41.5860977  65.0417328
  68.4975204  42.8053856  66.7195206  68.1550369  42.8111877  67.6133347
  67.7341385  42.6226997  66.1717072  11.0921011  38.2523117  65.8889694
  10.8091812  37.8040886  66.6860199  11.9911547  37.9534988  65.7524185
  85.3673782  44.1743431  19.6460285  84.7644043  43.5929108  19.1827850
  86.0696259  43.5988579  19.9491730  14.6047440  70.2968445  41.4637680
  15.1782904  70.9029770  41.9326744  14.3235712  69.6694489  42.1297646
  11.9060125  59.0547409   1.0792104  11.4410906  58.2348518   1.2461457
  12.8210373  58.7941055   0.9741727   2.9550378  57.4483833  85.6322403
   2.7725461  56.5114899  85.7040558   3.6850343  57.5969696  86.2332916
  28.7310944  55.4172516  54.3271179  28.6515617  54.4688187  54.4289932
  29.6679001  55.5904083  54.4201050  48.6243019  36.8108253   1.0536270
  49.2054138  36.8152885   1.8142326  47.8911438  36.2539864   1.3156211
  74.2466660  24.1178436  85.2571945  74.8966370  24.7681408  84.9909515
  74.4742813  23.3334427  84.7580490  57.0044785  24.3756847  54.5245247
  57.9255905  24.6341019  54.4928322  56.5422325  25.1692543  54.7943573
  71.2094574  42.5502586  88.1000595  72.1304703  42.4287300  88.3307037
  70.9371414  43.3202744  88.5992050  44.7314224  49.3165016  57.4523659
  44.5343933  48.3964081  57.2767639  43.8795815  49.7524757  57.4293709
   8.2915983  63.4021034  64.8307190   8.7170286  64.0290451  65.4156799
   7.5048513  63.8543777  64.5262375  25.9318714  49.7975502  28.8703308
  25.0596619  50.1060181  28.6247158  26.2092419  49.2523689  28.1340733
  44.6382866  13.8972902  66.4488907  43.9287300  14.1136236  67.0538406
  44.4448090  13.0047789  66.1621475  41.7615547  35.8570747   1.9670343
  42.6467133  35.4952927   2.0099473  41.4037094  35.5179176   1.1465766
  29.7000561  56.2301788  26.1719456  29.8937626  57.1365509  25.9327736
  29.6659718  55.7640877  25.3365860   1.7747605  42.0524788  68.8373108
   2.5026777  42.0108490  69.4575043   1.1725159  42.6920395  69.2174377
  47.4190559   6.7471900  71.3471756  47.9189529   6.7743864  70.5313339
  47.8034782   7.4380517  71.8867645  13.2394457  46.4832687   6.6714215
  12.7655773  47.2352219   6.3161097  12.8130274  45.7228928   6.2761645
  39.7842674  20.6956654   5.2675900  38.8995018  20.3304005   5.2675633
  40.3587646  19.9317303   5.3184829  75.5023727   7.4791999   0.5052116
  76.3507462   7.3910918   0.9396437  75.5257568   6.8318291  -0.1994837
  22.1514454  39.7145805  56.2680931  21.9628983  40.5082436  56.7688751
  22.2144089  40.0131340  55.3608284  29.3597641  67.7632217  49.4665909
  28.4277248  67.6096420  49.3118362  29.3870544  68.2770920  50.2737007
  42.3362312  20.6926670  85.9637833  41.9218674  20.0508919  85.3870239
  42.4564667  20.2279930  86.7919464  56.4564667  28.6572399  79.1342316
  56.0836296  28.3167248  78.3210449  56.3193932  29.6031837  79.0829010
  67.1830215  55.1425819  42.9740486  67.2688217  54.4449387  43.6237907
  67.2827988  54.6989937  42.1317291  72.5330505  50.5508842  56.7186317
  71.9077301  50.2123528  56.0778503  72.9074936  51.3266106  56.3011742
   7.6483526   7.3194623  75.4679947   7.6637321   6.3805718  75.6536865
   6.8468318   7.6333184  75.8866730  77.6808853  23.8889828  33.6996002
  78.5430832  24.2025776  33.9725609  77.0927505  24.1620827  34.4036865
   0.1216605  21.2896194  34.5802383  -0.2871870  22.1498337  34.6756592
   0.7135812  21.2213364  35.3293724  76.9688263  40.3755035  77.6950989
  76.1675186  40.7250557  78.0849075  77.6751099  40.8511353  78.1323318
  12.9344311  35.2094803  69.9857178  12.1454973  34.9675217  69.5006638
  12.7287922  36.0630112  70.3670731  58.7724457  15.0446005  73.4213104
  59.4418907  14.3829031  73.5951767  58.9414749  15.7315168  74.0661469
  13.2724857   7.9734454  70.3508911  13.6064415   8.6762714  69.7934494
  12.3217316   8.0823393  70.3298721  80.0677414  70.7242508  52.2453957
  79.7244186  71.0735397  53.0678062  80.1241837  69.7799149  52.3912659
  32.6284599  69.0624161   6.1023068  32.3422585  69.7730026   6.6762290
  33.5574074  69.2364349   5.9506316  66.8290634  63.2151909  75.6364822
  66.1209259  63.7453537  76.0021439  66.5971146  63.1092720  74.7138748
  39.5748863  34.5571899   6.2332625  38.8200035  34.9861641   5.8303175
  40.0541306  34.1753540   5.4979005  66.8159943   9.3090563   6.1877294
  66.5342560   8.6276016   6.7980399  66.2933350   9.1564913   5.4004641
  49.7755814  55.7681122   9.6567774  49.2813721  55.4528465   8.9000759
  49.7260971  56.7220116   9.5946455  78.8785629  61.5422134  12.3411264
  78.9878998  61.0870552  13.1760569  79.5172272  61.1309586  11.7587090
  38.9752350  41.9728317  41.7812309  38.8435936  41.0315056  41.6680603
  39.7176704  42.1807518  41.2139626  81.3523026  70.4459610  38.7338028
  81.9539490  69.7459946  38.9873886  80.5551147  69.9903259  38.4634094
   6.4763436  67.5541306   0.1079858   7.4055219  67.5927887   0.3346258
   6.0865631  67.0048599   0.7881403  69.9792404  63.5104141  29.6528587
  69.4538651  62.7529106  29.3951740  69.8011703  63.6187668  30.5870857
  79.7152481   7.4402013  16.4462833  80.6609039   7.5628338  16.3629837
  79.3363190   8.0927238  15.8573408   8.2443638  53.1214333  79.1265945
   7.7352896  53.2252655  79.9305191   8.0555534  53.9112396  78.6198502
  40.1259270  59.8934250  47.5834389  40.0344963  59.9829407  46.6348305
  39.5478516  59.1655884  47.8121529   7.8915215  61.9903564  79.4652328
   7.3019838  61.7233963  78.7599640   8.1985979  62.8587799  79.2049026
   6.0437689  14.4857044  64.2621384   5.9020715  15.4226427  64.1268539
   6.1008124  14.1220579  63.3785439  36.8187599  53.8311272  75.7859650
  37.4332886  53.1313171  75.5649414  36.3774643  53.5214157  76.5768890
  65.4293747  67.0264130  78.0735168  65.7299576  66.2157364  78.4842300
  64.9939499  66.7408524  77.2703400  55.2424355   2.3479929  43.3937721
  54.4460754   1.9149196  43.0863838  55.0568275   3.2826853  43.3036003
  34.5337524   1.8957185   8.0199070  34.2595901   1.0405619   8.3512259
  33.7672119   2.4562097   8.1402969  28.9112854  12.3948793   6.3257747
  28.3249874  12.7257490   7.0062242  29.6879692  12.1002169   6.8013458
  39.3837585  26.9163189  86.9653625  38.5911293  27.4334450  87.1087112
  39.7022858  26.7171631  87.8457642  67.4885178  15.8733339  18.0837288
  67.2199936  15.7470980  17.1736794  66.7099609  15.6544209  18.5957451
  74.1846161  51.2048111  83.4985733  75.1135788  51.4083481  83.3897781
  73.9125366  51.7245255  84.2549438  56.8379745  10.3207378  33.8004570
  56.1545868   9.9054394  33.2743950  56.5313072  10.2340841  34.7030525
  55.8267670   9.9003401  46.3790550  55.6922493   9.1760368  45.7678909
  56.7769547  10.0104322  46.4145622  25.9806747  52.1663475  44.3453636
  26.5761604  52.5019531  43.6752892  25.1073589  52.3890648  44.0229492
  29.3280182  67.5187912   4.1443067  30.0953445  67.7834930   3.6369851
  29.1407375  66.6280289   3.8481772  38.5747223  44.0456810  37.5629120
  37.7987328  43.7917137  38.0624809  39.1868134  43.3201141  37.6859055
  64.0337143   8.4938440  28.6448555  63.6436501   9.0040503  27.9350853
  64.4398270   9.1472588  29.2143726   6.4365926  19.7857819   9.8476572
   6.0685701  18.9061432   9.7638369   7.3309417  19.7037888   9.5165253
   4.1636262  64.7524185  23.0828781   5.0566373  64.6435242  23.4098415
   3.6567159  65.0113831  23.8524323  12.7033548  39.6206093  30.9297409
  12.9255228  38.7064819  31.1065006  13.0775070  40.1046829  31.6658878
  73.4937592  25.1889153  42.6792030  74.1912231  24.8375664  43.2326775
  72.7502670  25.2991886  43.2719040  78.5689850  21.5685291  71.3292465
  78.1585617  21.6669559  70.4701233  78.3693161  20.6689796  71.5884247
  84.0405960   1.1319424  73.6872940  83.9500961   0.1859461  73.8018875
  83.8301468   1.4984633  74.5461273  86.1719055  19.1073742  41.6247368
  86.0780945  20.0553284  41.5308456  86.2286835  18.7821560  40.7262688
  15.4409761  24.7022495  76.5326385  16.1018028  24.6978989  75.8401642
  15.2991037  25.6296425  76.7225037  85.1951447  68.5695724  46.2073708
  84.4139099  68.4538498  45.6665306  85.8995590  68.1662445  45.7000618
  59.6179314   0.9210396  11.2638121  59.2858391   0.2197082  10.7033834
  59.7506714   0.5045897  12.1153879  35.5661736  62.7773514  48.1664162
  35.7167053  62.9157448  47.2313118  36.4436150  62.7358055  48.5466881
  28.3104286   3.8411777  87.3179703  28.1576405   3.8621130  86.3732758
  29.0989838   3.3085110  87.4213104  54.8919144  53.2341690  86.7913742
  55.2644768  53.9970856  86.3493500  55.4503975  52.5049133  86.5220871
   2.2752557  36.3346634   0.4180949   2.4673817  35.4024162   0.5192658
   1.4111708  36.4455490   0.8146976  18.8936138  61.9981880  54.7730408
  19.4894276  62.1621628  54.0420456  19.3700027  62.3061447  55.5440445
  12.9506235  62.1422997  16.9800682  13.0640821  63.0637703  16.7471561
  13.1519384  61.6652298  16.1750164  23.1367207  32.9843292  66.5466690
  23.2527523  32.6341476  67.4299240  23.2156811  33.9323654  66.6526031
   0.4735537  64.4919281  13.7224445  -0.1934301  64.1690521  14.3283443
   1.2641108  64.0047989  13.9547386  71.0524216  40.5405121  74.4641037
  71.3852615  39.7997971  74.9708557  71.4407501  40.4307098  73.5961304
  54.6737518  39.7389755  46.6530190  54.2344360  39.6455002  47.4982986
  55.1572495  38.9202843  46.5425453   5.4870391  63.8111572  81.0989456
   4.5709853  63.8104401  81.3765717   5.7023025  62.8859596  80.9810486
  72.5600891  28.8755093  76.9659653  72.4801865  28.4592056  77.8241806
  71.6572342  29.0451832  76.6970825  77.5093536  34.6486931  67.3215485
  78.0428314  35.0981560  67.9770050  76.6623688  34.5209007  67.7487793
  75.2095947   2.1794858  54.4039879  74.5059433   2.2168972  55.0518379
  75.4146500   1.2477121  54.3266296  61.3217697  31.1677189  42.1644554
  60.8699265  31.7877026  41.5920105  60.9637260  31.3408909  43.0351143
  19.9180946  62.4298592   3.5151308  20.4676895  62.5253067   4.2929926
  19.3783722  61.6603432   3.6961615  82.8838120  39.7964211  70.6365814
  82.2611160  40.5188026  70.7180634  83.2146606  39.8652649  69.7410126
  58.6653786   3.1396353  72.7551727  59.2010078   3.9142559  72.5840073
  57.8658676   3.4843862  73.1528702  74.8343582  61.5892334  39.0257607
  74.3225174  61.6639709  38.2203636  75.0967255  62.4875031  39.2270317
   5.5236120  17.1714745  64.2651062   4.7779927  17.5843697  64.7007675
   5.7548752  17.7770119  63.5607834  72.5017776  66.4629364  39.8086472
  71.5502472  66.3674850  39.8500671  72.6668930  66.8446655  38.9465256
  51.4883804   3.3924243  26.8271370  52.1131134   4.1065598  26.7008362
  51.4524956   3.2705770  27.7758713  47.4234352  33.3121490  56.3956108
  47.8830986  32.5203247  56.1164055  47.2017326  33.7607155  55.5796051
  14.1460638  70.6751862  72.4986801  14.6298714  69.8494110  72.5148468
  13.4480124  70.5564499  73.1427765  65.9575500  30.0764809  50.0637207
  66.6800003  30.6588173  50.2986183  65.8946991  29.4648438  50.7973328
  54.4009438  58.6271210  28.8929176  53.8105354  58.9941788  28.2349529
  54.0544548  58.9418526  29.7278538   2.2814164  28.1697159  21.5675449
   3.0063989  28.4344673  22.1337051   1.5256141  28.6498165  21.9059200
  66.5917435  20.9416428  26.0190048  65.7234497  20.5559273  25.9027252
  67.1131287  20.2430878  26.4144878  12.9919090  60.1701164  56.8238907
  13.7428627  60.6993790  56.5552292  12.2398005  60.5945168  56.4110374
  69.7578888  58.5360756  63.9328995  69.2416534  58.8889008  63.2081566
  70.6672287  58.6454048  63.6547356  67.8286819   5.5678930  35.8035316
  67.4821243   5.1569929  36.5955505  67.8155823   4.8714390  35.1470184
  68.0151215   2.9770575  35.2764091  67.1674347   2.5579343  35.4247093
  68.4166031   3.0191488  36.1443214  45.0240173  32.7338676  57.5239029
  44.7277527  32.2468796  56.7549438  45.8434143  33.1437645  57.2467575
  84.5658340   0.7595080  60.8696022  83.7825089   0.2255673  60.7371674
  84.9617386   0.8236452  60.0004768  30.8736706  55.6498680  72.9363022
  30.0351524  55.8020630  72.5004578  31.5207844  55.6926994  72.2322845
  36.9540710  60.8673744  39.8707504  36.3359108  60.1425438  39.9641724
  37.6459846  60.6751518  40.5036316  46.5593872  21.8914242   0.9131066
  46.1727867  22.6764526   1.3010525  46.0444221  21.1685925   1.2716532
  27.6166058  52.9424782  49.6280785  27.4731655  53.8788719  49.4908829
  27.2263737  52.7632065  50.4835396  44.5974922  70.6305084  72.0178452
  44.9464188  70.0637589  71.3299026  44.5526543  71.4973068  71.6142654
  56.8942108  30.9015083  68.6250229  57.8253250  30.9740276  68.8347702
  56.7821388  31.4416313  67.8427582  81.6120071  13.0846653  17.7281685
  81.8723984  12.3296976  18.2558556  81.9092331  12.8724260  16.8433838
  70.6548309  43.9218941  42.6251335  69.7273407  43.7331505  42.7678337
  70.6838150  44.3455696  41.7672920  74.2892609  58.4050407  72.4944229
  75.0494537  58.4462967  71.9142303  74.4844055  57.6849022  73.0940552
  35.9534950   5.3364339   5.8466763  35.9381142   4.5466881   6.3873210
  35.3098755   5.1681204   5.1584487  57.1008911  55.3505211  58.7325020
  57.1499290  54.5335846  58.2360725  56.7061386  55.0999146  59.5677299
  83.5993195   1.8806976  40.7327995  84.3198700   1.5386932  40.2035828
  82.9292374   2.1263425  40.0949211  48.8349915  54.7093735  36.3919296
  49.6609192  54.2341156  36.4824944  48.3219986  54.4458351  37.1558762
  11.5556841  65.5731430  64.9051132  10.9525089  66.1500626  64.4365234
  12.4260569  65.8941040  64.6691666  24.3428822  29.9285107  72.5352554
  24.0758972  29.5599785  71.6931534  25.2653656  30.1544895  72.4161377
  30.0953121  21.3275223  69.7101746  29.5898190  21.1556644  68.9157104
  29.5172386  21.8667316  70.2499161  58.7453651  52.4502983  35.7599602
  59.2158470  52.1913948  34.9675941  59.3626709  52.2801170  36.4714394
  68.7521515  13.0727367  15.9723606  69.1893463  12.4147129  16.5128269
  67.9282608  12.6604433  15.7126541  85.3074341  46.9846573  14.7655897
  85.0689468  46.0616875  14.8520918  85.2603836  47.3288040  15.6575432
  32.8744926  54.8002930  30.2380047  33.0044594  54.4264755  29.3664532
  32.6657143  54.0484352  30.7923985   7.1882215  34.8999367  34.7684708
   6.2625899  34.7600594  34.9681511   7.6550574  34.3593254  35.4056778
  15.0612898  64.8583145  54.9609833  14.1347942  65.0521622  55.1033249
  15.1480846  64.7885666  54.0102806  20.2438679  65.8072662  80.9136276
  19.4116974  65.6592178  81.3628540  20.7055836  66.4377594  81.4663696
  82.9152756  39.4584846  65.6300430  82.3346329  39.6674576  64.8983231
  82.4710846  38.7481155  66.0929642  61.9546890  66.5766907  32.6731033
  61.0126915  66.6833420  32.5408058  62.0258789  65.9677505  33.4081993
  49.3423653   5.2457485  30.3251305  50.1982536   4.8934550  30.0810432
  48.7572784   4.4884295  30.3058319   6.3253269  25.2794971  69.5682449
   5.6662993  25.2606297  68.8742981   6.1633496  24.4831886  70.0740967
   1.9730980  60.7115364  29.6462479   2.9102411  60.5947723  29.8023243
   1.8865477  61.6275597  29.3823414  56.4626350   0.3826481  84.6974335
  55.9436874   0.9540277  84.1313553  56.7271347   0.9438214  85.4263763
  67.7377548  67.5461960  42.7103653  67.1677399  66.7853622  42.8219376
  67.1958237  68.2915039  42.9693260  82.4442444  60.9079704   4.8390822
  81.5167007  60.8442535   4.6114030  82.8888321  60.3674049   4.1861138
   0.6862046  20.0547256  67.5630875   1.3832251  19.4810028  67.2449112
   0.5717699  19.8065510  68.4804459  71.8795090  22.5755272  79.8333817
  72.0810928  21.6937599  79.5201950  72.3379517  22.6428471  80.6709518
  64.8202896  55.7105026  44.4852028  65.3815689  56.1180077  45.1448479
  65.3831406  55.6166878  43.7166824  43.6452599  66.0598297  73.2166748
  43.9403114  65.4427719  72.5470428  42.7071686  65.8898849  73.3023071
  75.4169312  33.5483322  65.2335587  75.9255524  34.2671852  65.6087723
  75.8276443  32.7569962  65.5818863  25.1330891  19.5175591  13.5676489
  25.3621960  19.9793472  14.3741808  24.7932358  18.6730366  13.8634739
  39.4387398  15.2556839  80.8264008  38.7918472  15.5096416  80.1681747
  40.2241631  15.7509432  80.5938873  28.4139767  59.5287971  66.6096191
  29.2992001  59.5400276  66.9736023  28.3349094  58.6679573  66.1986008
  55.7965393  30.2566547  15.6594305  55.8366776  30.1551342  16.6103840
  55.1603317  29.6004162  15.3751402  39.0567322  43.2566185  70.4915237
  38.5318184  42.6492882  71.0129089  39.3057137  42.7533760  69.7162857
  27.4505424  68.0079193  22.2386742  26.9737167  67.2501221  21.9001331
  26.7781868  68.6776428  22.3637390  47.3737259  36.5677299  62.2819786
  47.3754997  35.6817627  61.9196358  47.3245277  36.4390030  63.2292061
   9.2259893  24.3684902  25.1498070   8.4676590  24.6366959  24.6309299
   8.9406652  23.5715637  25.5967159   4.3249960  22.7337666  56.3606453
   3.6564903  23.3794117  56.1315689   3.9415295  21.8930378  56.1109276
  67.4850998  23.8968010  23.1233845  67.6839447  23.9036541  22.1870918
  68.2760086  23.5469837  23.5336514  54.9312363  33.7828293   2.1261601
  55.8556252  33.6992989   1.8921392  54.5607109  32.9178123   1.9509755
  66.8471680  44.0721016  62.9603539  66.3100128  44.8592491  62.8703575
  66.3827820  43.5375900  63.6044617  16.0350475  15.1831274  82.0326004
  16.2954292  15.0340395  81.1236420  16.8450680  15.4362631  82.4753418
  59.4680634  21.5623970  62.6497116  59.6153488  20.7037907  63.0463676
  58.7715302  21.9535408  63.1770401  21.3079071  33.7492599  70.7601547
  21.9733543  34.3017273  71.1702728  21.7457371  33.3741188  69.9960861
  14.6410122  15.1795197  78.5349579  15.4508734  15.6506557  78.7308807
  14.7527170  14.3264303  78.9544678  11.8474617  65.4983826  13.6708088
  11.1505928  66.0783768  13.3638668  12.2685995  65.9843292  14.3798399
  25.3818836  56.6556931  85.3600845  25.8385582  57.3331528  85.8588028
  25.5002308  55.8579483  85.8756638  27.7327499   3.7892063  58.8656769
  28.6255283   4.1078558  58.7328568  27.8297691   2.8431389  58.9741936
  65.7644272  19.0281982  74.8834839  64.8890762  19.3890629  74.7428589
  65.7683716  18.7605915  75.8025055  29.5189857  30.8139000  19.7950859
  29.6116199  31.7639427  19.8662853  28.8813496  30.6874123  19.0924816
  82.4446335  31.2045593  82.6562881  81.5643539  31.5100555  82.8754120
  82.7496872  30.7641449  83.4495163  37.9904060  10.3883066  69.2782059
  38.4721336  10.2111034  70.0861511  38.5126762  11.0527506  68.8287888
  58.8516197  40.8050728  78.9575348  58.4212646  40.7792702  78.1029282
  58.4167709  41.5194168  79.4232101  80.8897552  13.0696278  87.0481567
  80.2325897  13.0939274  87.7436981  80.8517914  12.1734591  86.7139816
  12.1337328  60.1449661  44.8211517  11.9148340  60.8823891  45.3908234
  12.2492561  60.5370178  43.9555969  45.1816368  23.6835918   2.4261618
  44.6051712  24.4010620   2.6891377  45.1150818  23.0490398   3.1397057
  35.2711258   8.9144506  30.7813396  35.0073700   9.4373016  30.0241776
  34.4672737   8.8066435  31.2897015  82.9473038  71.2556458  18.4523659
  82.9207306  72.0194092  17.8760109  83.8381119  71.2507629  18.8026028
  54.8183174  32.4816971  84.8878708  54.5367050  32.4494934  85.8021393
  55.1732407  33.3637886  84.7775040  24.6727943  57.3395271  70.3798752
  25.4378948  57.8892670  70.2106323  24.9274940  56.4716034  70.0667114
  16.8307343  64.8511963   8.7933159  16.6345730  65.7878799   8.7740498
  16.4208965  64.5043106   8.0008926  58.9926834  34.9155159  31.7587700
  58.0819550  34.8181915  31.4806843  59.2481422  35.7823410  31.4431915
  37.0055733   8.8143387   3.8502328  36.4559708   9.3322229   4.4384193
  36.6390457   8.9710579   2.9799862  44.2807045  62.1958389  12.4021730
  44.2241096  62.4329491  11.4765339  44.5315285  63.0078812  12.8425255
  71.2300949  59.8836098  76.1358337  70.4938126  60.4760971  76.2877655
  70.9399872  59.3200798  75.4185486  59.1314735  40.8580437   6.4502602
  58.3454514  40.5211372   6.0202665  58.9351654  40.8028984   7.3854895
  23.1481209  66.9211121  40.1444817  23.6638432  67.4523621  39.5378227
  22.3111477  67.3804550  40.2131195  86.7374039   9.0540209  78.9737701
  86.9931564   8.9603262  79.8913956  86.0876846   9.7569351  78.9767838
  15.4368382  43.1195335  29.9723415  14.6782961  42.8172760  29.4728546
  16.1021099  42.4465637  29.8282623   5.5431566  19.6494904  88.8099518
   6.1706619  20.3318310  88.5714569   5.8575306  19.3184509  89.6512680
  43.4464073  50.3481712   6.7412605  43.1433029  51.2158279   7.0087233
  42.6586418  49.9065132   6.4241023  47.0472221  45.0091896  47.1318512
  47.1764069  44.4186249  46.3897057  46.5911255  45.7643509  46.7604523
  62.8394318   3.4739947  31.7759628  62.8855820   4.1249795  31.0757332
  61.9124718   3.4419513  32.0124893  83.7382965  10.0530272  21.8792400
  83.6084366   9.1361589  22.1215668  84.3822021  10.0248346  21.1715546
   2.2678573  38.4785728  71.9160233   2.7411833  37.8536797  72.4653015
   2.8986385  38.7303581  71.2415237  40.7647858  23.1496983  40.9608383
  41.0939369  22.2514896  40.9274864  41.1490326  23.5161781  41.7572556
  33.5451431  51.5812683  49.4612732  32.8814201  50.9674225  49.7757454
  33.6786652  52.1848030  50.1921310  53.3512764  38.6882095  24.1969604
  52.5536995  39.0870743  24.5448303  53.6937370  38.1657143  24.9221859
  72.3782654  63.7792892  57.6339264  73.2535019  63.5406303  57.3285942
  72.4095993  63.6433029  58.5808983   9.3157740  37.7034988  57.8113556
   9.0740480  37.3854828  56.9414902   8.5776834  37.4587173  58.3695107
  19.5711670   1.8521315  25.3648548  18.7653027   2.2658787  25.6740894
  19.7233315   1.1346775  25.9799480  48.2743416  58.0466766   8.2998009
  47.5053749  57.6339951   8.6930199  48.6317978  57.3787003   7.7147660
  34.0661736  60.4437256  46.2618179  33.8237724  61.3378792  46.5025673
  33.3008957  59.9174919  46.4934654  31.1967449   0.3206875  76.2790985
  32.0993576   0.0790815  76.0713806  30.8398781   0.6466890  75.4529037
  13.3867550  24.0017185  15.4577599  13.0590096  24.7763615  15.9146461
  12.9225540  23.2697754  15.8639717  34.8569221  56.4941292  37.9623833
  35.3054276  56.5578423  37.1191673  34.1395226  55.8799629  37.8062820
  24.3914242   4.7242813   4.3086872  24.1545162   3.8021986   4.4080377
  24.7786255   4.7792993   3.4350281  34.3544044  39.1058311  48.1005783
  33.7213974  39.5651016  47.5486641  34.6852226  39.7782555  48.6960907
  85.0555878  57.7674065  66.4720917  84.4980545  58.1301308  65.7837448
  85.6782303  58.4670944  66.6695328   5.1382871  27.9538689  70.4272079
   5.7105560  27.3157063  70.0011978   5.0088530  28.6365452  69.7688522
  57.8860474  59.3629990  64.0447083  58.1915474  58.4628525  63.9323006
  58.0076675  59.7663078  63.1851845  54.6531601  20.1155834  72.9235535
  54.3547935  19.4836025  72.2694855  55.4335289  19.7142334  73.3058853
  74.4882278  38.8586273  65.3971939  74.3548508  37.9284744  65.2148438
  74.4509735  38.9233627  66.3514709  26.8535748  25.4419556  81.1313171
  26.4262581  25.3618069  81.9840851  26.7142811  26.3545818  80.8784485
  38.5251465  53.3841057  72.8214417  37.9767647  52.8136826  73.3600693
  38.4231300  53.0445366  71.9323273  37.2202187  60.2845726   2.9016137
  37.5360069  59.8064575   3.6683700  36.4476776  59.7965927   2.6164997
  29.5611057  60.5704041  35.0743179  30.1337643  61.3266754  34.9464722
  29.2382069  60.6632729  35.9706078  17.8216209  19.1458664  64.7261581
  17.3454342  19.5797195  64.0181656  17.6309280  19.6736069  65.5016327
  74.5830231   7.1647286  32.0705833  73.8240356   7.2716684  32.6439400
  75.0796356   6.4461985  32.4621429  53.6800385  47.6777840  62.4589577
  53.5254402  46.7338104  62.4942894  52.8612480  48.0662766  62.7669907
   6.3728147  12.2246132  74.3689270   6.3949904  11.4282780  74.8995819
   7.2262592  12.2478657  73.9361191  37.8622437  13.6291676  78.7383652
  37.1332512  14.0869904  78.3197937  37.5268364  12.7486963  78.9071960
   2.5995858  38.4126015  12.5925808   3.1373942  39.1686630  12.8278770
   3.1977160  37.8292809  12.1254501   6.3285594  53.4745255   0.8711216
   7.0144906  53.1558304   0.2844671   6.1838307  52.7538223   1.4842087
  41.7940254  52.0836296  27.0199299  41.9127579  53.0305214  26.9455585
  41.2341576  51.8534737  26.2784405  44.1025887  35.5983124  76.6237335
  43.3785667  35.0082054  76.4144363  43.6778374  36.3967476  76.9372864
  57.8241272  22.7448063  21.8042316  56.8915710  22.7445698  22.0200386
  58.0677261  21.8191833  21.7935143  33.7161064  55.5420761  66.4187775
  34.3331871  54.8158340  66.5083160  34.1636391  56.2874031  66.8193207
  85.5710678  15.0049858  57.5124779  86.3681870  14.5495653  57.2415009
  84.9870071  14.3081226  57.8116188  69.0600815  46.4590645  44.5025291
  69.4898605  45.7056808  44.9074211  68.4089966  46.7379723  45.1463737
  24.7613029  48.9011726   3.8291526  25.6216640  49.2495003   4.0629864
  24.9393826  48.2730408   3.1291740  16.7244053  44.5465927  25.3475323
  16.8993969  45.0797539  24.5720654  17.5283165  44.0439224  25.4789810
  48.8995438  49.3527565  44.0965004  48.2233086  49.9976425  44.3040085
  49.7240067  49.8266068  44.2058563   0.8033980  64.4913406   4.1831098
   0.3555309  64.7062988   5.0013022   0.1009285  64.4219360   3.5366180
   6.1962905  25.8747444  72.5474930   6.3497868  25.0066204  72.1746216
   5.9450426  26.4159012  71.7989883  48.0410118  47.6636391  42.3913612
  47.4332085  47.0297279  42.7720947  48.1931381  48.2993927  43.0905762
  86.6750870  23.9963169  53.0081940  85.8959579  23.7554550  52.5070267
  87.2606125  23.2446480  52.9166183   2.9156253  66.6929016  46.9645996
   2.2944691  66.7118759  47.6926346   3.7500548  66.4534607  47.3678703
  70.5231705   6.3633847  14.8395014  71.4029312   6.0308127  15.0174294
  70.6586761   7.2772946  14.5892248   4.6003394  45.3478165  24.5054417
   4.0132313  44.8911285  25.1079159   4.1188779  45.3781166  23.6786957
  37.1259308  68.6905441  18.6773663  36.8303261  69.5958939  18.7732582
  36.4026909  68.2482452  18.2329311  69.4574280  15.3786983  74.0510788
  68.7502899  14.9236383  74.5083694  69.0282059  16.1197109  73.6234055
  74.8352966  51.6755714  71.7317123  75.4545441  50.9705620  71.9207458
  74.7959213  52.1834679  72.5420914  34.3407860  70.3599014  69.2772293
  33.5181007  70.5738068  69.7173004  34.5003242  69.4428253  69.5002670
  72.3687286  60.4280815  46.0724792  72.5913620  61.0231018  45.3565025
  72.3218384  60.9905586  46.8455582  45.6542206  44.5181732  64.1602478
  45.0302391  44.8007851  63.4916611  45.2823143  44.8340111  64.9837570
  50.8281631  49.6142426  82.4733810  50.4878960  50.4173660  82.0791245
  50.0774879  49.2351723  82.9305801  19.1635246  19.7185459  54.1464424
  19.8095703  20.4238949  54.1830406  18.3539772  20.1185169  54.4640732
  15.7332420  65.5887299  20.0161304  16.3562927  65.4770508  20.7341633
  15.9500380  66.4424744  19.6415100  18.3214035  55.4945297  21.1080341
  17.4329662  55.1595879  21.2293854  18.2027359  56.4254189  20.9193592
   8.5022945  36.6562767  51.8367653   8.8399458  36.3948212  52.6934242
   7.9926801  37.4474792  52.0114861  81.0542374   7.8599548  34.4337273
  81.6945877   8.5712004  34.4160995  81.4299164   7.2142076  35.0321426
  14.5173693  50.4946518  49.9125938  13.7325897  50.0096588  49.6573868
  15.2163124  50.1175575  49.3782616  66.5873032  66.6348648  48.2062378
  66.5212326  65.9666367  48.8883934  66.3777390  67.4549484  48.6531982
  71.6901627  54.6003532  78.6426849  72.5420990  54.5736160  78.2071075
  71.8313065  55.1533279  79.4111404  14.4845152  49.7872124  52.6910019
  14.6455021  48.8491592  52.5891685  14.8542252  50.1808586  51.9006920
  77.6884155  39.8416061  58.9609642  78.1488190  40.6106071  58.6249619
  76.7608414  40.0508461  58.8511620  51.2717781   5.1752892  83.3111649
  51.6645927   5.9021287  83.7945175  50.4016075   5.0736947  83.6968079
  57.4617157  38.3260155  12.6805840  56.8810234  37.6507034  13.0312681
  57.1653214  38.4523048  11.7792330  46.8046684   0.4863931  24.4062653
  45.8675842   0.5094624  24.6001072  47.2243538   0.4023309  25.2624359
  71.8472137  15.0160284  73.0579147  70.9714203  15.2625418  73.3553238
  72.1046982  15.7195740  72.4621277  46.3604355  46.0031128  86.4452896
  45.6045494  45.5875626  86.8602371  45.9940605  46.4735451  85.6964951
  39.8571701  49.7658806  63.3289909  40.0403442  48.8370972  63.4705544
  40.6810341  50.1249924  62.9995766  45.9778938   2.7184808   6.3077111
  45.8512573   3.5540371   6.7572012  46.1929932   2.9611752   5.4071212
  52.9013672  67.7553635  34.3360214  53.1427460  68.5039062  33.7904510
  53.3660316  67.0149689  33.9459839  78.1661530   5.6247458  75.1513290
  78.8443375   6.2574873  74.9148254  77.3665314   5.9715786  74.7556610
  35.3178711  65.6445694  37.6673508  35.8546753  66.4286270  37.5519104
  35.7467766  64.9792786  37.1291504  51.4490356  38.6549454   8.9765730
  52.3245735  38.9920197   9.1664400  51.1269569  39.2109985   8.2671347
  72.5677948  57.6055374  61.3918839  72.9539719  57.4073143  62.2450027
  72.7854385  58.5249176  61.2382507  69.8680191  31.0228004  53.5103989
  70.4044342  31.8146629  53.4723282  70.2538834  30.5058956  54.2176132
  82.0830383  46.8170509  49.4737854  82.3658829  47.2588425  48.6731300
  82.6634445  47.1589546  50.1538277  22.6673908  25.8128433  14.2165804
  22.2724247  25.0225201  14.5848522  23.2049065  26.1649036  14.9260597
  17.8227940  50.1474075  56.6233978  16.9055710  49.8737221  56.6181450
  17.9796200  50.4764938  55.7383308  35.5720367  31.6390209   5.3448777
  34.9788094  31.1087589   5.8769836  36.4270325  31.2221546   5.4518061
  11.4734964  43.7517128  62.9509277  10.7913122  43.0827942  62.8925667
  11.9318771  43.7001495  62.1122017  37.5183563  31.3529129  75.0428391
  36.6571541  31.5689163  75.4004745  37.3395958  30.7011948  74.3649445
   2.0799205  64.7359924  25.0157318   2.1814032  63.7842941  25.0297508
   1.1332543  64.8762360  25.0354290  61.8130684   4.7876205  74.5853577
  61.3570137   4.6701441  73.7520218  61.3954964   4.1618619  75.1772079
  46.3569145  43.5450516  38.6367416  46.4872398  42.5998535  38.7132187
  45.8013039  43.6484871  37.8641930  21.9739761  50.3391304  38.3371582
  21.5247898  50.6414261  39.1265106  21.3188782  49.8172340  37.8737984
  73.6213531  19.6585083   1.3493088  74.2900162  19.4089756   0.7114576
  72.9149857  19.0265579   1.2154677  29.2267056  55.5056915  17.9677467
  29.2260437  55.1208038  18.8441563  28.3140831  55.7489853  17.8123131
  22.1948452   7.8780584  16.5865631  21.3526306   7.8020201  16.1380939
  22.8395424   7.6070685  15.9329891  20.5296154  60.9728241  32.5672607
  21.2943172  61.4032516  32.9496193  20.0219460  60.6724663  33.3211098
  74.1727676  50.2943916  67.6005783  75.0549240  50.3746452  67.9633331
  74.0627975  49.3565979  67.4434967  35.8585739  27.5511932  11.1098242
  35.1897163  27.6761189  10.4365797  35.3847923  27.6374950  11.9370584
  30.2597160  53.0266418  43.6047554  30.6921692  53.8802872  43.6272316
  29.4630508  53.1750755  43.0953217  48.3437080   0.8497975  39.1431541
  47.5911064   0.2895747  39.3328323  48.8757172   0.3380273  38.5338173
   3.5542290  13.1352682   9.1864691   2.8124394  12.8286400   9.7079659
   3.7403774  12.4127722   8.5868196  35.3415604  59.4179840  80.8845596
  36.1649742  59.0322495  80.5855103  35.1643867  60.1197472  80.2581635
  52.2217293  67.7325058  53.7484818  52.0721016  67.2690964  54.5725594
  53.0656738  68.1679459  53.8683815   0.8100175  50.2538948  80.8362350
   0.7998664  51.1746254  81.0977402  -0.0338346  50.1179733  80.4053345
  56.5080910  52.7208328  42.0304489  55.7801666  52.5626106  42.6315575
  56.2101479  52.3631020  41.1940956  23.8463306  26.2551193  10.7581024
  23.5296993  26.9830151  10.2231760  24.7588463  26.4749870  10.9457350
  65.7998276  53.5667534  23.5332546  65.6501846  53.2443199  22.6445045
  65.3279495  54.3987961  23.5688019  14.8269167   3.5517094  53.0315857
  15.2946348   4.3855629  53.0780525  14.1463146   3.6212194  53.7010498
  84.9669342  55.6533318  61.7216797  84.5685730  55.7501640  62.5866432
  85.2281036  56.5412521  61.4775047  29.6501274  68.0748749  46.3970642
  29.6250896  68.1026382  47.3535347  30.5080547  68.4331665  46.1694298
  72.1350555  28.1152744  38.2589645  72.2881775  28.9989605  37.9244690
  71.7723618  28.2500801  39.1344719  16.7633362  64.7632675  14.3969402
  16.8713055  63.8780251  14.0492096  16.0965061  65.1608582  13.8370352
  81.6013107  65.2535629  38.3093376  81.0341263  64.4949341  38.1714478
  81.5997696  65.3845749  39.2575302  80.5009308   2.0577128  64.2652054
  79.9530716   2.6919587  64.7276001  81.3268967   2.5180638  64.1165771
   9.8174953  64.0933075  62.4782600   9.8691216  65.0412979  62.6002502
   9.4162302  63.7695465  63.2847290   2.9836407   8.6547422  -0.0824004
   3.8046606   9.0677080   0.1852147   2.4227128   8.7135897   0.6909875
  60.7595863  63.4473000  16.9403572  60.6819191  64.3967209  16.8465309
  60.7669334  63.1176224  16.0417519  45.2067909   4.5660925  32.7592926
  46.1328125   4.4971504  32.9915886  44.7451973   4.5106382  33.5960045
   5.8446474  32.4108620   0.1279726   6.6818876  31.9821625  -0.0494463
   6.0814762  33.2222748   0.5771438  47.7960167  30.1148376  14.7768927
  47.8121948  31.0356407  15.0378332  48.1371765  29.6443329  15.5374613
  83.6100006  13.9319057  46.5795860  84.5580215  14.0238066  46.4844818
  83.4462509  12.9971313  46.4546280   6.2667627  31.4251900   7.7547808
   6.3989882  30.5589485   7.3695879   6.8037801  32.0097046   7.2198176
  75.9301224  63.7157478  43.0386925  76.7136002  63.7625198  43.5866089
  75.5705490  62.8451042  43.2087555  48.0929909  11.7463465  53.4437675
  48.4058304  12.4820185  52.9173203  48.8809509  11.2389574  53.6384583
  25.2418270  37.5562286  12.3644428  25.0410824  36.8120804  11.7968340
  24.7070999  37.4129410  13.1453180  30.0378704  51.5513344  35.3892822
  29.3388214  52.1219521  35.7085915  30.7998219  51.7867737  35.9186516
  43.4597397  31.1994858  61.6939621  43.7702141  30.5679855  61.0450821
  42.8481064  30.7030678  62.2377472  56.0101776  25.8387985  62.1486816
  55.6550369  26.1140156  61.3034782  56.2602310  26.6554890  62.5807953
  72.3155289  13.9902420   4.2562881  71.9472351  14.2455435   5.1021099
  71.6611023  14.2695065   3.6159935  41.3328972  36.9317436  28.8197613
  41.3938713  37.8776665  28.9529686  40.8939018  36.8367043  27.9744911
  59.8004150   8.0396681  34.7668228  59.0998764   7.4143267  34.9523621
  59.5983086   8.7960777  35.3174858  52.5430565  52.0426064  39.4528542
  53.4595604  51.8107719  39.6028595  52.0464821  51.3698997  39.9188080
  47.5356636  12.9943447  12.7635889  47.6858025  13.9238329  12.9360466
  48.4109650  12.6314783  12.6279135  66.6663208  45.0605927   0.5320674
  65.7483978  45.0057335   0.2662811  66.6639633  45.6588020   1.2793114
  52.0851517  41.2037926  78.0307388  52.9500046  40.8947868  78.3005142
  51.6614113  40.4319649  77.6552887  56.3461304   8.2759809  37.8494225
  56.8459854   8.6325150  38.5837669  55.8746147   9.0287447  37.4926987
  14.8943281  58.6831627  55.3963318  14.0052977  58.3309784  55.3536110
  15.0349493  58.8664742  56.3252296   7.6101718  66.0883331  55.6204910
   7.0776095  65.3168335  55.8138733   7.3780527  66.7170334  56.3039322
  26.1871452  41.5256424  27.7146702  26.5022545  42.1156960  27.0299988
  25.9138985  42.1067238  28.4245396  47.2738152  55.9201813  65.3322525
  47.1010361  56.7766914  64.9413986  48.1930466  55.9584846  65.5964050
   0.5813875   1.5306652  20.6780663   1.1661913   0.8092957  20.9101486
   0.4263569   1.9885864  21.5042038  77.3674240  70.7516785  58.1019363
  76.8298492  70.1449509  57.5928955  76.9161301  70.8237686  58.9429893
  26.4746571  15.5498848   9.5683584  25.5483131  15.3295078   9.6660919
  26.8594036  14.7839632   9.1422520  25.3134251  69.6695786   6.9432788
  25.5078583  70.5839310   7.1491585  26.1571579  69.2970963   6.6871424
   4.1759200  50.5207520  86.9683990   3.8774276  51.0073662  87.7367401
   3.3749707  50.1627502  86.5855865  15.9781771   1.6192081   4.8759322
  16.8186817   2.0772169   4.8790650  16.1692867   0.7652841   5.2639050
  64.3576965  12.0787144  57.2169533  63.4962311  12.1354761  57.6303368
  64.1697998  11.9984722  56.2818108  48.5267334  27.9812469   8.2085981
  48.5653114  27.9600525   7.2524104  47.8939476  28.6713448   8.4075375
  18.3654938  23.0939732  77.1828766  19.1068745  23.4625130  76.7024918
  17.6741333  23.7503452  77.0966949  47.4767075  23.7397881  14.5369368
  48.1150436  23.1584511  14.9502230  47.9963074  24.4773140  14.2170868
  65.7491684  16.5627956  57.7317543  64.9885788  16.0398674  57.9852905
  66.1841965  16.0413952  57.0571251  54.7397346  40.8951111  16.1454582
  54.2090111  40.9388313  16.9408550  55.3378181  40.1631889  16.2965202
  13.0069675  53.2448654  84.5060043  12.4139767  52.9635277  85.2027435
  12.4445105  53.7081337  83.8853149  27.4059944   3.0495377   7.6022453
  26.8652039   3.1474545   8.3859482  27.2905865   3.8725152   7.1272497
  83.7592621  11.3796968  80.4193344  84.1766205  11.0702038  79.6154251
  84.3040543  12.1130581  80.7050171  31.3047218   6.2756023   3.6766484
  31.0461369   5.5410767   3.1200180  30.9900913   7.0508599   3.2116599
   2.8026054  19.9140091  79.0603485   3.3837910  19.2596054  79.4479141
   3.3574193  20.6842690  78.9374008  16.6585293  47.0260544  64.7355804
  17.4913101  47.4831161  64.6180801  16.8956337  46.0990410  64.7612381
  64.0740738  25.7836170  82.1680145  63.2301140  25.4623947  82.4854660
  64.7054672  25.1253777  82.4583511  45.2626038  37.2741547  48.0572319
  44.5679741  37.9074593  47.8765488  45.1481781  36.5965424  47.3909073
  53.9297104  21.6504917  75.7465897  54.3418732  21.2629414  74.9744797
  54.5038490  21.4063644  76.4725342  68.6362076  20.1253510   1.2773725
  67.7749634  20.2616940   1.6722046  69.1201859  20.9270496   1.4755695
   9.5928297  37.3438301  85.5110703  10.1772861  37.5583458  86.2381363
   9.6421347  38.1042290  84.9317703   7.3621120  21.8796864  87.6945953
   7.0829844  21.6213875  86.8161926   6.8951211  22.6980228  87.8633575
  63.6968956  57.0212364  73.9072876  63.7304039  57.3787766  74.7945709
  64.4831924  57.3628731  73.4815445  54.2850456  24.9069786  73.5773697
  54.9364700  24.2681789  73.2878571  54.5805130  25.7368736  73.2029266
  18.3905849   2.7554319  14.0652971  17.8896122   2.6386747  13.2580633
  19.1436710   2.1729627  13.9661846  54.2112923  69.2905197  51.7457428
  54.8732567  69.8295517  51.3127556  53.3766594  69.6346970  51.4276848
  27.2972679   6.8001208  25.3734760  26.5563297   6.4322319  25.8550377
  27.3035107   7.7264190  25.6146488  71.4794769  19.4682770  12.3248749
  71.8450928  19.7176857  13.1736126  71.4651108  18.5113411  12.3421459
  31.1905079  61.0802841  52.5936508  30.5597343  60.3957787  52.8168297
  30.6618977  61.8733025  52.5046349  11.9162207  37.0662956   5.3270502
  12.8617840  36.9353981   5.3978143  11.5926151  36.9639626   6.2220583
  66.9255600  47.4069710  70.2792206  67.3797073  47.0184479  71.0269089
  67.4025116  48.2182693  70.1044693   0.4646674  12.3048210  48.8506126
   0.9117945  13.1493549  48.7951889   1.0248892  11.7739086  49.4167519
  43.8742561  35.9135246  66.6038284  43.9906769  35.1105461  66.0959854
  43.0753098  35.7635651  67.1092300  38.9206963  57.1186295  11.4964666
  38.7048569  57.7369308  12.1945715  39.7888260  57.3888168  11.1971703
   7.4353042  12.2292824  52.1346283   6.7749619  12.7020607  51.6280098
   8.2661648  12.6285706  51.8768044  69.0731506  38.9387589  10.1007080
  68.5408478  38.6412811  10.8385372  69.9682922  38.6968002  10.3382263
  63.5991745  24.0449734  31.9528751  62.6807785  24.1131325  32.2138939
  63.8224030  23.1258640  32.0999832  30.4059048  11.2828474  83.0200348
  30.9619961  12.0536871  83.1331711  30.5257339  11.0334768  82.1036835
  24.1593590  58.1539574   0.5239109  23.7175961  58.8797302   0.0830815
  23.4477806  57.6111107   0.8633330  48.7578545  58.4993172  51.7976418
  49.1135292  58.1494217  52.6145248  48.7101021  57.7424545  51.2135925
  68.0520325  61.1436996  18.1946583  67.6537552  60.6317520  17.4907303
  68.9367981  60.7881355  18.2783413   3.0716081  32.7068024  68.6663513
   3.0983119  31.9385300  68.0960236   2.1707404  33.0233879  68.5996933
  37.9391098  60.7087555  78.2845612  38.8737488  60.5822411  78.1212463
  37.5102310  60.0372849  77.7540741  78.7035065  42.2002335  23.1691780
  78.7430344  43.1558456  23.1307335  79.4567490  41.9507027  23.7045174
  11.8608398  15.9338617  52.3886299  11.8152990  16.7029400  51.8205833
  11.4808340  16.2253876  53.2173882  54.3462448  29.8715401  72.0749512
  54.6568947  30.6508789  71.6141281  53.3933487  29.9618530  72.0828171
  78.1946487  62.6589890  50.7746315  78.8000336  62.2330818  50.1677170
  77.3990173  62.7982674  50.2610168  63.2900696  49.6813087  27.4111900
  63.4887886  48.8825455  26.9225960  63.3100739  50.3759537  26.7529354
  85.8695908  70.4449844  44.0449448  86.4613724  69.7381287  44.3025932
  86.0045090  70.5385513  43.1019325  85.0928421  48.2542801   8.3215227
  84.1937027  48.0108566   8.5418034  85.5036545  48.4423103   9.1653891
  49.5310097  62.3431435  25.7596416  49.1980324  61.5153236  25.4131241
  49.1703529  62.3946381  26.6448002  50.7539291  19.8031750  81.2109528
  50.6453018  18.8918438  80.9390869  51.6155205  19.8278656  81.6272202
  53.2169075  41.2534637  86.2204361  52.6677017  40.5742455  86.6119308
  52.8392143  41.3961525  85.3525543   1.1884128   2.7274544  57.2583084
   0.6179796   2.9060066  56.5106735   1.0561953   3.4730036  57.8438911
   9.1459370   7.7362356  73.1826782   8.7079105   7.7043924  74.0331802
   8.8386650   8.5510759  72.7853775   0.3158236  13.2815065  77.5763931
   0.6424022  12.9001732  78.3913498   0.8369627  12.8637199  76.8907547
  10.5388308  11.7702971   9.6790037  10.7426653  10.8748865   9.9490452
   9.6353741  11.7262335   9.3658667   3.9362063  60.1165314  38.4738121
   4.0836587  60.6640434  39.2449913   3.0819623  60.3939857  38.1428757
  55.4670448  23.9776382  30.0933743  54.5161552  24.0409317  30.1830196
  55.6881523  24.6252213  29.4240589  25.5251961  59.4641800  32.4599037
  24.6670074  59.5569000  32.8736038  26.0794525  60.0995102  32.9131050
  55.8293991  59.0037460  41.2027893  55.2147484  58.9457588  41.9342766
  55.7840004  58.1446495  40.7831192  33.4445915   7.9974675   1.0560703
  33.0656815   8.8725357   0.9729138  34.2793045   8.1393404   1.5025659
  67.3178711  50.8742523  57.9138336  66.8947067  50.8534813  57.0555000
  68.0452499  51.4873161  57.8074951   7.7265964  43.3286819  66.2029419
   6.8743711  43.5809441  66.5583420   7.5933871  43.3048363  65.2553558
  32.1210213  58.3415871  47.8299561  32.0865326  57.3941612  47.9619598
  32.1985970  58.7037239  48.7126045  52.8939972  28.8876381  76.1329041
  52.7686119  29.4730549  75.3860397  52.4975891  28.0607853  75.8582993
  42.5119247  23.4967670  83.1486816  43.0582123  22.8750229  83.6295471
  42.3555183  24.2082882  83.7695694  24.9055958  43.6252441  29.7891865
  24.8258533  43.8511314  30.7159271  24.0161076  43.3940506  29.5216179
  78.2796936  48.5642204  40.5397491  77.4818115  48.5564041  41.0684738
  78.0870972  47.9794121  39.8068504  45.0460129   8.1175718  60.1735229
  45.3045731   8.5947599  59.3850632  45.2168808   8.7286739  60.8901749
  17.0145588  66.8930817   3.7138374  16.5983715  67.1707077   4.5298905
  17.8326988  67.3888931   3.6814706   0.5321117   4.9576254  70.1220016
   1.4193826   5.1357298  70.4338684   0.1100921   4.4997969  70.8489990
  28.5440178  66.6955566  36.6214523  28.3120136  67.5489197  36.2551498
  27.9834557  66.6052856  37.3920708   5.0256557  43.6712761  67.5761261
   4.0959015  43.5374794  67.3920441   5.0876632  43.6403809  68.5308228
  40.1864319  49.7963219  79.9650269  40.9061546  49.8967400  79.3420105
  40.1867027  48.8642921  80.1830902  13.9348602  12.6426582  69.4547958
  12.9903641  12.7676296  69.3623734  14.2256718  13.3912163  69.9756775
  67.4717560  11.9070511  37.4165802  66.5977859  11.5920973  37.1859055
  67.5342865  12.7665672  36.9999809  35.9608765  32.2922668  83.0736160
  36.5497437  31.5482273  83.1995850  35.9326706  32.4174728  82.1250534
   6.8001590  41.2316208  72.0712585   6.3993106  41.8184357  72.7125015
   6.8123870  40.3774376  72.5030518  57.1273079  13.0195189  43.5552063
  57.7208633  12.3474731  43.2201233  56.9574699  12.7592497  44.4605484
  21.4212456  11.8111639  73.8509140  21.0766010  11.8498211  72.9587479
  22.0833340  12.5017433  73.8820419  82.2605362  62.2757950  29.6319008
  83.1662979  62.5638809  29.7451458  81.7866516  62.6854057  30.3556976
   5.8179936  41.9708748  19.2822704   5.1203418  42.6258430  19.2592525
   5.4926496  41.2952042  19.8771248  74.4426117  11.6602240  29.7193508
  74.3869019  10.7123108  29.8401413  74.8701935  11.9782763  30.5144901
  54.1751366  37.0106926  86.5573654  54.5518150  37.8773117  86.4046707
  53.7262573  37.0895615  87.3991013  10.4587936  63.9996872  42.6728363
  11.2049561  64.4568939  43.0606995  10.5994825  64.0696487  41.7286186
  47.2091713   4.1228533  64.6227417  46.8937988   4.0723009  63.7204056
  48.1310272   3.8708668  64.5687408  53.9493332  65.7469559  67.5873871
  53.6143036  65.5510559  68.4623795  53.9996414  66.7023926  67.5585403
  13.6898766  26.7577801  10.3263531  14.2067776  26.4082031  11.0521917
  14.3352175  27.1583233   9.7438316  78.9450531  42.2465363  32.8642159
  78.1252136  42.7348709  32.7892532  79.0174866  42.0417709  33.7964478
  22.7468128  29.7748795  21.5216389  22.9136772  29.6944580  20.5825329
  23.1032639  30.6318417  21.7557125  11.5094595  59.5978012  62.6914520
  10.7006836  59.2820168  62.2884712  11.2206078  60.2530823  63.3265915
  44.9965858  53.4467468  39.2918968  44.8704681  53.9293709  40.1088409
  45.5171814  52.6835861  39.5424843  -0.0170425   2.3233483  86.9104538
   0.1440305   1.4033592  87.1199951   0.7798385   2.7752628  87.1879196
  52.8483047  51.1435585  84.3404999  52.7837486  50.6598434  83.5170364
  52.6136513  52.0423088  84.1093597  58.4652863   4.0840373   8.2475214
  57.8463402   3.8116975   7.5700474  57.9140587   4.3336186   8.9892006
  56.5929909  57.6051865  84.8352509  56.3923035  57.9221344  83.9546280
  57.4619102  57.2115936  84.7559128   6.9275341  38.1370888  28.3023987
   6.3107810  37.4363441  28.0907230   7.5400553  37.7384224  28.9205532
   8.3087721  60.5511589   5.4633064   7.9711452  61.1559601   6.1239552
   9.2602758  60.6072159   5.5512352  32.9030457  68.7766647  10.1864653
  32.0644569  69.2082596  10.3499336  32.6770439  68.0004883   9.6739120
   2.8227799  17.3259354  48.9056587   3.5008583  17.7155113  48.3536873
   1.9990758  17.6186771  48.5157242   7.4097929  44.8751335  42.8384972
   7.8627157  44.0681496  43.0831871   7.3193822  45.3576469  43.6602287
  81.1874084  53.9718552  87.5347443  80.2641449  54.2195435  87.4850845
  81.6338120  54.5953789  86.9618759   0.1377358  28.7295074  50.9496918
   0.2051006  28.3586960  50.0698090   0.4392237  28.0292397  51.5284462
  25.8010845  34.5577316  57.7356911  26.3860149  35.2833557  57.5176086
  25.9743690  33.8997536  57.0624390  52.7648392   3.5236292  15.6455584
  53.5781937   4.0108142  15.5138950  52.1487961   4.1731277  15.9844904
  18.6830120  16.6622925  63.9659500  19.3251915  16.5954685  64.6726074
  18.3305416  17.5486584  64.0456467  84.2295685  47.5333023  17.3063965
  84.8735352  47.2125130  17.9377766  84.3137436  48.4861450  17.3415527
  77.1824188   1.5836430  87.0213089  77.9206390   2.1597388  87.2197647
  76.5120087   2.1671705  86.6659546  51.4624214  63.7037544  20.3377151
  51.5688591  63.1633148  19.5548840  52.3566704  63.9098091  20.6099072
  26.6707973  50.5399399   4.9017015  27.4439945  50.8517609   4.4314189
  26.2770615  51.3321838   5.2671461   3.1916237   4.4327760  70.0356979
   3.5886137   3.5834279  70.2286758   2.8697402   4.3483400  69.1382065
  52.3320236   6.0748787  60.7749557  51.4126740   5.9226494  60.9937210
  52.3043823   6.6608686  60.0185928  55.0967903  19.5826206  11.2037001
  55.4610367  20.2113361  11.8268147  54.7016449  20.1241055  10.5204077
  75.7139511   1.2528739  76.9209824  75.0867615   0.8245341  76.3384018
  76.1969452   1.8532597  76.3530960  53.9088860  56.4657745  44.3165245
  54.5118904  55.8640671  43.8799820  53.9100418  57.2480965  43.7649803
  29.3369789  21.4277649  66.8694153  29.0502739  22.1839275  66.3573151
  28.8003445  20.7033100  66.5478287  12.7077389  71.4619598  59.9115562
  12.3159380  70.7207642  59.4496574  12.0310602  71.7460022  60.5260963
  56.4500237  49.5909920  21.0104332  56.1330605  49.2017326  21.8254452
  56.3693886  48.8904305  20.3631763  83.4165649   3.5700407  68.9100037
  82.9667664   4.4084640  69.0146713  84.3428040   3.8019278  68.8426132
   3.2426095  67.0370102  26.3113556   2.5888693  66.3524933  26.1688843
   4.0646939  66.5617294  26.4318428  47.2408791   4.5002151  13.0513754
  47.5547371   4.5953460  12.1521120  47.2376213   3.5554678  13.2052393
   6.0456514  50.6210136  38.8034134   5.9832282  51.1838608  39.5751228
   6.9182582  50.7945747  38.4503288  53.9484749  33.4560013  46.5838089
  53.0870552  33.0461884  46.6628113  54.2585945  33.1963196  45.7162666
  21.3929348  55.2474861  72.1091156  20.9386425  55.7312660  71.4193268
  20.7254620  54.6660118  72.4732590   6.7627320   1.5721240  15.7087059
   7.2751722   2.0784881  16.3389702   7.1403871   0.6932812  15.7439747
  55.3659401   9.5231133   5.6176529  56.1128273   9.6531734   6.2020121
  55.6688652   9.8414698   4.7672901  66.5063705  21.8600731  69.2536926
  66.0604172  21.9368687  68.4102173  65.8817749  22.2122555  69.8877945
  34.4788475  58.3467674  73.8074036  34.5194664  57.5170593  74.2829742
  35.3384705  58.4284058  73.3943405  79.5894470  47.6533585  75.9636765
  80.1953278  46.9380646  76.1572952  78.9177704  47.5887032  76.6425781
  58.8372498   9.1632919  15.2287846  58.2349625   8.7954922  14.5820961
  59.0459099   8.4291668  15.8064976  35.6901894  46.4667206   7.8509517
  36.5498924  46.4229393   7.4323478  35.8562927  46.2330360   8.7642059
  31.6599998  65.0782013  33.9664536  32.1332588  65.7241211  34.4908943
  31.3838329  65.5590820  33.1862488  51.9632797   7.5923748  43.9587402
  51.6647224   7.8400068  43.0836525  51.9121056   8.4017353  44.4672165
  64.5882339  69.3404617  34.8152809  65.0355530  68.6584549  34.3142815
  65.2593536  69.6832275  35.4054909   3.6330445  23.1060028  85.6194382
   2.7820265  22.6685543  85.6447220   3.6787376  23.4905949  84.7440948
  21.1902504  52.0720520  48.1594315  21.5590000  52.7031631  48.7774582
  20.3040810  52.3920326  47.9904633  55.4697189  10.8027420  28.6703548
  55.8905449  10.8189287  29.5299339  54.5335388  10.7507200  28.8629456
  21.7263012  62.9581985   1.3695053  21.2923698  62.9090958   2.2212830
  22.0004482  63.8720779   1.2926942  85.5695114  12.6754065  42.1286774
  84.6839981  12.4279785  42.3949089  85.5157471  13.6167202  41.9635429
  45.4997177  32.2088089   7.7796741  44.9297066  32.9610138   7.9394040
  44.9189148  31.5415287   7.4141097  48.3016624  62.6244125  65.4740372
  48.1936073  61.7542610  65.0901184  48.4787445  62.4574471  66.3997803
  58.5018425  68.2439880   3.6082511  58.7847900  68.8202438   4.3182497
  57.9165535  67.6145172   4.0294919  23.2732449  57.6033745  15.4355049
  23.6087685  57.0030670  16.1013031  22.5211277  58.0254326  15.8507338
  22.9703369  37.9011269   2.2584085  23.2732353  38.6441994   1.7365587
  23.4288406  37.9923019   3.0936880  83.2958527  12.9744749  33.4245224
  82.4966888  12.5186472  33.1603508  82.9861679  13.7764120  33.8454971
  17.2578869  47.2796898  78.9407654  17.0027695  47.0643349  79.8378525
  16.5396271  47.8193779  78.6104965  21.8721104  58.3284111  41.1215363
  21.5691128  58.5972519  40.2542725  21.3684597  57.5382156  41.3168945
  42.3573151  20.6359024  40.4841156  42.7442551  20.6752186  39.6094933
  42.4851227  19.7288914  40.7620125  53.3779907  46.0984535  39.9890137
  52.8504753  46.4758339  39.2850685  53.1886406  45.1608238  39.9539375
  39.4672203  33.0983315  80.6279755  38.8761063  32.4426956  80.2578964
  39.1567688  33.9300003  80.2699432  86.4395599  38.1662521  39.5304565
  87.0547867  38.5854988  40.1320877  86.1906509  37.3533897  39.9703751
  47.7955856  58.1863861  87.3165131  47.4828644  58.2572861  88.2184067
  48.3724823  57.4225883  87.3223877  36.7482300  37.6983376  15.8920822
  35.9763947  37.8123627  15.3375549  37.2874031  37.0608482  15.4239674
  48.9449883  48.8699989  79.7286377  48.8888283  49.1135979  78.8046570
  49.8632431  49.0122223  79.9584427  42.9728355  19.1247559  69.2037888
  42.9370499  19.1619682  68.2479782  43.8178978  18.7184563  69.3961945
  39.0437202  51.1622734  41.8983192  39.4916611  51.9459724  41.5798836
  39.2896042  51.1043434  42.8215828  -0.3109796  22.9979572  80.8767853
   0.5191832  22.9779873  81.3528748  -0.1837549  23.6641560  80.2013397
  48.2841949  66.5407410  16.4954262  48.8114204  66.2801361  17.2506409
  47.8410263  65.7369461  16.2238693  52.9072227   6.0602126  51.5000648
  53.2543526   6.1642704  50.6141167  52.3104401   5.3144531  51.4374199
  53.6452332  60.0007057  33.9457092  52.8843803  60.5583649  34.1080513
  54.3618431  60.4317284  34.4114532  73.7638855  28.5253677  25.8503895
  74.5498886  28.3809719  26.3772507  73.1454468  28.9404469  26.4516201
  64.2453613  21.6024342  55.0272942  63.4161339  21.6230621  55.5049896
  64.0722961  22.0960159  54.2256317  48.2986603  16.0828362  54.6977463
  48.2242050  15.5811787  53.8859406  47.9676743  15.4929504  55.3750305
  79.5443726  13.2011194  55.8251038  79.2951431  12.3813143  56.2517624
  79.9662399  12.9284630  55.0102959  40.3551903   7.7507467  13.1094370
  40.3180618   7.0015159  12.5148735  41.1684570   8.1996613  12.8785534
  62.9174461  67.5474396  55.6161423  62.7132187  68.4780426  55.7083092
  62.7697449  67.1822662  56.4885330  81.1441574  52.3268127   9.1246243
  82.0001297  52.4320564   8.7093258  80.9574356  53.1833801   9.5088854
  19.3753757  52.2744560  71.7673569  18.6027832  51.8023033  71.4568710
  20.0430546  51.5970001  71.8745422  58.3331146  50.5094643  42.9908600
  57.8018303  49.7497177  43.2290878  57.7407417  51.0674362  42.4868813
  75.1549454  47.1283226  39.0766830  75.3087769  47.7886391  39.7523689
  74.2269363  47.2188110  38.8602371  25.9935474   3.0633380   9.8678379
  25.3357487   3.7541704   9.7885647  25.5386620   2.3496568  10.3150187
  66.7243958  64.3598785  79.3842468  66.0691681  63.6625443  79.4095001
  67.5639343  63.9005165  79.4037781  59.4631424  28.6119270  51.6135902
  59.5570908  28.3780518  50.6901665  58.7898712  29.2922783  51.6210518
  22.2594929  13.4825611  12.3853140  21.6041698  13.1135435  12.9774370
  22.8813152  12.7691545  12.2417183  69.7408905  69.1650772  68.3666840
  70.5134964  68.6014633  68.3259583  70.0829315  70.0224075  68.6201019
   6.9157577  45.7465057  75.4866333   6.8458939  46.6311760  75.8453903
   6.8063684  45.1715584  76.2440720  81.5518570  56.3318672  10.8984747
  82.3352966  56.0278282  11.3567543  81.8745422  56.9908295  10.2837601
  53.4601364  53.3006134  54.8336563  53.7901993  53.3877983  55.7279091
  53.4673462  52.3581467  54.6665115  49.4426537  38.9517822  51.2703171
  50.2019081  38.6850510  50.7520370  49.8165092  39.3196907  52.0710068
   5.4353619  62.6843414  43.0847511   6.1808848  62.5358505  42.5030479
   5.6229272  62.1491623  43.8558731  63.1479187  48.5006027  64.5522690
  62.3691101  48.8539886  64.9821625  62.9314232  48.5089340  63.6199150
  40.5947304   9.0390835   6.5713272  40.2492714   8.4994707   5.8601947
  41.2826691   8.5032558   6.9661150   8.6793528  30.2348976  72.5726395
   9.5620022  30.0525036  72.2503128   8.3785572  30.9729843  72.0425644
  44.0992165  38.3003769  89.1511078  44.8612328  38.7342033  88.7672348
  43.6352310  37.9248085  88.4028397  19.4012661   0.1538443   1.0848436
  20.2394848   0.4749251   1.4173064  19.5847340  -0.1036411   0.1813656
   9.1140661  50.0458374  38.1260605   8.6556349  49.3829079  37.6097336
   9.8275442  50.3395119  37.5595474  76.1718521  65.1527176  87.3890305
  75.8382034  64.6058273  86.6778183  76.8523865  64.6206055  87.8013000
  79.8645401  31.8376293  26.3595657  79.7881393  32.3228912  25.5380325
  79.4701691  30.9858208  26.1721592  66.3422318  47.7468567  35.0494232
  65.8264465  47.4524727  35.8001137  66.8846588  48.4559021  35.3947678
  51.7085800  59.5228729  80.7727585  50.9444008  60.0109596  80.4661102
  52.1443024  60.1184006  81.3824539  61.2848511  61.1347542  60.5842896
  60.9579277  61.6592064  61.3152466  61.7605820  61.7585487  60.0358467
  25.3756828  47.4966011  45.7523422  24.4368534  47.4065971  45.5888443
  25.6864109  48.0721626  45.0534782  66.7254791  47.5388603  50.8788910
  65.8918076  47.5202637  51.3488617  66.6900787  46.7787476  50.2981949
  53.7815666  12.8759937  37.2086525  52.8372765  13.0135021  37.1335754
  54.1420403  13.2435741  36.4016991  63.5861359   8.5739546  42.0185089
  63.8347893   8.3394518  42.9126091  64.3531113   9.0264645  41.6674805
  84.4794388  60.0252495  19.5918217  84.2851868  60.9513092  19.4472218
  84.7939835  59.9846802  20.4949532  23.7628345  31.4513969  62.5099068
  24.0715313  30.6105156  62.8473358  24.0647106  32.0929184  63.1529884
  77.5824738  36.4054871   9.0362854  78.4461517  36.6007385   9.3998365
  77.1423187  37.2544975   8.9953632  37.3593864  58.6646042   7.9568224
  37.4332962  58.8347702   7.0177736  38.1391754  58.1517944   8.1694117
  81.9099960  60.0806236  84.3787918  81.1808090  59.4713097  84.4939346
  82.5414505  59.6000481  83.8434906  85.2004242  40.8177071  87.5892029
  86.0108719  40.8778572  87.0834427  84.7227631  41.6183472  87.3723068
  62.4046211   4.4349198  42.2380943  62.1219254   5.0032530  41.5216331
  61.6820297   3.8178937  42.3537407  83.9532471  27.8830090   2.1087685
  83.1597519  27.6629696   1.6207316  83.6364365  28.3421974   2.8865929
  14.5615559  37.3813324  74.6806259  14.3973312  36.4488182  74.8209000
  13.6932249  37.7590790  74.5408325  80.4883575  57.7841492  34.1691322
  79.7547379  57.6671677  34.7727470  81.1746140  58.1866379  34.7013817
   3.0817780  42.0854454  71.4080963   3.0601137  42.1390686  72.3635483
   3.2398677  41.1595764  71.2236938  51.6961708  43.5365829  55.5355988
  50.8153572  43.1642342  55.4936485  51.7051849  44.2078438  54.8532791
  80.3849030  12.9121675  44.1492805  80.3875351  11.9567280  44.0913239
  79.6030579  13.1792841  43.6659584  70.0733261  44.0031357  14.8681812
  70.9425888  43.7752457  15.1978350  69.7565079  43.2007370  14.4534388
  40.6363564  65.1803589  52.3891754  40.2141533  64.6055832  51.7507324
  41.5441208  65.2425385  52.0919762  85.0513382  36.3828316  25.4055748
  86.0051804  36.3153114  25.3624706  84.7484436  36.0347290  24.5669403
  47.5717888  35.5672226  41.6070518  47.6370583  36.0026360  40.7571182
  46.6370354  35.3917542  41.7151184  67.3538666  34.0896072  79.7685852
  66.8830414  34.8813820  79.5084839  66.6845703  33.4053726  79.7786636
  70.8887711  39.4432678  40.6039238  71.1831818  40.3164673  40.8629150
  71.3860016  39.2486954  39.8094826  57.6130447   8.1567030  19.9810085
  56.9496498   8.6222315  20.4903488  57.6090088   7.2683907  20.3375435
  14.5529108  11.3732080   3.1582909  15.2986231  11.8831034   3.4747579
  14.6031141  10.5493307   3.6429958  37.9986763  54.6755829  12.2544498
  37.7399788  54.1354866  11.5077209  38.2554436  55.5124550  11.8672209
  83.5119400  28.4882393  42.5253448  82.5777512  28.3917351  42.3403931
  83.9473877  28.1384468  41.7480011  15.8883410  47.0777206  81.1647720
  15.1013288  47.6225433  81.1614380  16.0961189  46.9627342  82.0920410
  79.9454041  62.2354431   1.7404776  79.2088776  61.9078064   2.2566242
  80.5359421  61.4860802   1.6633075  16.5826130  27.2925568  72.6087646
  16.6437130  27.2770977  71.6536407  15.6490412  27.4057770  72.7872467
   9.4241600  47.2060394  87.1614380   9.0282707  47.5728188  87.9519882
   8.6836567  47.0376129  86.5787582  41.2829933   3.0933409  73.8321533
  41.3780632   2.1477735  73.9465942  40.3376961   3.2344325  73.7798843
  26.4094696  19.4335289  10.5503969  27.2543755  19.8332386  10.3440018
  26.0986538  19.9133778  11.3181009  84.3690262  36.7716103  81.9750214
  85.2589645  37.1116676  81.8822861  84.4867325  35.8398933  82.1601791
   4.7738142  14.8119192  80.4544601   5.0947747  14.6003380  81.3310776
   4.2521224  14.0507164  80.2002182  22.0942020  47.8023949  70.9360886
  22.5208416  47.1961517  71.5416336  22.7441444  48.4891281  70.7870941
  37.5103645  32.7950096  58.3711395  36.8857613  32.0761871  58.2741661
  38.0203018  32.5660248  59.1481590  70.3025055  11.6018505  45.4227409
  70.0729599  12.4494400  45.8037033  69.7170410  11.5107079  44.6709671
  78.0270615  57.1308060  35.5693665  77.4623032  57.5583038  34.9255257
  77.7151566  56.2263145  35.5984764  75.6127777  27.6811447  68.2077942
  75.5126877  28.0850277  67.3457642  76.4107666  27.1574535  68.1357269
  52.2557907  51.8970413  60.4238396  52.1892395  52.8327370  60.2333641
  53.1714401  51.7674408  60.6708755   1.3676234  26.7175789  64.2196732
   0.5491711  26.2318554  64.3218460   1.1033126  27.5546570  63.8379974
  69.3777466  45.2757950  36.3069267  68.4925995  45.2572403  36.6708031
  69.2488174  45.4305763  35.3711624  80.1425095  49.6397285  45.9169502
  80.4992371  48.8014946  46.2107925  80.8304672  50.2752686  46.1145096
  70.7490082  10.7518291  78.0981293  70.7429962  10.0512571  77.4459076
  69.9581909  10.6032257  78.6165543  62.6797295  70.8945923  24.5664749
  63.3499336  70.2203369  24.6779709  62.4072266  71.1111908  25.4581356
  51.2787361  67.2234497  20.8970013  50.9782448  68.1260223  21.0033112
  50.9041328  66.7567291  21.6440487   7.3590112  37.7780418  66.6037521
   7.0626521  38.5074844  66.0594025   7.9163337  38.1851273  67.2670059
  50.5070076   6.2094245   8.9141703  51.3393631   6.5556931   8.5924339
  50.5698624   6.2811975   9.8666039  48.6551514  67.9246140   0.9409237
  48.8081284  67.4267273   0.1378455  47.9063263  68.4847183   0.7365085
  15.7620564  59.5425262  72.9734116  16.6354904  59.1509323  72.9737244
  15.2691774  59.0281258  72.3341217  83.1612015  61.4518967  13.9473991
  82.6872787  61.9242744  13.2629395  82.8309479  60.5551758  13.8921528
  55.5064850  69.6581573  19.9833565  56.0692711  70.4038239  19.7748184
  54.6281281  70.0325317  20.0509243  85.5808868  67.7637634  40.1418686
  85.9704895  68.5730438  40.4727783  86.0793152  67.0663605  40.5678024
  63.5027390  46.4782295  31.3242340  64.1377792  45.9190941  30.8766651
  64.0372543  47.1009445  31.8169346  29.9070206  65.9466705  19.9068909
  30.8155289  66.2135925  20.0468674  29.5699615  66.5716095  19.2649651
  82.1293564  10.8325281  57.5427818  82.1128998   9.8825893  57.6592979
  81.2106400  11.0961447  57.5946159  78.7737885   5.0670552   5.5003161
  78.6334686   4.1350670   5.6674767  77.9652710   5.3592820   5.0794406
   6.5826325  55.0813065  46.9929657   7.5276103  55.2154312  47.0654945
   6.4594741  54.7127419  46.1181946  11.2349186  13.7388353  70.0525284
  11.1294632  14.4139280  70.7228699  10.4930267  13.8697014  69.4620132
  21.3893337  50.1203842  55.8992386  20.7700882  50.2890930  55.1890945
  20.8842392  49.6265831  56.5452042   0.4600841  43.2897491  31.9836750
   0.1320202  43.3025131  31.0845394  -0.3094368  43.4747353  32.5220528
  37.7456589  59.7802010  87.0155411  38.4454117  59.5402756  86.4080734
  37.6690216  60.7304268  86.9293671  20.4812984  67.6780472  40.4667015
  19.5741482  67.6755295  40.7721596  20.4588356  68.1826248  39.6535988
  65.6124954  25.3910522  75.9828415  66.0387192  25.6746159  76.7916412
  66.2602463  24.8317165  75.5541306   3.0688734   2.9664154   4.6319699
   3.2258170   2.0394053   4.8115606   2.7817183   2.9882641   3.7191191
  26.8994102  10.9793940  70.5963974  27.3877258  10.2002058  70.3306046
  27.3490105  11.2868900  71.3835068  80.0396271   6.9803886  28.9083824
  80.3055344   7.1944938  28.0141335  79.9238968   7.8300281  29.3337669
  44.3890152   2.8025548  65.3058548  45.1817474   3.2078300  64.9543457
  44.0409126   2.2868648  64.5784454  39.7357826  69.4281921  19.0050678
  39.8768120  70.3308487  19.2906475  38.7841454  69.3254471  18.9969749
  37.3989601  46.7343292  46.6028671  36.9101562  47.5495377  46.4900169
  37.2367630  46.2442627  45.7967911  37.5245705  53.0816193  35.6025467
  37.1928864  53.7717171  35.0281067  36.7433128  52.5995941  35.8736763
  13.1709099  31.8635941  14.9345684  12.5179548  31.3186092  14.4953938
  13.2798567  32.6191292  14.3570499  86.2754974  17.8777504  87.4317856
  86.9851379  17.3829250  87.8414078  86.6580353  18.7350845  87.2450409
  66.6090775  58.5445824  88.6867599  67.3264084  57.9954529  88.3703461
  65.8694611  58.3216019  88.1215363   1.8280121  59.3198471  60.8487740
   1.7931789  58.4006233  60.5841217   2.6503625  59.3989029  61.3322220
   1.3489327  30.2903538   1.9565984   0.7112150  29.8461628   1.3978126
   1.5161459  29.6718330   2.6677260  41.7202492  10.1008444  38.6343422
  41.3961220   9.9758310  37.7424088  42.0463600   9.2390785  38.8936577
  65.4082565  54.9547882  52.6191292  66.2844009  54.6974030  52.9061012
  65.3525085  55.8874855  52.8269730  55.6694832  62.3450279  30.9891014
  56.1292992  61.5063705  31.0272293  56.0863037  62.8140640  30.2662621
  40.9568443  22.0575333  78.9041061  40.2382317  21.5049591  78.5967178
  40.5476532  22.9036140  79.0856018  69.2895203  40.0866508  43.2952156
  69.7732391  40.6828117  43.8669243  69.8435822  39.9960022  42.5199509
  80.0504303  68.3982468  74.1849823  79.4761505  69.0707016  73.8185883
  79.9371643  68.4767075  75.1322098  84.2676849  36.9451180  50.8315811
  83.3796692  37.0185280  50.4819031  84.7180099  37.7250595  50.5073395
  58.3882370  27.6090832  32.5811691  57.4535141  27.4064274  32.5430565
  58.6755905  27.2565918  33.4234314   1.6638176  18.5962296  72.7402725
   0.9591725  18.2845325  73.3082123   2.3735402  18.8225384  73.3413620
  69.4150162  70.3758545  16.6039867  70.3463364  70.4060287  16.3849907
  69.3033066  71.0548477  17.2693577  71.6843185   7.9955206  70.8576660
  71.9163818   8.9131308  71.0003891  72.2824631   7.5065122  71.4227600
  75.0097198  62.7329292  85.5241852  74.7739716  62.2023010  84.7632065
  74.1744308  63.0666580  85.8515167  11.4098701  39.1067581  53.1086388
  10.8549700  39.8833923  53.0368500  11.5645542  38.8383636  52.2029533
  58.6063004  19.7354736  50.6788483  59.1442490  19.1492081  50.1467400
  58.6208611  19.3462753  51.5532303  30.5090389  23.8024464  74.4065247
  29.6033382  23.5918007  74.1794434  31.0288067  23.4154606  73.7020264
  12.7763214  62.4356384  48.7558441  13.5421457  62.0297470  49.1620407
  12.2574139  62.7586136  49.4924965  66.9438248   5.0212836  23.9613132
  67.1212921   4.4778605  23.1935711  66.4109116   5.7424054  23.6263199
  38.6847572  64.7796021   1.9409916  38.3274193  65.5827713   2.3197601
  38.2982140  64.0762100   2.4625750  38.5247192  13.4751434   7.4910913
  38.7833405  13.9337196   8.2905006  38.8312263  12.5775576   7.6200395
  84.8188400  16.4843273  50.1336060  84.2390518  15.7942457  49.8113213
  84.5179672  17.2769012  49.6891594  29.9946327  61.0093842  56.0999641
  29.3560791  61.6232224  56.4628448  30.6494999  61.5661354  55.6787605
  76.6230392  30.4238548  38.6902275  76.2051620  30.9226170  39.3922577
  75.9638596  29.7813339  38.4277725  18.2191887  13.1675625  15.9066696
  18.2692680  13.2978125  16.8536434  17.9549637  12.2532663  15.8043003
  23.1048870   2.9422896  79.1785278  22.7969513   3.8077450  78.9094696
  22.7963047   2.3534806  78.4898300  66.2684402   9.9455366  41.2579460
  66.8087616   9.9059448  40.4688225  66.7736511   9.4711304  41.9181976
  17.1260319  55.5646553  82.4044800  16.3896523  56.1748428  82.3638763
  16.8163872  54.7846222  81.9441605  28.1741352  35.1177826  85.6771317
  27.5397739  34.4220009  85.5047836  28.5255699  34.9122849  86.5434418
   6.0040340  15.6293545  48.0109787   5.4084568  15.0567780  47.5275803
   5.7980618  16.5096016  47.6963844  73.8792496  64.5758438  62.7385368
  73.4616547  63.9644928  63.3452454  74.7522125  64.7178421  63.1046066
  53.5449486  51.1354408  28.1429787  54.2871704  51.3896866  27.5946198
  53.7418861  50.2380447  28.4115486  74.5189438  50.3804283  79.1232758
  75.2167892  50.6968231  79.6969833  74.6215210  49.4287376  79.1237411
  66.0047760  45.5513878  23.8617802  66.3434219  46.3390045  23.4360905
  65.9732590  44.8967857  23.1641159  40.6985168  63.0053711  84.1089630
  40.4748268  62.7504616  83.2138519  40.8954620  63.9402084  84.0496445
  70.7942657  15.3244925   2.2617939  70.0196457  15.7164106   2.6650324
  71.0415268  15.9390945   1.5708838  36.1263351   0.2775539   3.5160744
  36.7360458  -0.4286136   3.7301121  36.6256752   0.8597823   2.9434485
   9.1442270  68.6402359  37.4929161   9.8115149  68.3069305  36.8930244
   9.6167955  68.8059769  38.3086624  52.3174286  35.2335205   7.7749352
  52.9487114  34.7248573   8.2838335  52.3678513  36.1154976   8.1434526
  85.8563309  67.8524017  18.5563297  85.1460571  68.4347000  18.2867527
  86.6100006  68.1392593  18.0406475  77.6287460  59.7000046   9.6850681
  78.5817261  59.7028351   9.7747421  77.3097992  59.3779602  10.5281525
  77.8491287   6.4778323  40.3408623  76.9208755   6.2601237  40.4256401
  77.8780746   7.4324446  40.4049644  81.0124741  59.3603897  74.6920471
  80.2641449  59.3467941  74.0953445  81.0108185  58.4935722  75.0980759
  53.7987022  24.2217369  18.0190582  53.7293396  23.7501888  17.1889610
  53.7416611  23.5392017  18.6877327  85.3784485  59.7178764  47.1919518
  84.7748184  58.9763451  47.2366486  86.2479782  59.3232231  47.2582169
  79.6984558  65.9981918  21.0584087  80.1219711  65.3739395  20.4691963
  79.5039368  65.4901199  21.8459740  65.7554703   2.7560418  81.8209076
  65.9082642   3.6797264  81.6216736  65.2390976   2.4339082  81.0821075
  25.7294922  60.0470238  82.3673630  25.6360741  59.2552185  81.8376999
  26.1171513  59.7420769  83.1877060  20.9627762  29.5204525  27.8388901
  20.5210857  30.2344170  28.2986698  20.5231590  28.7283401  28.1479645
  85.0252457  27.8726635  75.5364685  85.1430817  27.7165623  74.5994644
  85.1117935  27.0072422  75.9362030  15.4694395  37.3467522  59.2132874
  15.6010151  38.2886047  59.3220482  15.1646385  37.2500992  58.3110771
  40.4557991  49.1406364  25.1861668  40.1559601  48.4137039  24.6403656
  40.5790443  48.7542038  26.0531807  51.8321533   3.2126913  50.7343636
  51.2213669   2.7292416  50.1780815  51.6181831   2.9330573  51.6244507
  71.5874100  46.3241310  82.7342911  71.9795685  46.9264984  82.1021576
  70.7330704  46.7076492  82.9324112  38.9882584  53.1260529  38.0374832
  39.8360825  52.6817245  38.0352974  38.7475853  53.1873398  37.1130638
  49.9648247  64.8790741  73.9009705  49.0522156  64.9861374  73.6328049
  50.3332024  64.2714310  73.2596436  29.8597832  26.1381378  77.4844666
  29.9146748  25.1905041  77.6077881  28.9309425  26.3407707  77.5959396
   4.7006226  60.0847244  30.0715828   4.2600851  59.2455673  30.2056618
   5.3419876  59.9111328  29.3825607  68.8764725  19.4799576  41.3100586
  68.0958633  19.1036873  41.7166252  68.8904800  20.3877716  41.6132240
  51.4561119  54.8182259  75.2607117  52.2553368  55.1351089  74.8399277
  51.7535400  54.1214790  75.8457794   5.4772396  17.7329636  77.5827789
   5.9178705  18.5757942  77.6910019   5.0492687  17.5766029  78.4245758
  47.2737656  54.5338020  87.9814148  47.9617081  55.1805420  87.8242645
  46.4829254  55.0545692  88.1214600  86.5181961  38.0789070  76.7597198
  85.6307297  38.4140282  76.6319504  86.4766541  37.6004868  77.5877457
  45.5809937  26.5547848  48.6966896  45.0325127  27.3315639  48.8063087
  46.3953590  26.8878593  48.3197327  11.3207836  39.0841904  46.8748436
  10.8381624  38.2978477  47.1297493  11.7298841  38.8542213  46.0405884
  58.9086685   4.2449040  61.3888702  59.6607170   3.7596807  61.7283058
  58.2023163   3.5997465  61.3561859  54.9155502  65.5856781  13.6025877
  54.1715088  64.9842377  13.5725136  54.9323578  65.9894562  12.7348833
   7.5381303   0.5222335  70.3134384   8.0723457   1.3075804  70.4320831
   6.9977803   0.4786921  71.1023331   5.4643264  18.9245758  72.3833618
   4.9121656  19.7049465  72.3346634   5.7498741  18.7765713  71.4818192
  35.4828224  47.3907547   3.1753867  34.6368866  47.8019218   3.3530664
  35.6269913  46.8077087   3.9207075  12.9815588  32.3684464  82.1955338
  12.5173512  32.1176682  81.3968811  12.3718138  32.1585350  82.9029083
  10.9225693  41.7695923  59.7611122  11.6817818  41.5361404  60.2952766
  10.8055925  41.0240211  59.1723289  19.2061462  46.1798363  29.9387608
  18.9423008  45.7174339  30.7342472  19.1400948  47.1069374  30.1675606
  69.9001160  59.3376732  49.2861977  70.2025146  59.8232307  50.0536728
  68.9453354  59.3882065  49.3317108  56.4551086  68.5136414  34.9565315
  56.5091553  67.5774231  34.7646637  57.3668022  68.8011627  35.0052719
  78.0154572   2.3927455  44.3599243  78.4526825   2.6972551  45.1551247
  78.0056000   3.1574035  43.7842255   1.4474366  67.9128571   6.6548114
   0.5765436  68.2122498   6.3937721   1.9793313  68.0051270   5.8643646
   9.5944834  63.3616829  56.6129913   9.5066776  64.2875595  56.3865585
   9.0890064  63.2634659  57.4198875  37.0562363  18.0628738  82.4628601
  36.7929764  18.7557144  81.8571472  37.9452400  18.3002987  82.7265472
  53.1384773  16.3138123  17.9011745  52.9341507  15.6656399  17.2271137
  53.8617859  16.8217220  17.5336380  20.7339287  48.0888901   2.7066150
  20.0015697  47.8075943   3.2550263  20.5648632  47.6847916   1.8555249
  75.8033905  19.3865833  44.6294060  75.6248856  19.8438530  45.4511566
  76.6636353  19.7074509  44.3587341  71.3177261  49.9032097  12.1264896
  72.2136078  50.1246986  11.8723755  71.3191223  49.9588318  13.0820713
  21.8530006  53.8609886  40.5085526  22.3745441  53.7686157  39.7112503
  21.1357498  53.2366180  40.3992577  60.2861366  39.8174858  84.6050186
  60.4768829  39.3045845  83.8196640  60.8606262  40.5802078  84.5383530
  33.8017197  33.7187653   5.9423957  34.1652336  32.9078560   5.5867038
  34.1394272  33.7604370   6.8370738  53.8997650  27.2777805   1.5117662
  53.9920807  28.1435738   1.9093959  53.3235207  27.4193726   0.7606822
  25.0021343  64.7469177  47.2291451  25.9495831  64.8260956  47.1182251
  24.8878632  64.5070419  48.1487312  70.7977371  22.8130760  61.7492294
  71.5683060  23.3039093  62.0347786  70.0585480  23.3829994  61.9614258
  80.0250854   5.8134856  42.7014008  80.8594971   5.3933420  42.9098930
  80.2615128   6.5469370  42.1336098  30.9748783  56.3217506  77.8319244
  30.2562027  55.6955948  77.7443542  30.6496964  56.9743958  78.4520340
  57.9455223  24.6901093  15.1715679  57.0647774  24.7818966  15.5350189
  57.8032417  24.4234390  14.2633419  81.9403992  66.5682220  24.7042122
  82.5266037  65.9391632  25.1247883  82.5178299  67.2702789  24.4043427
  54.2629890  35.6629753   3.9562814  54.3601036  34.9338799   3.3437293
  55.1253891  35.7513504   4.3620968   6.4124689  56.1949425  78.6165390
   7.3638620  56.3001976  78.6145477   6.0876646  56.9431801  78.1156693
  50.7372971  10.4822750  88.2724457  50.2105217  10.2360544  87.5121078
  51.4463921  11.0137596  87.9105911  22.0670223   3.4040701  63.6161613
  22.1475124   3.8087370  62.7524490  21.8634529   4.1318679  64.2036133
  57.1194191  61.4589005  65.6729660  56.2976952  61.4586945  65.1820450
  57.5745773  60.6700325  65.3784332  64.7296295  44.4821014  52.6446724
  63.8436279  44.7498970  52.8886223  65.3006973  45.1016006  53.0989113
  34.4783249  52.3847618  88.5702972  33.6691780  51.9453316  88.8318558
  34.2538223  52.8352509  87.7561188  77.9500198  47.4610062  20.3277931
  78.6073761  48.0198860  20.7422504  77.8123627  47.8524017  19.4651852
   6.1887374  47.7995758  73.2176514   6.9664674  48.3314781  73.3863297
   6.3632255  46.9715462  73.6650391  49.0919762  11.4149094  37.4933319
  49.6668282  12.0110493  37.0133400  48.2071228  11.6980867  37.2629395
  67.9267120  27.1150341   2.8373108  68.8326111  26.8801193   3.0382972
  67.4716415  27.0547314   3.6772568   4.7692580  60.6035995  53.5189667
   4.1607981  60.0916405  52.9861412   4.3167615  61.4337654  53.6683121
  45.3871841  46.4441643  37.2551765  45.3819199  46.8077583  36.3697395
  45.0107574  45.5695610  37.1571922   5.7624345   8.6832561   0.6561263
   6.1291251   8.1061802  -0.0137645   5.7870545   9.5547800   0.2610672
  83.3874283  27.4613495  17.0695686  83.1645584  27.6826324  17.9737778
  84.2220535  27.9032726  16.9135876  18.3429623   8.5729074  79.3135605
  18.5753078   8.7527485  80.2245483  18.5271568   7.6406136  79.1989670
  74.5186539   0.8032337  39.1564255  74.5060806   0.1597940  39.8649864
  73.5951309   0.9726680  38.9703445  79.9802704  18.2803326  59.9930763
  79.1474304  17.8428860  60.1698608  79.8560486  18.6961346  59.1399002
  21.6595383  35.8772354  15.6388121  21.6741505  35.4264755  16.4831085
  21.0131073  36.5742722  15.7505989  74.5476990   5.1994686  52.0463142
  74.7954941   5.0294662  52.9551201  74.9572449   4.4909387  51.5498428
  55.9884186  25.3243217  38.2765045  56.7289124  25.1359196  37.6999626
  55.8089714  24.4928150  38.7153969  10.9168310  24.3968620  84.3570023
  11.2115030  24.2551346  83.4573822  11.2940645  23.6683674  84.8501740
  63.9630394  10.5630569  12.0986032  63.5729561   9.7110233  11.9033976
  64.7999496  10.5553894  11.6341085  59.3604622  63.1860161  76.5655670
  58.6377602  63.7981567  76.4269485  59.6232033  63.3276367  77.4750366
  78.1106873  17.6608009  81.7640533  77.4583206  17.1141243  82.2019958
  78.7765579  17.8212357  82.4327164   1.6983500  68.3302841  13.9184675
   1.2627845  69.1730042  14.0462589   2.3616562  68.5024109  13.2501650
   0.7472561   6.6854644  81.5489044   0.0879030   6.0838490  81.2031479
   0.7849869   6.4874187  82.4846268  73.8638992  63.8047371  46.0938110
  73.5228958  63.3068237  46.8367958  73.9351578  63.1625519  45.3875847
  53.6628075  51.5650253  57.4408340  54.0100670  52.3886871  57.7832184
  53.2898712  51.1261101  58.2053604  30.9583874  36.3904343  74.1183624
  30.4793148  37.2070885  73.9776611  31.8687763  36.6095619  73.9198456
  37.9206238  50.2378311  66.3076324  37.0466194  50.3331680  65.9291382
  38.5055962  50.6354713  65.6627045  58.1287384  50.1556358  87.7643127
  58.4514198  50.2750015  86.8710785  58.6985664  50.7070198  88.3005066
   4.9040098  69.3968277  14.1393471   4.9248352  69.9166946  13.3358974
   4.8674526  70.0447388  14.8429794  60.9991531  60.8781242  21.7453785
  60.4206429  61.0974960  22.4757442  61.1811218  61.7178040  21.3234100
  68.5707550  26.0286732  87.2124710  69.0155792  26.8107166  87.5392303
  67.7184219  26.3453197  86.9133072  61.0477486  25.2089214  32.7264137
  61.3094406  25.4928436  33.6022758  60.9422989  26.0220814  32.2325706
  81.9580841   9.9348507  83.7860184  81.3779984   9.3324003  84.2516174
  82.6577072   9.3778944  83.4446182  86.2090912  50.4686546  39.3424149
  85.9173355  51.3053131  39.7045059  85.4184875  49.9296112  39.3177490
  20.0240173  28.5024128   1.6658015  19.1166649  28.4533367   1.3649077
  19.9900093  29.0666790   2.4382515  58.7231102  65.5438614  20.2943916
  59.2275391  66.0448914  20.9352894  58.1164551  65.0234146  20.8210201
  14.7577763  29.0496769  86.5198822  15.6795788  28.9569168  86.7605209
  14.5416727  28.2283306  86.0783844  20.0778732  53.2917175   1.7700120
  19.2003479  52.9733353   1.5583190  20.5373764  52.5220718   2.1057692
  64.4459839  47.8378143  52.2172470  63.6712036  47.2758331  52.2060852
  64.4211349  48.2629929  53.0744705  39.2814445  44.0135422  48.0401306
  39.2032242  44.3116302  48.9463615  40.1510353  44.3051758  47.7662773
   9.9040070  11.0736237  21.9356327  10.5387335  10.5266876  22.3984661
   9.1398344  11.0934687  22.5117226  10.5742102  24.1318970  71.6238098
  10.0553026  23.3950157  71.3013611   9.9396000  24.8389664  71.7402267
  25.9478264  52.2389603  57.6582298  25.0112381  52.1888161  57.4671288
  26.0785313  53.1296158  57.9836197  54.3102455   6.4816561  67.9610748
  53.7942772   5.7616830  68.3239059  53.7734070   7.2599797  68.1102295
  49.0241585  11.4706383  61.4944954  49.8545532  11.9454308  61.4591789
  48.9173317  11.1091614  60.6146355  55.1010551   5.2036581  59.8437691
  55.6556053   5.4804416  60.5732193  54.3704071   4.7453008  60.2588577
  48.8905373  69.0879288  74.2016296  49.6121330  68.4697800  74.3174973
  48.9817657  69.3963089  73.3000641  73.1441498  62.5098114  71.4181061
  72.9891357  61.8803406  72.1223526  73.9551620  62.9530182  71.6672211
   8.7843866   0.4384446  86.5981216   8.4282827   0.0500992  85.7989960
   8.2538280   0.0660150  87.3024216  82.9198685   5.6898780  20.7815475
  82.4901047   6.3062134  20.1885300  82.7051468   4.8270702  20.4270191
   5.5920544   6.3843675  73.1078644   6.2217822   5.8978906  72.5758743
   5.9791622   7.2548237  73.2010498  67.2401428  70.0232773  12.8409967
  67.9443665  70.4368973  13.3402224  67.4198227  70.2609863  11.9313593
  41.3603401  69.2900085  68.6292877  41.6968727  69.0846634  69.5015335
  40.7269325  69.9924622  68.7762070  17.4216595  55.2218819  85.1428223
  16.4926548  55.0820732  85.3262177  17.4399796  55.5711555  84.2518082
  41.5709534   3.4410155  81.6879349  41.6083069   3.1157863  80.7884521
  42.0600815   2.7945209  82.1968842  68.0242157  40.4597359  21.7532558
  67.6276627  39.5885544  21.7570724  67.3714752  41.0181694  21.3309803
  80.0059509   8.0119934  84.7094955  80.2848206   7.3361139  85.3272781
  79.4484863   8.5936317  85.2263641  30.9289703  43.2894287  47.3387184
  30.7506218  42.4441833  46.9264297  31.8836193  43.3323441  47.3938408
  67.7169113  37.5695724  36.8746414  68.5480118  37.5578613  37.3493767
  67.7544785  38.3664131  36.3456154  56.7624779  24.2334042  12.6123610
  57.3176727  24.3356190  11.8393517  55.8696480  24.3259926  12.2799330
   4.6884575  43.4983025  54.9837952   5.1956844  43.6631012  54.1889381
   5.3419919  43.4650612  55.6823769  -0.2230297   7.7751255   7.7626510
  -0.2882574   8.7278776   7.8277707   0.6582646   7.6179953   7.4237370
  68.5978699  37.9814072   7.5692697  68.5286789  38.3523026   8.4489756
  67.7199249  38.0758820   7.1997805  25.3390446  32.7557220   6.5412645
  25.7340069  33.0562897   7.3597364  24.8669357  31.9585266   6.7817326
  57.0815239  43.7526665  62.3437843  56.6517372  43.3959427  61.5664406
  57.2958755  42.9842834  62.8728142  53.7329369  39.4831924   9.8581944
  53.9066505  40.3818665  10.1382675  53.7613754  38.9707718  10.6661854
  48.7182732  20.0919991  33.0814056  48.9698868  20.4009533  32.2110786
  49.3004608  20.5606079  33.6794853  53.5363007   4.7953548  49.1345253
  54.3168411   4.4618731  49.5769958  52.8068542   4.3574252  49.5731125
  28.9193726  45.7395782  74.8846664  29.0013981  45.8675270  75.8297195
  29.5112610  45.0131912  74.6890488  45.7147903  16.0376015  14.7046814
  45.0378227  15.8887157  15.3648157  45.2924271  15.8170414  13.8745060
   7.8291478  28.9221458  55.0471916   6.9104624  29.0128345  54.7941628
   7.9720435  27.9769135  55.0956573  50.5897331  33.4113579  48.9939651
  49.9914284  33.2636948  48.2615318  50.4615021  32.6535492  49.5645027
  11.5160246  32.5926323  17.1355801  11.0380373  31.8347874  17.4723797
  12.0094442  32.2522774  16.3893032  56.4915886  26.7762394  81.1984940
  57.4223289  26.9991837  81.2143784  56.0982857  27.4309635  80.6215363
  41.0409470  63.9411392  78.7298813  41.1288910  64.6407623  78.0825577
  40.1450653  63.6229858  78.6184769  43.5530968  29.1756363  70.7504807
  43.7926025  28.2903500  70.4763641  43.0817413  29.5391846  70.0008850
  74.2009125  66.6379700  88.8569717  74.1467590  67.5508957  88.5743713
  75.0522232  66.3385468  88.5378342  74.6205826  56.2659187   3.0198596
  75.1802139  56.9021187   3.4651551  75.2032166  55.8266792   2.4003148
  27.3535633  46.5619812  63.7339401  26.8413143  46.1203651  64.4112930
  28.2222233  46.1642876  63.7931137  48.9184456   6.8039746   6.7210817
  49.3860245   7.5661469   6.3794780  49.4244003   6.5366960   7.4884157
  60.4250069  52.7436981  52.0567627  60.6067924  53.4468155  52.6803131
  59.7080803  53.0799141  51.5189819  34.3860855  64.1488419  66.7896347
  34.0890732  63.4821701  66.1703110  34.1949997  64.9805832  66.3561249
  29.2043934  49.1301804  69.8289566  29.3119354  49.8979759  69.2675629
  29.6739521  49.3534431  70.6326370  -0.2140151  34.3839569  20.7476063
   0.6543983  34.7538528  20.5886440  -0.0969405  33.4406967  20.6345234
  51.6879921  18.9197388  13.0325441  50.8598442  19.3979950  13.0734940
  52.3094940  19.4763908  13.5016994  25.2686577  58.3313484  18.9172821
  24.8470936  57.6599541  19.4537010  25.3106022  59.1004868  19.4855232
  64.0828018  18.2891331   1.5760000  64.3902817  17.9517250   0.7346636
  64.8827438  18.4485035   2.0769286   9.8542204  50.4456635  69.3243484
   8.9969158  50.1010170  69.5743103   9.6966286  51.3725395  69.1446381
  12.0362682  14.6049557  87.8579025  11.8254852  14.2338066  88.7146683
  11.3468914  14.2788219  87.2794266  17.8439846  31.9751282   2.5759566
  18.3639889  32.6469345   3.0169830  16.9432926  32.2942657   2.6319733
  63.5274086  40.3788261  84.8551788  64.4359512  40.1458702  84.6641006
  63.0861244  40.3378296  84.0067596   4.4109116  33.2490082  56.9340019
   4.8733954  33.6843109  57.6501389   4.4053016  32.3239250  57.1797981
  56.3180237  36.4666519  24.5059090  55.9505539  35.7685661  23.9638062
  56.9020462  36.0147018  25.1149178   2.1829772  23.5347328  76.8248825
   2.8669615  24.1896782  76.6854401   2.2570412  22.9472294  76.0728226
  59.9926109  51.8813591  60.0555916  59.8970299  52.7076073  60.5293083
  59.4976807  52.0105019  59.2465210  47.5326538  25.3385849  73.4875717
  47.3141212  24.4765968  73.8417664  48.0350037  25.7629890  74.1830978
   3.3812876  39.2922249  61.5188866   3.5346503  38.4706154  61.0523338
   2.5246124  39.1777534  61.9302673  48.4559708  61.6316376  68.1796799
  49.1988945  61.0307274  68.1230850  47.7528305  61.1076965  68.5634995
  81.7274704  41.1825256  25.8225174  82.1156769  41.7159500  25.1289883
  82.1220245  40.3178596  25.7088909  16.5766926  43.8306503  42.7473793
  17.3843937  44.3443069  42.7503471  16.4618645  43.5701637  41.8334923
  43.2003479  33.2897377  20.6140881  42.8333397  34.1724815  20.6620979
  42.4472809  32.7266693  20.4350052  74.9571304  35.5042839  68.5193329
  74.5453796  36.0579605  69.1827621  74.9730911  36.0468140  67.7308960
   1.4741387  65.3312302  86.5758438   1.4433198  64.5352936  86.0450363
   1.9449751  65.0726776  87.3681183  56.6332359   8.1447363  68.6666718
  55.8901253   7.5922856  68.4241562  56.2408447   8.8827915  69.1330795
  18.5547733  27.7829990   9.1043129  17.7538624  28.2045536   9.4158649
  18.5931473  28.0004120   8.1729212  22.0697613  13.2562666  70.4938049
  22.6725159  13.9866724  70.6331787  21.4798336  13.2854757  71.2470398
  58.4885101  67.1624451  38.6292191  59.1633568  66.7119141  39.1369934
  57.6625671  66.8566895  39.0041389  51.8222122  46.5208588  49.0130005
  51.0295219  46.1053619  48.6735344  51.9164352  47.3184090  48.4921646
  73.4081039  12.5242729  58.5817032  72.6707230  12.2128429  58.0568161
  73.9807205  12.9639473  57.9531860  17.2805119  60.4884071  51.3010521
  17.2120113  61.0937042  52.0393982  17.9539871  60.8714790  50.7389870
  76.3488083   1.1013535  19.5522633  76.5541153   0.1670022  19.5195713
  75.6928940   1.1783541  20.2451401  33.8417587   4.0364246  75.0201950
  34.0940781   4.7375679  74.4193954  34.0383110   4.3841124  75.8900833
  79.8481750  15.7479134  36.1576881  79.8402786  15.5460520  35.2220497
  79.0967407  16.3272209  36.2840843  67.5603409  56.7305222  71.4146194
  67.1451340  56.3150024  70.6588593  68.4991150  56.6561241  71.2431259
  52.1144295  15.5782347  87.1721268  52.3950920  15.2101374  86.3342896
  51.1582680  15.5494928  87.1380920  76.9278488  11.4919300  81.2635727
  77.0900116  12.2685328  80.7280197  77.7282944  11.3837776  81.7771988
  70.7530975  33.9027252  34.5408020  71.2569885  34.5207481  34.0112915
  71.1286545  33.0472336  34.3326530   8.9662933  15.5261078  20.1041260
   9.4812136  14.7277231  19.9872055   8.0830498  15.2844372  19.8253651
  30.2775993  34.0387955  15.4141998  30.4960327  33.2192497  15.8578920
  30.4675045  34.7189751  16.0603600  30.3017406   0.2130405  82.0642776
  30.6703529   0.4242694  81.2065277  30.3964920   1.0196271  82.5709076
  62.6871452  15.9684477  75.8460541  63.0447350  16.5847111  76.4852524
  62.9561920  16.3204079  74.9975433  19.3548336  58.8807182  16.4533234
  19.6974373  58.8455124  17.3464165  19.8957863  58.2603989  15.9646473
  79.2126465  12.0294237  22.2033520  78.7310028  12.3074160  21.4242706
  78.5451126  11.6500578  22.7749405  67.5556946  67.5440826  14.2768631
  67.4830017  68.3322983  13.7386541  68.0989075  67.8099289  15.0188007
  60.3074875   0.9800445  28.8092709  59.4033089   0.6682712  28.7707233
  60.2302475   1.9324806  28.8652267  48.0707703   8.7731791  72.9675827
  48.1847649   9.6594210  72.6243515  47.1651230   8.7506876  73.2766647
  61.9865036  30.4944191  82.1652451  61.4072380  30.1317825  82.8354492
  62.4412537  29.7333450  81.8044128  66.5362396  20.9503880  86.0880356
  65.9619064  21.1856117  85.3593140  66.6049805  21.7516785  86.6071091
  77.1458130  25.5450115  58.6167259  77.2107849  24.7899990  58.0319443
  77.9465103  25.5121078  59.1402054  67.1817322  29.2312450   1.5181166
  67.6825027  28.4959049   1.8712906  67.8435135  29.8840466   1.2898048
  31.7634945  71.0181274   7.6778240  31.6790047  71.9249878   7.3833652
  32.3134766  71.0703735   8.4595041  52.5458412  36.0041351  73.7237854
  51.8511543  35.9471970  74.3798294  52.7389030  35.0937691  73.4997482
  76.0749588  71.0438385  11.4827881  76.7301102  71.3726273  12.0983400
  76.4799423  70.2689743  11.0931778  29.2705173  66.1192245  76.1732330
  28.4570446  66.3485336  76.6225739  29.8982964  66.7818756  76.4613647
  68.6849670   6.5893621  30.6247711  69.6017838   6.8055367  30.7949352
  68.6298676   6.5122948  29.6722717  71.7980042  61.8780441  87.9251633
  71.8969574  60.9953346  88.2818985  71.0631104  62.2518806  88.4113846
   5.0639782  43.3058891  37.5675049   4.3333745  43.7536697  37.1409607
   5.6209693  43.0149040  36.8454781  14.7346945  59.9310684  30.4337769
  13.8436527  60.2238159  30.6250210  14.8810844  60.1881905  29.5234528
  65.0006180   9.0067291  81.0293121  65.3980103   8.2361135  80.6237717
  64.6657791   8.6900616  81.8682632  11.9835663  14.1799717  82.7890930
  12.9061832  13.9569092  82.9125977  11.9247379  14.4584351  81.8751831
   0.9678298   8.8796511  55.2540283   0.4603329   8.9759464  56.0598869
   1.0529242   7.9335523  55.1361809  11.6703892  23.4433918  24.3205662
  11.5437555  22.5525913  24.6471691  10.9960690  23.9588585  24.7630787
  28.2428875  53.4686966   7.7977009  28.5573692  53.6778793   8.6772318
  28.8156452  53.9660988   7.2139454  67.5955734  31.9090023  88.7058258
  67.4233856  32.1087112  87.7856598  67.6238632  32.7640038  89.1352463
  27.3418446  14.3825884  83.7325897  26.4322929  14.4133387  83.4359360
  27.8573627  14.3957376  82.9261780   2.3004966  67.4709473  52.9802246
   1.5100677  66.9588470  53.1511078   2.2931616  68.1537781  53.6509857
  36.1044006  64.8201294  17.9883995  36.1572952  65.5676193  17.3928394
  35.1890678  64.5435410  17.9449062  55.7418900  39.2538948  39.1895332
  55.3145409  39.7503815  39.8874626  56.6540871  39.5429039  39.2140007
  46.8011398   2.7178631  71.7077866  46.3934669   3.4161634  72.2200470
  46.0824318   2.1193380  71.5041656  49.0027809  37.0476875  65.0091324
  49.3234138  37.6421318  64.3308563  49.5488014  37.2379150  65.7719650
  66.6029739  61.7592506  45.7541733  66.0686035  61.7063560  44.9617844
  66.6845627  62.6973839  45.9258575  29.2825813   4.3376555  25.4337044
  29.1835804   3.6046226  26.0412331  28.6185303   4.9692030  25.7101402
  62.9567108  10.5587692  14.6468382  62.1207314  10.7310963  14.2136259
  63.6056747  10.6130533  13.9453182  71.1046448  19.2666817  43.8304405
  70.6123352  20.0449543  43.5693741  71.3871307  18.8737640  43.0045776
  49.2050552  18.8031254  48.3095398  49.4215012  18.5279961  47.4186478
  49.8706779  18.3868370  48.8571548   6.3924494   3.4503982  48.2563782
   5.5745707   3.5117829  47.7628822   6.8440371   2.6956701  47.8786392
  51.0921860  67.7164612  31.9271431  51.7285576  67.0421906  32.1650887
  50.3998070  67.6344528  32.5829773  54.1568108  17.3774624  51.2170258
  54.7254333  17.9524193  51.7292023  54.7184067  17.0485764  50.5151176
  81.3471832  32.4486351   2.4756083  81.2024765  31.5024376   2.4758017
  81.4388809  32.6767197   1.5505128  74.3232117  64.1240845  15.7944250
  74.1385574  65.0401688  15.5872469  73.4989166  63.7870369  16.1453686
  85.1455231  22.1646156  88.6696396  85.0566940  23.0504417  89.0212860
  84.6201630  21.6203117  89.2561188  47.1592445  12.1499987  56.2335854
  48.1066017  12.2844210  56.2594757  47.0457382  11.3402882  55.7358742
  27.8750591  70.7897110  81.0847626  27.8605595  71.5095367  80.4539871
  28.6369171  70.9693375  81.6357040  61.4743423  52.4719696  69.5675201
  60.9507294  52.4272232  70.3675537  62.0956650  51.7481918  69.6471252
  66.2308426  18.6942711  77.6321335  66.7009430  18.0168896  77.1459274
  66.9170227  19.2820320  77.9482422  49.5965042  54.5718956  24.9318218
  48.7617378  55.0326042  24.8472977  49.6700172  54.0597229  24.1265240
  81.1585388  12.9236002  60.9734383  80.5998306  13.5183496  60.4730835
  81.7519150  12.5482321  60.3228722  59.7569313  55.4419518  20.2735424
  60.6360321  55.5234375  19.9037189  59.7705612  56.0024414  21.0493622
   3.4307265  57.3557625  80.3003845   4.2351737  57.1136093  80.7591400
   3.7308953  57.8251419  79.5220490  51.4475327  62.7556877  64.6102219
  50.9699249  61.9480438  64.4209137  51.5633736  63.1713257  63.7557869
  16.8378029  47.4023209   1.6626612  16.3662987  47.1399422   0.8720457
  17.6829205  46.9578209   1.5961457  38.8965263  42.8586082  27.0934467
  38.1365738  43.3493004  27.4063759  39.1294708  42.2860641  27.8243122
  67.0920563   4.6029053  38.4488182  66.7470551   3.7185585  38.5718460
  67.9211273   4.6052618  38.9272079  75.4077377  70.1311035  51.7335167
  76.1287079  69.5188065  51.5867920  74.6625366  69.7366486  51.2804108
  64.9589767  11.0253754  72.0543747  64.3404007  10.9736376  72.7830200
  65.0740128  10.1177435  71.7729492  50.3528557  55.2919540   4.3478918
  51.1434479  55.5825043   3.8931680  49.7190056  55.1329803   3.6484661
  43.4738579  59.6071663  67.9133987  42.6299858  59.3204803  68.2625809
  43.3203087  59.7156792  66.9748535  35.7104225  31.2622757  63.5139618
  35.0904388  31.1949329  64.2401276  35.3577576  30.6778107  62.8429451
  68.0281601  45.1407089  69.0867004  67.5924149  45.8691139  69.5291748
  68.9621735  45.3090706  69.2112122  54.0430946  64.1662674  49.0076523
  54.4685440  63.3098946  49.0505409  53.1193390  63.9673996  48.8548012
  14.1137142  55.2296028   6.7239170  14.6087008  55.9719315   7.0705733
  14.2779303  54.5208054   7.3459044   9.1994009  13.9514694  64.8974380
   8.9409084  13.1907701  64.3771057   8.5691586  13.9744701  65.6175079
  46.6770782   7.7693849  23.2676449  46.9817696   7.6558204  24.1679211
  47.3725586   8.2696543  22.8407154  48.3475418  58.2336540  11.5148067
  47.4817429  58.0129471  11.1714277  48.4491730  57.6749268  12.2853432
  71.1093292  52.4823608  17.9240246  71.5499573  52.4123154  17.0771637
  70.2275543  52.1461716  17.7637577  25.4132786   2.3905456  66.5173569
  26.2631569   2.8200371  66.4200211  25.6054897   1.4568281  66.4309998
  67.3576202  70.7466278  64.6010284  67.0705261  70.3758469  63.7665634
  68.1479340  70.2541885  64.8226776  61.9668999   3.5356092  38.3947678
  61.1666069   3.6258862  37.8774567  62.2346649   4.4355760  38.5807571
  40.3721008  51.7544594  57.1873360  40.6562347  51.0950737  56.5543213
  40.4375305  51.3159409  58.0356598   9.5602007  61.3044853  13.2215624
   9.8593712  60.8911400  12.4117022  10.3250523  61.7813416  13.5438080
  46.3962669  29.8660316  71.4742584  46.7349281  29.0012398  71.7059479
  45.4450607  29.7590904  71.4759521  31.2178154  56.0649529  87.9890976
  30.8585205  56.7241096  88.5829468  31.5882015  55.3980980  88.5673294
  86.2719040  13.3548288  52.4297142  86.4825668  12.4258051  52.5233421
  85.4210205  13.4517527  52.8573151  51.7632027  49.6086082  44.7376060
  52.1080589  49.0607452  45.4426994  51.7668304  49.0391655  43.9682198
  67.7557755  17.0119572  52.9092636  68.1245193  17.8205643  53.2648125
  66.8195724  17.0717392  53.0994492  54.6855011  63.7939606  89.3944244
  54.5517159  62.8559418  89.2585678  55.1304970  64.0899200  88.6003113
   5.8325191  68.6484070  65.7417068   6.7512512  68.7827682  65.9743271
   5.4291067  68.3138504  66.5426865  79.9457550   8.6606598   7.4886174
  79.0246353   8.5056248   7.6977429  80.1708374   9.4551563   7.9727120
  52.2919273  16.2749920  41.3717957  51.4112434  16.0444622  41.0760231
  52.8302612  16.2264652  40.5818138  75.8393173  54.5112953  16.0629044
  75.1140366  53.8878822  16.0234203  76.0849380  54.5347137  16.9877567
  68.0950851  39.0691071  40.5910721  69.0242996  39.1820107  40.3909645
  67.6404572  39.4382706  39.8339310   2.6326277  18.8765335  13.2157831
   3.5553317  18.7550125  12.9919939   2.2052782  19.0592747  12.3789978
   5.6847239  10.8254061  80.2065964   4.8392200  10.4499083  79.9609146
   6.2690487  10.0709982  80.2818604  68.0299683  18.6467552  26.7553902
  67.8694611  17.9154091  27.3517132  68.1080017  18.2396183  25.8926144
  69.5410767  52.8685265  57.4346123  69.9189835  53.3138466  56.6762543
  70.2878799  52.4512901  57.8640671  53.0193558  64.8626556   9.3275118
  52.6786880  65.6143951   9.8123493  53.0497627  64.1557083   9.9721289
  54.9190750  51.6088295  60.8366051  55.3615646  52.2941437  61.3373909
  55.5531387  51.3549500  60.1659775  59.2135010   4.0114908  11.9435053
  58.4234962   4.2464995  11.4567862  59.2832489   3.0621462  11.8429461
  55.5770149  49.3352547   5.8980627  54.7983971  48.7807884   5.9485788
  56.2106056  48.9117699   6.4772458  24.8015251  33.3039627  64.1914520
  24.5966606  32.8617592  65.0152969  24.7498894  34.2365379  64.4008942
  28.7148113  38.1836205  72.6131592  28.7779465  37.7097816  71.7838669
  29.0461941  39.0593681  72.4144592  83.5169449  13.4616098  86.2227631
  83.7239151  12.5468225  86.4139709  82.6899109  13.6202335  86.6778336
  27.8565922  54.4494438  31.1950912  27.1066513  55.0390434  31.2737789
  28.6114197  55.0319710  31.1106586  14.2564774  31.6280499  86.1195908
  14.6736784  30.7995777  86.3558273  13.8901901  31.9546661  86.9414062
  47.8072357  30.7921448  78.7303925  48.7561989  30.8131809  78.6068726
  47.6724281  31.1433735  79.6105652  59.0454292  47.9126282  13.8090553
  59.2743149  47.2583122  13.1489697  59.5876236  48.6711540  13.5924864
  21.7748585   6.0300546  10.4364710  21.6844521   6.6643291  11.1476345
  20.9064522   5.6356688  10.3554468  78.1009293  63.8526421  44.6252403
  77.9887772  64.4747543  45.3440132  78.8629608  63.3308563  44.8767891
  48.3601913  40.8226089   9.2236137  47.8962669  41.0176010   8.4093771
  47.9226303  41.3606834   9.8833466  39.0510063  41.0180397  68.4657211
  39.7798615  40.7487717  69.0247345  39.0532494  40.3849945  67.7477493
  71.8281784  44.3268013  62.1836472  72.1374893  43.4989128  62.5512886
  70.9403992  44.4248695  62.5278168   3.9384966  31.1505432  41.9664307
   4.1022234  31.2729626  41.0313148   3.3227243  30.4188824  42.0079994
  55.0795479  43.9757729   0.5293418  55.9627380  44.0196838   0.8957794
  54.7198257  44.8522720   0.6656679  30.7495003   2.5879145  83.5582504
  31.0631676   3.2705090  82.9650269  31.4066257   2.5542452  84.2534332
  55.6313400  22.6783791  50.3767624  55.7382355  23.3538017  49.7069817
  55.3071175  23.1506882  51.1435966  62.7358093  34.9822388  85.5409088
  63.2089958  35.7585793  85.8402710  62.5926247  34.4678574  86.3353500
  13.2910480  63.5810509  78.4309311  13.4764853  63.7035522  79.3619690
  12.6450243  64.2565231  78.2244873  47.7476120  49.4861221  31.3725281
  47.6223068  48.5413475  31.2834663  47.0128136  49.7752380  31.9135532
  56.2904053  33.1671867  29.4639206  55.3499908  33.1417580  29.2872696
  56.3676491  33.6627884  30.2791767  31.5360470  53.4556808  60.0666733
  30.8444996  52.9281158  60.4662590  31.1597290  53.7572746  59.2398376
  46.4570732   2.2563910  56.8882675  46.4882965   2.6790810  56.0300217
  46.9745865   1.4583052  56.7811623  28.1872578  54.6062279  84.4568939
  27.4816971  54.7955170  83.8383560  28.4286346  53.6981354  84.2743073
  24.4584980  20.0849113  83.9037857  24.5699215  19.4938869  84.6484375
  23.5321770  20.0095482  83.6746979  78.5997849   8.5584126  46.6971283
  78.7587357   9.4971104  46.7961960  78.6481857   8.4055758  45.7534485
  14.7948418  69.8661118  38.2118149  15.6291838  69.9852600  37.7580414
  14.9839439  70.0890503  39.1232796  81.6805725  43.2090073  67.5521545
  80.9434662  43.0628014  68.1450500  81.2903824  43.6234169  66.7825775
  56.6102257  46.2153435  82.0502243  56.4206848  45.5604324  82.7220840
  57.4501801  45.9431381  81.6806183  48.1041336  71.5402298  82.5754318
  48.2560654  70.6599579  82.9193344  48.5513649  72.1190567  83.1928253
  34.2576370  32.4649811  71.8571701  34.9346542  32.0766716  71.3030090
  33.8965950  33.1778870  71.3302460  41.9399338  44.7038689  37.7585449
  41.5974579  43.8515396  38.0277596  41.7788887  45.2748337  38.5097389
  37.0326462  57.8492661  69.3047791  36.8264122  58.7464447  69.0425339
  36.5178223  57.7075958  70.0992050  17.2149258  10.4580545  59.8845406
  16.6584454  11.1685457  60.2035408  17.9183559  10.8998747  59.4089165
  66.2820282   1.0595689  45.4354210  65.6554260   1.5354511  45.9805260
  65.7392731   0.5801946  44.8094406  46.5821800  62.8331680  40.8902893
  46.8255310  63.3938217  41.6269569  45.8678055  63.3016472  40.4585190
  13.3273125  52.8684883  60.3870316  12.9380560  53.2177353  59.5853233
  13.8203506  53.6025963  60.7534065  60.9584541  64.3805695  85.6201096
  61.4361649  64.0656204  86.3874664  60.5637054  63.5937576  85.2441635
   2.0334282  32.8899193  55.0349236   2.8287354  33.4184723  55.1008835
   1.8379296  32.6377182  55.9373703  28.6129723  69.9925079  71.5906754
  28.1239204  69.5785828  70.8795319  29.4612694  69.5490952  71.5877762
  30.8916416  26.8665810  14.3708496  30.5101719  26.1436977  13.8726997
  31.8166504  26.8652191  14.1247034  58.5828590  71.4717712  80.0536575
  58.5567551  70.5850220  80.4131317  58.2111168  71.3853912  79.1758270
  64.0302200  23.7399540  61.3285904  64.2607422  23.7293339  60.3996239
  64.2744370  22.8705387  61.6459236  56.4466362  14.0216942   6.8434854
  55.5379829  14.0223770   6.5425167  56.8552666  14.7483721   6.3731766
   4.4795241  62.6870155  28.8958969   4.6880369  62.6634941  27.9619808
   4.6627746  61.7997017  29.2046432  74.8591080  11.2342052  62.9024467
  74.8829117  12.0235815  62.3615646  74.7721558  11.5601788  63.7982216
  82.6005325  25.0894928  55.1780128  82.4634094  24.1451645  55.2533302
  83.5430222  25.2050514  55.2988281  44.7576523  55.3968506  82.4112396
  45.3719521  55.6078491  81.7081375  43.9342499  55.2078972  81.9611969
  79.5131073  47.5841560  36.4771881  78.7936249  47.3353767  37.0574417
  80.1179047  46.8431625  36.5143089  21.6657982  29.3130856  77.2372818
  21.9256668  29.9773235  77.8756332  22.3492775  29.3438835  76.5678482
  61.3688583  12.9349766   2.2129312  62.2512856  12.9846458   1.8453847
  61.4522743  13.3135624   3.0881147   9.4610424  41.8225937  74.1275101
   9.4491301  42.3963852  73.3614426   8.5493240  41.7910805  74.4173508
  76.7946167  11.4061470  15.4002571  77.5615387  11.9458685  15.5920076
  76.2027969  11.5607481  16.1365147  51.4219284  70.6885681  83.5382080
  50.9180527  71.1217041  82.8491974  52.0107346  71.3677216  83.8672867
  32.3394966  42.4379425  81.3561249  31.9229145  43.2751999  81.1519318
  32.7308998  42.1571426  80.5289688  36.5161362  54.3922195  62.4747276
  36.0679245  53.6152802  62.8089447  37.3776016  54.3695602  62.8913765
  34.9333687  53.7785645  41.1760216  35.0083580  52.8409996  41.3537254
  35.7958870  54.0293961  40.8452950   8.2794495   0.9585307  77.4228668
   8.7560463   0.2394382  77.8375931   8.2862225   0.7438708  76.4900742
  21.3268299  67.2283325  20.6372833  21.6210289  66.4365616  20.1869793
  21.9576340  67.8998718  20.3777618  50.8401489  43.3772583  87.9994888
  51.4447289  43.3357697  88.7404327  50.6653023  44.3113670  87.8850403
  58.8033714  27.1147079  23.2412243  59.3398590  27.5620174  22.5867577
  59.2747078  27.2415886  24.0646172   2.5322535  16.5237236  21.4512959
   2.8770890  17.3572426  21.7715549   2.7048120  16.5389881  20.5099030
  43.9689522  41.6671219  69.4722824  44.3643150  41.6273117  70.3431091
  44.5192604  41.0989799  68.9331970  75.8826370  38.6180267  24.8217220
  75.0630951  38.1447906  24.9653664  76.4696426  37.9684677  24.4347725
  44.5350037  59.7649994  85.9559250  43.8145981  59.1594238  86.1306458
  44.1091156  60.6118507  85.8229065  76.3459167   4.3885956  78.6600876
  75.6885529   4.6987343  78.0372620  76.0292130   3.5277810  78.9338150
  85.7893753  59.0804176  71.7009964  86.1723785  59.2532425  70.8409500
  86.4236374  59.4386063  72.3219986   9.5285501  43.4701347  71.9879837
   9.3845568  44.3655052  71.6817017   9.9229422  43.0216331  71.2399673
  26.6292648  47.6904259  87.2520218  25.7942638  47.2455750  87.3973236
  26.5591373  48.0483589  86.3670425  49.1958847  43.2081871  53.0186310
  48.4439125  43.0972824  53.6004105  49.4803810  42.3156166  52.8221321
  14.2170820  35.7767754  10.7338266  13.6654453  35.2384911  10.1662197
  13.8872814  36.6673050  10.6137304  56.6981087  68.6076126  76.9084015
  56.3960114  67.9827271  77.5675583  56.4281693  68.2245636  76.0737534
  67.4328003  14.0043936  39.7563782  66.9007339  13.9827166  40.5517807
  68.1436691  13.3864536  39.9268227  15.1799355  51.7383614  85.1416397
  15.4002981  51.5216751  84.2357025  14.5989475  52.4958954  85.0721970
  32.2169991  70.7145157  19.5555038  31.3355141  70.3415985  19.5678520
  32.0988121  71.5970230  19.2041626  10.2307358  70.2690582  22.2692528
  10.7328091  71.0801086  22.3489494   9.3166695  70.5530396  22.2609959
  35.0544090  49.7772827  19.9096298  34.3773766  50.1793327  20.4538822
  35.6617699  50.4914246  19.7163734   3.6658294  63.3310776  69.2341309
   4.2481289  63.3891640  68.4766464   2.7941828  63.5078888  68.8802948
  60.9454651  23.2037811  40.5526695  61.8968048  23.1019287  40.5241127
  60.8081017  24.0552254  40.9678879  26.1332188  58.1026955  26.1808968
  26.7519112  58.1617889  26.9088802  25.2714748  58.1588173  26.5937862
  11.8903780  65.8129654  73.4673233  11.9890966  65.5795822  74.3903732
  11.0209589  66.2095871  73.4122162   5.3341231  18.1115761  46.8003311
   4.6285815  18.0814362  46.1541595   5.6846452  18.9995842  46.7309761
  63.4040489  63.4949951  40.2274895  63.4629936  64.1441803  39.5265465
  62.7781334  62.8478050  39.9025230  46.2714500  45.9121704  18.6259670
  45.4983635  46.4421768  18.8200340  46.6881905  45.7759209  19.4768448
   3.5952866  65.2360229  79.4234238   3.3696082  64.4169693  78.9824524
   3.5486979  65.0265427  80.3562546  11.3292398  26.8963375   5.3270640
  11.9813757  26.2693157   5.6397858  11.4755974  27.6790924   5.8582006
  20.7855282  68.2112579  11.7229700  20.3653469  67.3608398  11.8512945
  20.2441845  68.6492081  11.0661755  59.0735130  39.8840446  66.5082092
  58.9717598  39.0066795  66.8771439  58.5049248  39.8875008  65.7381897
  68.3814774  49.8384323  51.8884163  67.9508896  49.0198364  51.6419868
  69.3168488  49.6409645  51.8403168  41.7573700  54.3725510   1.8565145
  42.4297333  53.8367844   1.4356681  42.0235367  54.4129601   2.7750752
  68.7042999  52.5382500  51.2951317  68.3038635  51.7567673  51.6761475
  69.0076065  52.2555656  50.4323883  82.0279694  65.3987350  66.8900299
  81.6910858  66.1828613  67.3234863  82.3356705  64.8428116  67.6059189
  39.1944847   7.2812209  15.6155939  39.5747757   7.5482526  14.7787504
  38.2489700   7.3405352  15.4788055  60.5872154  70.8709793  88.2201233
  61.2548714  70.2213593  87.9999695  59.9798698  70.4049530  88.7947388
  34.5435104  36.2083740  55.7719765  35.1766281  35.8951683  56.4179611
  35.0800362  36.5701180  55.0666275  29.1193657  25.1816235  13.2153101
  29.3661156  24.8875389  12.3384628  28.9428043  24.3740730  13.6979284
  67.9166031  52.9910240  40.8402061  67.3522339  52.3543701  40.4015732
  68.7673798  52.8912315  40.4130707  31.0242786  41.7152252  87.5476532
  31.1492596  41.0160904  88.1893845  30.2231331  42.1575317  87.8282928
  52.8888130  41.6286736  53.1909523  52.6515503  41.9184685  52.3100700
  53.6124573  42.2015228  53.4447594  21.5487175  67.8818741  82.4166107
  21.2021427  67.8348541  83.3076248  22.4990940  67.8553848  82.5275726
  28.8496685  54.9438591  87.0617599  28.5890865  55.1558228  86.1654358
  29.6075401  55.5039253  87.2296524  66.8582993  23.8531780  48.1861801
  66.6025162  24.7746544  48.1450882  66.1479492  23.3875198  47.7448235
  64.6505508  14.8753691  54.8768845  65.5591965  15.1544790  54.9895325
  64.7127991  13.9563265  54.6166573   1.1405177  55.6416817  14.0962620
   0.8975974  56.3287621  14.7168617   1.8082671  56.0450668  13.5416241
  63.4324722  66.3190231  71.5285110  63.9630241  66.7983780  70.8921509
  63.3146210  66.9331970  72.2531738  43.0735970  55.4528618  31.5695858
  43.6765137  55.8034668  32.2251740  42.3611450  55.0687103  32.0805397
  24.7451096  67.3952255  23.4466648  24.8477306  66.4845581  23.1702728
  24.0283318  67.3737717  24.0806980   7.1377211  13.4264088   1.7987173
   6.4369802  12.9306040   2.2222407   6.7475281  14.2801218   1.6112186
  70.9636612   2.1437476  25.0131378  70.3762512   2.5049958  25.6769772
  71.8068848   2.5624378  25.1860771   0.4763784  46.7994652   7.3802071
   1.3250562  47.1043930   7.7011347  -0.1645122  47.3018341   7.8833117
   7.0733366   2.5788496  30.9003201   7.5454373   3.1519201  30.2962151
   6.2003336   2.4939609  30.5170555  10.5833464  51.6934509  47.0581703
  10.8400803  52.2388229  47.8017387  11.2455482  51.0029526  47.0276527
  41.1334953  54.8254929  63.6828003  41.5682335  55.5151825  63.1812401
  41.8396873  54.2295227  63.9324875   9.5239172  13.4086905  74.0230713
   9.6699104  12.5257292  73.6835175   9.9560938  13.4113512  74.8771515
  17.9558620  61.7096443  66.2649612  18.6766033  62.3318138  66.3632965
  17.2229710  62.2396812  65.9516525  56.4886971  59.1503143  45.6507378
  57.1417580  59.2277412  46.3462563  56.8840103  58.5522156  45.0165138
  12.4588175  13.9842596  72.9703293  12.3854513  13.0355148  73.0739212
  13.3992357  14.1577473  73.0121231   1.9079994  45.2314835  55.1160164
   2.8484712  45.0575867  55.1548157   1.5481297  44.7730026  55.8753090
  18.4587898  42.4302444  44.6298256  17.7255535  42.9377403  44.2819138
  18.9045620  42.0905800  43.8538437  68.8269882  50.5426979  11.1765919
  68.9067841  51.4636078  10.9280195  69.6533737  50.3405647  11.6153049
  47.3764153  30.7079983  68.2963181  48.1959915  31.1842022  68.4295807
  47.2317581  30.2446518  69.1213074  82.6407394  46.3267288  87.4868317
  83.4566422  46.5610085  87.0445175  82.8802109  45.6000519  88.0620041
  79.0595322  23.1793404  66.2463226  79.1672211  24.1127491  66.0636139
  79.9349136  22.8810692  66.4932632  40.9239769   1.1499207   5.3522334
  41.8751297   1.0838304   5.4369063  40.6836243   0.4232645   4.7774005
  57.8368797  15.7141981  70.8802338  58.0998535  15.9452095  71.7711411
  58.3145256  14.9064770  70.6913528  24.1341743  53.2436066  64.3614578
  23.9049416  52.3579941  64.6432037  23.9943581  53.2374268  63.4145470
  85.3700714  33.9065781  74.2498398  84.5331802  33.7481689  73.8130798
  85.1303329  34.2698288  75.1023712  21.9882450  26.6744957   1.9035119
  22.7519760  27.2445641   1.8142430  21.2409210  27.2458172   1.7265072
  44.6179428  53.8262672  74.7497177  44.2145729  54.0729828  75.5819778
  45.1256714  54.5957756  74.4922180  18.9435883  47.4251671  20.1380997
  19.0381336  46.5425568  19.7799149  18.1696663  47.7796593  19.7003670
   8.4847441  42.0951347  19.3545284   8.7392902  42.9544029  19.0182323
   7.5353608  42.0634270  19.2366390  43.8276787  60.2537422  73.7267609
  43.2554283  60.4634476  72.9886627  44.2074928  61.0945396  73.9817810
  31.4015522  59.3388634  64.6044769  31.4392567  59.1089287  65.5328827
  31.5373669  58.5093346  64.1465759  60.1139908  32.6140671   5.3889790
  59.7908707  32.7300987   6.2824893  59.8503647  31.7247810   5.1525397
  39.6840172  56.9632072  58.3065948  40.5611343  56.9696121  57.9233780
  39.6027527  57.8162689  58.7331047  67.9849014  35.1521645  82.2779694
  67.6883545  34.9842262  81.3834915  67.5604095  34.4732437  82.8024750
  53.3176956  58.2935104  53.0788536  53.5251961  57.3916245  53.3233566
  52.4159737  58.4202385  53.3739166   3.7427511  10.8940907  16.0741291
   4.0592875  10.6176863  16.9341507   4.5341392  11.1410780  15.5956593
   4.2613816  54.9304390  32.6797676   3.5189710  55.3571434  33.1075287
   4.4663429  54.1845551  33.2435722  39.4396362  67.0010986  56.7978134
  38.5692711  66.8439255  57.1638603  39.9259949  67.4200897  57.5078316
  20.2666321  38.6966934  43.9102821  19.9092026  38.3804512  43.0805435
  19.5136204  39.0692711  44.3689651  39.5582428  61.3676567  68.9959641
  38.9854546  61.9614067  69.4813538  38.9590607  60.7881355  68.5254593
  53.9109612   4.6704330  64.9608994  54.2716599   4.3360114  65.7820511
  52.9629173   4.6557240  65.0921555  61.4549332  70.4735489  16.3240929
  61.3061523  69.5697098  16.0463142  60.6399460  70.7284317  16.7565994
  67.5670547  70.7786636  10.3062534  68.2267303  70.7609482   9.6128912
  66.9427795  71.4479065  10.0258579  70.5370560  59.5770111  37.9170609
  70.8707199  59.9691505  38.7239838  70.3162766  58.6781464  38.1610565
  17.2204323  23.0550060  80.7453918  16.6546097  22.4053383  80.3282471
  16.9104767  23.8950691  80.4070816  54.6438675   9.0741844  24.3489666
  54.3840027   8.9653931  25.2637711  55.0212669   8.2290182  24.1050510
  63.4227638  15.9759035  35.4743118  63.7889442  16.5337086  36.1606064
  63.7137337  15.0930328  35.7025833  18.1345348  70.2609711  68.4324493
  18.6707821  70.7771149  67.8305664  17.2338123  70.5073318  68.2221222
  18.2703590   1.1462814  54.0170898  19.2089386   1.3326520  54.0408630
  17.9127541   1.6213994  54.7671661  62.2019463  10.5468321  77.0823059
  63.1273308  10.4779119  77.3171310  62.0757484  11.4727726  76.8750839
  66.7168884  46.6935234  80.4826050  66.4460068  46.2257118  79.6926651
  66.4258194  47.5940666  80.3393326  19.2899857  35.4320297  13.0520439
  19.8275623  34.6443863  13.1348972  19.9099751  36.1211472  12.8133831
  33.3325729  30.3242531   8.2549629  33.8592758  30.2701855   9.0523911
  32.4290771  30.3719444   8.5674582  78.1441879  27.0773296  84.7075500
  78.8472443  27.6625309  84.4256058  78.4770203  26.6713371  85.5079422
  14.6012459  43.8109322  22.5327034  14.6894732  44.4606133  21.8353062
  14.2428026  44.3010368  23.2726669  84.0461807  31.4558601  52.5106468
  84.0631561  31.2954807  51.5671310  84.5934982  30.7634811  52.8811722
   3.0387974   5.8698416  20.9179459   3.9594450   5.6742392  21.0922432
   2.7350972   6.3166032  21.7081375  55.9894066  11.4185448  58.4012756
  55.3359985  11.0923510  59.0200539  56.7661171  10.8850918  58.5697403
  57.0777588  32.1108398  26.6917782  56.9199219  32.0848160  27.6355152
  57.5774345  31.3147945  26.5104675  -0.3321153  60.4701004  61.9724579
   0.2090653  59.8126564  61.5352783   0.2915959  61.1281471  62.2793694
  57.3294792  45.3268700  28.0723305  57.2157516  45.3437920  29.0225983
  56.5741920  44.8354301  27.7494297  18.0347881  10.2898378  23.3601284
  18.5395069   9.5375957  23.0509014  17.2860184   9.9049826  23.8156090
  23.3394756  51.3950462  41.2774696  22.4930267  51.8372269  41.3425179
  23.9772663  52.0588837  41.5397148  69.9609222  68.7639618  33.1142998
  70.1472778  67.8299637  33.0186501  69.5561676  69.0137329  32.2836227
  77.3861542  16.1200428  17.1370087  77.2140579  15.5472670  17.8843651
  77.5641861  16.9758205  17.5271111  64.5783386  68.3567505  38.7031708
  64.9639587  67.6683960  38.1612244  64.8959808  69.1725235  38.3160667
  50.4999008  52.5268478  62.9317970  49.6034470  52.7505684  62.6817055
  50.8568268  52.0765190  62.1662636  66.5589905  33.6371040  48.5192795
  67.4912033  33.4474564  48.6253548  66.5361176  34.4713478  48.0505104
  47.7223511  71.5168457  56.3875160  48.5127373  71.9763412  56.1039886
  47.7606659  70.6735535  55.9362717  64.8917847  27.6026134  65.9304199
  64.9168015  28.1308117  65.1325378  64.9627914  26.6992607  65.6219635
  33.6934776  39.1682739  64.7250061  33.1721115  39.0071754  63.9385872
  34.5865364  39.2844086  64.4006729   4.2896972  71.1250534  52.1222382
   4.3408689  72.0705719  51.9822006   5.0266304  70.9283600  52.7005730
  54.8302231  63.2875366  33.3651352  53.8757362  63.2281570  33.3243408
  55.1356544  62.7309837  32.6487617  46.1585960  31.4396114  86.6135788
  46.3396797  31.9330311  85.8135986  45.5255547  30.7733803  86.3459473
  57.2477760   0.4689601   6.8565140  56.4860153   0.1715296   6.3590326
  57.6377678   1.1524469   6.3115511  35.8911133  16.2343426  73.7451401
  35.8111839  17.1656990  73.5391922  36.8208580  16.1101589  73.9358902
  33.1343460  55.9403267  12.9596834  32.4448357  56.5808868  13.1342983
  32.8071327  55.4326172  12.2171249  49.8074570  61.4580765  53.5318756
  50.4030685  62.0818787  53.9470253  50.1702042  61.3272552  52.6557884
   3.3372104   1.0551683  65.3945236   3.2468491   1.7162637  64.7082138
   3.0540452   0.2398990  64.9805374   0.5160003  40.8085251   7.9270401
   1.1976291  40.9734268   7.2755637   0.9692681  40.3567200   8.6388350
  72.3226089  11.5749073  80.6582108  72.1771774  10.7986374  81.1990280
  72.0195541  11.3199148  79.7867889  31.5768776  62.5398178  23.6822186
  30.9883423  63.2764893  23.5173645  31.2137985  61.8223381  23.1629601
  13.9752874  39.7793312  11.8766670  13.5834999  40.1998405  11.1112223
  14.7809658  40.2715645  12.0342140  85.4457169   9.1350336  19.9961205
  85.4146423   9.6256037  19.1747761  86.2270737   9.4627600  20.4414349
   2.0888300  61.7012291  65.7342529   1.6395053  62.3031349  65.1409149
   3.0194352  61.8490257  65.5658417  73.5784302  51.7569847  52.0712700
  73.4427948  50.9013710  52.4784126  74.0453644  51.5640450  51.2582664
  78.7389450   9.4044104  14.6252213  77.8683624   9.7197361  14.8678865
  79.3375473   9.8998404  15.1842060  44.6604309  65.0859375  24.5333824
  43.9313583  65.6068878  24.1967926  44.6389999  64.2812347  24.0154705
   7.8075848  34.9596367  76.6099548   7.6098280  35.2002945  75.7048492
   8.7495289  34.7894363  76.6121902  30.2938595  58.8484459  25.2196655
  30.5345917  59.6234207  25.7273026  29.3369617  58.8362770  25.2403965
  57.4671097  41.8389015  45.9720459  57.5462799  41.2616806  46.7315025
  56.5370178  42.0623474  45.9369583  46.7265663   5.2667909  39.1443481
  46.9197884   5.8968430  38.4501343  47.2064400   4.4778929  38.8921738
  62.0737305  36.9907074  71.7485123  61.5323181  36.6245537  71.0492020
  61.7511368  37.8852654  71.8577194   4.0763497  67.4488220  29.3027725
   3.9169700  68.1890793  28.7172337   4.9574466  67.1504364  29.0772476
  38.3613358  44.7908363  23.1582413  37.9174614  44.9806938  23.9847755
  37.7066269  44.3277168  22.6356430  35.9640388  44.2949753  13.1508532
  35.6408386  43.4979248  12.7307539  36.4965172  43.9814072  13.8818598
  69.0987167   8.8541317  80.1604614  68.8099289   9.6890669  80.5288620
  69.8337555   8.5896950  80.7136459  65.7241974  19.1421471  13.7819834
  66.5892868  18.7326775  13.7679214  65.8424072  19.9679012  13.3125286
  61.9511185  19.1109257  58.7842102  61.8411293  20.0301056  59.0276108
  61.6707573  18.6229305  59.5584755  86.0990601  13.6995344  81.1587143
  85.5222168  14.0584812  81.8329849  86.4200134  14.4667788  80.6848373
  12.0917816  21.3264713  22.1085491  11.8049068  20.6411476  22.7120934
  12.4131575  22.0267010  22.6765537  33.8905449  18.0920086  15.0950756
  34.4912071  18.6814995  15.5510778  34.4120789  17.7230988  14.3822365
  72.5602493  38.3768425  75.7587433  73.0139313  37.8598824  76.4244537
  72.5870056  37.8314362  74.9725876  51.6224442  37.7828979  61.9480247
  50.7884560  38.2124748  62.1381836  52.0123558  38.3136749  61.2534142
  27.8767395  70.2627945   3.0642428  28.0044613  70.2539444   4.0128422
  28.1339760  69.3857956   2.7797475  24.0366516   1.3140481  69.3063278
  23.1691589   1.2456189  69.7050781  23.9375153   1.9849650  68.6308441
  21.3669262   8.9603300  70.3860931  20.6516418   9.4176054  69.9439392
  22.1555882   9.4297094  70.1141968  15.4610214   0.5806832  59.8325653
  15.9800329  -0.1908315  59.6053581  14.5944319   0.4024698  59.4671974
  65.5468903  30.7842751  12.0735950  65.5750122  31.1555958  12.9553900
  64.6273193  30.8487644  11.8157768  78.4767532  47.4794312  15.0681763
  78.8986816  47.8015747  14.2716665  77.5413513  47.6116066  14.9139614
  60.5891342  34.6016769  76.8974609  60.6814919  33.7384415  76.4943161
  61.0459061  35.1947327  76.3009109  11.7921114  38.6349182  50.6287079
  12.5658045  38.6587372  50.0656242  11.2678804  37.9115601  50.2849541
  75.3356476  39.6350937  13.9955587  76.1558075  39.2562218  14.3118229
  75.4780731  40.5808449  14.0342836  74.6396332  45.7835617  23.3721771
  73.7659454  45.6025047  23.7187405  74.5253906  46.5645561  22.8306675
  80.6928253  49.7094955  63.1523705  79.9767456  50.2504616  62.8194733
  80.6824875  49.8542404  64.0985031  66.3554001  -0.0423084  51.2994537
  66.2160645   0.8223737  51.6856422  66.3034973   0.1059043  50.3552246
  55.7555656  36.7852058  30.6005592  55.0264435  36.4931030  31.1476364
  55.9450531  37.6718559  30.9074421  42.7748299  22.3039036  12.2512054
  42.7049561  23.0029545  11.6010695  43.6467285  22.4154911  12.6301155
   0.2049715  32.7984581  26.3166981   0.7615109  33.4471741  26.7475853
   0.6321914  31.9605160  26.4943810  -0.0528880  69.1095963   3.8882513
   0.8393009  69.4021301   3.7020900  -0.5982787  69.8757248   3.7098300
  30.7683983  43.2204514  71.9084244  31.6897926  43.3465042  72.1350784
  30.4029160  44.1049538  71.8907700  20.4514484  17.5393486  53.4694557
  19.8741894  18.2934799  53.5889931  21.1652794  17.6832752  54.0907135
  14.8991518  62.4051170   8.3809032  13.9711714  62.1921425   8.2822952
  15.0328770  62.4608345   9.3270769   9.6773701  26.7147350  86.7995071
   9.3581266  25.8357029  86.5954971  10.4441013  26.5685024  87.3535538
  46.2378082   5.2892756  84.1625137  45.4745026   4.8473549  83.7906265
  45.9805450   6.2098675  84.2130737  16.7303581  16.7153149  15.7297754
  17.5779991  16.6233463  16.1648350  16.0882587  16.5239525  16.4133835
  85.1403580  49.2664337  35.6096992  85.6565094  49.4934311  34.8362007
  85.1617966  50.0550232  36.1518250  33.0739975  65.1777878  42.8744087
  32.2316704  65.5022888  42.5559425  33.4987259  65.9468002  43.2544937
  77.6479263  62.3416405  27.9729385  76.7759552  62.6419945  28.2292309
  78.2206573  63.0870438  28.1534424  53.5143814  42.8827934  42.5605354
  53.6344643  43.8298607  42.6303406  53.6356583  42.5595398  43.4533043
  70.1592484  32.9961472   8.4725409  70.8935318  32.3913536   8.5787592
  69.8848724  33.1991539   9.3668213  58.8129845  52.7044449   3.2558503
  58.0675926  52.3050423   3.7042918  59.0915871  52.0450363   2.6204035
  64.6305542   0.8515819  80.1822205  64.8612518   1.4416394  79.4646988
  63.9006920   0.3343066  79.8416901  69.1443100  49.7340431  46.6383972
  69.1888351  50.3399239  45.8986931  68.2704849  49.8679848  47.0054398
  45.5987816   4.1012359  26.4265919  45.4594955   4.1558213  25.4811535
  46.4384308   3.6511114  26.5193939  62.2359924  32.5118561   3.6377814
  61.4984207  32.7566452   4.1966157  62.9482307  33.0880585   3.9151742
   2.3901548  35.1067734  57.0735359   3.1693993  34.5846672  56.8827095
   2.6099653  35.9862595  56.7662506  77.1308746  25.1343803  87.2091293
  76.9582443  24.3116856  86.7512970  76.7852402  24.9949360  88.0907898
  75.2914047  13.1098242  83.4575577  75.9685440  13.4964018  82.9023438
  74.9903641  12.3433104  82.9696426   8.9704304  71.6025543   4.1961064
   9.6040840  71.8114624   3.5097585   9.2177792  70.7264328   4.4918284
  76.7880630   2.9714592  25.3720722  76.7407074   2.2226913  25.9664936
  77.4032669   3.5723879  25.7923584  66.2277679  66.8192825  36.9302788
  67.0553131  67.2132797  36.6542816  65.9521179  66.2914124  36.1808815
  56.6239166  20.5444355  28.7171402  56.2100334  20.5431480  29.5802345
  57.0614548  19.6950035  28.6600609  76.4681931   0.7619414  32.3289413
  76.5554810  -0.1912404  32.3213348  75.7981033   0.9358289  32.9899788
  67.7791214  49.0604591  74.9619751  68.2987213  48.4856491  74.3999786
  67.8968658  49.9329758  74.5863724  51.2447891  54.5231972  18.1167412
  51.4828072  55.0324211  18.8915138  51.0759468  53.6424980  18.4515476
  26.8186836  51.5773697  54.5135956  27.2927952  52.0776901  55.1777725
  27.2976780  50.7511711  54.4488640  22.8443432  56.5152092  33.5670891
  23.2472000  55.6508064  33.6492310  21.9362812  56.3341713  33.3244400
  75.8462219  49.1390991  72.0008774  76.5846405  48.6602745  72.3773117
  75.0744019  48.6451950  72.2776031  39.3680992  39.9608994  45.6170692
  38.9342079  39.7311287  44.7953758  38.8211021  39.5651207  46.2955856
  74.9109573  20.8456783  11.1231165  74.6495514  21.5899658  10.5809555
  75.4059143  21.2361488  11.8433790  61.0365257  28.3033733  25.8026371
  61.8185005  28.3851471  25.2566910  61.1696548  28.9364986  26.5080872
  50.2096481  16.0103245  63.3199501  50.2428818  16.1566010  62.3745766
  50.2764320  15.0604877  63.4178391  16.0657063  48.2653694  69.9029846
  16.8403320  47.7274780  69.7391052  15.6274395  47.8365021  70.6379852
  78.5524521   2.1541979   5.3071790  78.1431580   2.1047633   4.4433117
  77.9850082   1.6290218   5.8714724  17.0274734  37.7746353  43.3462029
  16.6948776  37.2238655  44.0549088  17.0504971  37.1961403  42.5839386
  12.3697004  67.8726654  70.3502731  12.4620581  68.8253250  70.3622742
  13.1067286  67.5539932  70.8713074  41.8993988   0.2386264  32.1809120
  42.1163521  -0.0514525  33.0669250  42.6198044   0.8193232  31.9358768
  49.8645477  28.5259552   2.5190728  50.1082993  29.4476662   2.4338498
  50.6992569  28.0633011   2.5928741  44.3280334  25.6601486  88.5468445
  45.2028084  25.2717781  88.5597229  44.1082306  25.7245502  87.6174469
  23.0233936  68.9030838   1.9843620  22.3894348  68.2685165   2.3185050
  23.6557999  69.0069504   2.6953502  76.8593369  48.7681541  83.9472580
  76.0039825  48.4223251  84.2022018  76.8668060  49.6630325  84.2869263
  33.6590347  40.0755844  55.9268684  34.3643951  39.4614754  55.7229843
  33.9279747  40.8954124  55.5124016  76.9106445  45.3030548  21.9054813
  76.1532593  45.4083862  22.4812393  77.0220642  46.1614342  21.4968262
  29.3504772  20.0748978  10.0953979  30.0723095  20.5507679   9.6846209
  29.2397556  19.2935047   9.5537357  11.8768244  61.4546127  77.1913986
  12.5098782  61.6389656  77.8852921  12.3797989  60.9830589  76.5274124
  52.6016083  62.3757935  79.4875870  53.3517113  61.7845917  79.4238815
  52.7389755  62.8494644  80.3079529  31.2605667   5.9696317  74.5488205
  31.8026867   5.1919508  74.4163437  30.4915409   5.8221273  73.9982986
  77.4880905   3.2624836  55.0910683  77.4480972   4.1966162  55.2960777
  76.5891113   3.0294466  54.8592262  62.3038750  58.8308830   8.8183832
  62.7891998  59.3852043   8.2073002  62.5250549  59.1768379   9.6830368
  10.2617588  38.1868935  88.7931442  10.9607887  37.8835564  88.2138596
   9.7407312  37.4037094  88.9702911  11.7881441  44.2816200   6.0834861
  10.8701763  44.3156357   6.3525763  11.7588091  44.0120087   5.1655102
  60.0039215  28.6457920   2.1836746  59.3315048  28.6947155   1.5041927
  60.7863579  29.0140400   1.7732927  67.4418640  14.9096689  55.3297272
  67.4808426  13.9618473  55.4575768  68.2419815  15.2396069  55.7385979
  21.2191296  57.0486069   7.1038933  20.9471207  57.9144783   6.7997308
  22.1733608  57.1021919   7.1568193   5.7300968  12.7332392  26.4972916
   4.8788276  13.0710793  26.2190170   5.8430123  11.9259090  25.9955940
  78.9571152  13.0166597  46.5323448  79.7335968  12.8585052  45.9954147
  78.3909073  13.5570498  45.9813309  24.9682598  66.9187317  31.1025276
  25.1987610  67.2759705  31.9601307  25.2132149  67.6061020  30.4830418
  22.0910530  65.8537064  78.5134964  21.4592457  65.8713837  77.7946472
  21.6049137  66.1865616  79.2678833  44.3992462  67.8881683  89.2320099
  44.8095131  67.3873825  88.5269470  44.7632599  68.7690048  89.1433563
  12.1929750  28.7317753  77.0184097  12.0768032  29.2440605  77.8186035
  12.1594572  29.3781605  76.3132248  38.2144279  46.5013847   6.5158339
  38.7305527  45.7382622   6.7756214  38.6964302  47.2485085   6.8703928
  74.1521606  35.0423164  55.7308922  74.4648666  34.2927742  56.2374763
  74.0570450  34.7061920  54.8397102  59.3206177  42.7259445  48.5840187
  58.7931557  41.9476814  48.4042244  59.5749969  43.0479050  47.7192268
  50.9570045  41.6622238  16.2317429  51.9048958  41.7895470  16.2707367
  50.7966042  40.8897514  16.7737656   3.6145067  24.3592815  54.1285667
   3.3348095  23.8656292  53.3576546   4.5695262  24.3787460  54.0670013
  85.4534073  37.9197998  61.3429985  85.0470200  37.2705002  61.9170189
  84.7176361  38.4146729  60.9824753  74.9600601  25.9682522   4.0424995
  74.5134888  26.5911083   4.6159596  75.5245132  25.4647655   4.6291242
  35.7575989   3.5728171  65.9833755  35.0029945   4.1453977  66.1210480
  35.4092293   2.6876614  66.0900040  38.7669487  66.3190308  63.0744476
  39.1184273  65.7688980  63.7744827  39.1854591  65.9905853  62.2787056
  48.5892601  18.6765308  11.4575481  48.8473206  19.2270203  12.1968699
  49.1054382  19.0060883  10.7218962   2.9953732  57.8698883  58.2296829
   3.0800567  57.8571129  59.1830444   2.2196193  58.4059982  58.0652962
  74.1137543  45.0665207  81.8977890  74.3365021  44.8756599  80.9866409
  73.1748123  45.2518349  81.8810425  66.8443527  43.0881271  80.1184769
  66.7639542  42.9661522  81.0644608  67.0969696  42.2266083  79.7865067
  80.8085022  69.3869324   2.2839735  80.5409012  69.2904663   3.1979299
  80.1064987  68.9708481   1.7836719  36.7162552   0.9364845  30.5384998
  36.0484123   0.2625636  30.6651745  36.2888489   1.7503666  30.8052387
  27.4102631   5.3413196   5.2984667  26.4708595   5.1658473   5.2440624
  27.4680862   6.2739806   5.5059075  23.6524067  12.3497458   2.4624693
  23.6132050  11.6592417   1.8007290  24.4572353  12.1702499   2.9485404
  42.4110718   6.8793225  24.2268066  42.0910263   6.0324984  24.5377579
  41.6177521   7.3834972  24.0460300  14.2948580  60.3552399  10.6989260
  13.8163385  59.5310516  10.6097088  15.1942863  60.1377068  10.4541016
   5.8867822   3.2264316  71.4764023   6.6796889   2.6907370  71.4526978
   5.1939125   2.6425030  71.1678696  48.5918083  45.2787056  55.0534821
  49.1272316  44.8403778  55.7148628  48.7930222  44.8182526  54.2387886
  37.7980003  35.8626289   4.7251530  38.0474739  35.7547569   3.8073525
  36.8408661  35.8574638   4.7153873  35.7830925  65.7789001  45.8666153
  35.7929192  64.8323059  45.7248306  35.5253334  66.1451340  45.0206451
  47.7424545   3.6475844  78.1035080  48.1954842   2.8484757  78.3726196
  48.3776360   4.3467250  78.2583618  73.6044006  50.8198318  62.6013947
  73.2158279  51.6869011  62.7172890  73.0647736  50.4034195  61.9293594
  23.1771984  39.6739693  50.6590996  24.0297890  40.0923195  50.7786942
  22.8843422  39.9692535  49.7969666  30.9332981  55.0497055  66.8367996
  31.8850555  55.1112747  66.7555618  30.7085762  54.2268333  66.4025040
  50.2266960  46.3335686  69.7682800  49.4535141  46.6230507  69.2839050
  50.2266579  46.8690567  70.5616760  20.1542454   4.9341326  16.6746635
  20.8624859   5.0615492  17.3058472  19.9303150   4.0065460  16.7499599
  32.8951454  29.4002018   2.8547361  32.0863609  29.6852036   2.4294417
  33.5073929  30.1222858   2.7133811  68.1736450  52.6418457  61.5353470
  68.5596466  53.1937370  60.8551636  67.9959641  53.2426224  62.2590370
  58.0452423  27.3317757  71.1683426  58.9695549  27.2934933  70.9225540
  57.8470955  26.4533043  71.4927750  70.9065475  12.2149658  61.9127655
  70.0321198  11.9020252  62.1444588  70.9781799  12.0512009  60.9724045
  43.8787842  59.7916908  11.0058002  44.1480141  60.6247520  11.3927794
  43.1533394  59.4955482  11.5555830  79.8905182  55.7454491  84.9831238
  80.8349991  55.6197166  85.0746918  79.7527847  56.6732407  85.1740799
  53.4828262  65.6212540  39.7138786  53.9443665  65.5266190  38.8806572
  52.5767326  65.3863144  39.5138092  19.5769081  66.3925095  72.1776657
  19.5655994  67.1306381  71.5683517  18.6540146  66.2262573  72.3696518
  21.5895882   8.9041033  54.4363365  22.0932903   8.5972261  53.6824493
  21.7741489   8.2644777  55.1241226  60.1689034  48.1402245  35.4392395
  59.3093605  48.5534134  35.3574371  60.2298927  47.8950272  36.3624878
   9.1027241  60.5707512  75.7422104   9.1814461  59.9783058  74.9945145
   9.9408941  60.4938164  76.1980438  47.4863205  27.4300289  61.5909348
  48.3592300  27.3669109  61.2032814  47.5860596  28.0604420  62.3042793
  57.2995453   5.1695004  13.7742300  57.4643364   6.0778522  14.0271606
  58.0765648   4.9146852  13.2766905  78.1867218  67.4243851  40.6451912
  77.4379044  66.9086685  40.9444160  78.7598648  67.4803467  41.4097900
  50.6901169  71.5792313   0.5868451  50.3630981  71.1709824   1.3884822
  49.9173088  71.6631012   0.0283053  47.1944427  14.0596714  72.4330444
  47.2887077  14.8805676  72.9162369  46.5242958  14.2446356  71.7750778
  51.5364037  66.8584213  56.5723038  52.1699562  66.4471054  57.1602364
  50.9390755  66.1505280  56.3308029  45.3843079   8.0594482  72.9861298
  44.4890556   7.7514067  72.8451767  45.9190102   7.2663503  72.9497681
  17.3651848  34.8691788  82.9004822  17.0723972  34.2078323  83.5274811
  17.4953709  35.6576767  83.4273148  52.1171303  54.5002136   1.7604500
  51.7313499  53.6299324   1.6603827  53.0369301  54.3323479   1.9654384
  56.0162773  42.7569771  65.8914948  56.7502136  43.1275482  66.3816452
  55.3381081  43.4314308  65.9293213  75.0412292  37.0847168  52.2110291
  75.4678116  37.4208488  52.9992409  75.3561401  37.6524315  51.5076370
  63.1641808  53.6918526  35.3870926  63.9467430  53.2512741  35.0558510
  63.0955658  53.4055672  36.2978973  76.6817780  15.7765369   6.7003951
  75.8662643  16.2038460   6.4385109  76.7490158  15.9444180   7.6403561
  54.8313141  46.0755424  52.4266891  55.2995682  45.8551521  53.2319183
  54.8466568  47.0320930  52.3948593  36.0583191  34.8734283  85.4789124
  35.8026085  35.3633499  84.6973648  37.0150261  34.8604202  85.4510803
  55.2902908  43.4662666  82.4384537  54.3701439  43.7133293  82.3461380
  55.2683907  42.5291290  82.6321716  46.7760391  33.0498810  84.6183701
  46.3412323  33.7519379  85.1023941  46.6458511  33.2774010  83.6977615
  18.3189774  47.2723083  38.2517967  17.7277660  47.6618958  38.8959389
  17.7406902  46.8123512  37.6433067   0.1975956  42.0089264  20.0248699
   0.7131897  41.2172852  20.1787987  -0.4223899  41.7613525  19.3388977
  48.3274269  56.6593590  72.2786102  47.5167084  57.1097908  72.5154266
  49.0150108  57.1528702  72.7257156  10.8578901  59.7227898   5.8941598
  11.3420410  60.3429375   6.4393644  11.5357904  59.1959763   5.4708986
  28.2798252  22.3476410  11.5486975  28.8930397  21.8421764  11.0151196
  28.4388351  22.0489235  12.4440832  50.9248924  55.9663620  62.3252220
  50.8365822  55.3176003  63.0234642  51.6718597  55.6628304  61.8093338
  56.7183723   8.6275415  42.6281395  55.9428596   8.5035563  43.1753540
  56.9784698   7.7412577  42.3769798   6.4251647  32.7760773  67.8119049
   6.8017282  32.3552933  67.0390015   5.6186061  33.1821899  67.4944611
  64.7038040  35.3652573  10.0897474  65.2882996  36.0809441   9.8399687
  64.8078537  35.2910156  11.0383739  51.1121826   1.2693306  81.4178009
  51.4624062   2.1067886  81.1140900  50.8035011   0.8360767  80.6220398
   2.5173247  38.4550247  23.8894081   3.1894491  38.0702782  23.3268661
   2.9594781  39.1818237  24.3281498   1.8205109  27.4813213   6.8729367
   2.5094993  27.0497780   7.3782058   1.5497693  28.2194996   7.4188509
   3.6048412  44.0147514  83.8945923   3.1660826  43.9440231  83.0468216
   3.0697412  43.4855881  84.4861069  72.6183014  56.5192871  58.7539558
  72.2970352  57.2763748  58.2642212  72.6504059  56.8179855  59.6627922
  50.5208855  18.7155056  45.9901810  50.7776871  19.5252495  46.4313164
  50.4577484  18.9559727  45.0658340   3.4392812  16.4325504  71.3663788
   2.6690421  16.6124916  71.9054413   4.0121951  17.1861458  71.5081406
  21.9024506  42.2805901  57.4301605  20.9849548  42.4779205  57.6185608
  22.2256508  43.0573654  56.9736557  61.4713745   2.3648319  56.8801422
  61.0943756   3.1739848  57.2256508  62.1208534   2.1050940  57.5335579
  52.4116287  62.1778297  51.0066223  51.6642342  61.5934258  50.8797226
  52.5421257  62.1973763  51.9546814  39.3030167  53.4930763  62.0746498
  39.7617073  53.5346413  61.2355385  39.8360138  54.0250130  62.6655731
  59.1432343  -0.1387618  72.1940613  59.4904404   0.6751795  72.5590057
  59.4580803  -0.1494731  71.2901917  81.2848892  39.2271042  52.9478416
  82.0058289  39.7042618  52.5370064  81.4216461  38.3161087  52.6878014
  47.1649780  70.8352051  67.7298813  46.7339554  71.6893311  67.7602615
  46.5828896  70.2555695  68.2212372  56.1686287   4.7246146  63.7367821
  56.5938263   4.1254654  64.3503418  55.3695145   5.0001192  64.1859436
  66.7959366  23.4742413  63.8858185  67.4790726  23.8691235  63.3439445
  67.2701874  22.9054527  64.4922867  64.1843491   4.8287129  22.9232540
  64.0800171   3.8772287  22.9281845  63.9117050   5.1040964  23.7985020
   2.8178799  33.2203598  43.5390701   3.7302942  32.9810524  43.3763962
   2.3113699  32.4933281  43.1769943  50.0872040   5.2861972  77.8556061
  49.4977989   5.4071622  77.1111603  50.5964661   6.0958676  77.8919296
  62.3571930  24.4540367  18.6740093  61.7298737  24.2671013  19.3724060
  62.0450974  25.2705517  18.2839661  79.4972992  24.2162685  39.8204460
  78.7099152  24.6036129  39.4380493  80.0902481  24.9566193  39.9489937
  53.1534386  53.7557068  50.8161354  52.6300659  54.0134926  50.0572815
  52.5175095  53.6638374  51.5256310  85.7642441  26.9636726  23.6146355
  86.4762344  26.4657612  24.0163631  86.1207581  27.8451633  23.5046310
  27.5281410  22.6204643  65.5517578  26.6804066  22.2275867  65.3438492
  27.8759441  22.9014263  64.7053986  12.8331614  41.9500427  28.9871674
  12.7688274  41.2201614  29.6030960  12.2312241  42.6090546  29.3330116
  15.8047781  59.4173088  13.5610619  16.4815426  59.4345360  12.8843603
  16.2905598  59.3700294  14.3844767   4.0423675  13.8014565  12.1383543
   3.7426641  14.1867590  11.3149757   3.3456922  13.1935053  12.3858843
   5.1789684  52.0593147  14.8696661   4.4200053  52.6343231  14.7718258
   5.2620940  51.6258049  14.0203180   2.5148847  18.2338142  45.7330627
   2.2558751  18.9485245  45.1513939   1.6977003  17.9508343  46.1433830
  80.0672455  39.1503601  78.8586044  80.2800140  39.7480621  78.1418610
  80.4114151  38.3035698  78.5744781  52.2829247  62.7385483  59.3156433
  52.7887917  61.9593315  59.0850945  52.3339958  62.7834282  60.2704239
  69.8245087   0.8968986  72.5059586  69.3939743   0.6909555  71.6762238
  69.7394943   1.8465455  72.5906677  44.7983742  59.0203590  26.3047295
  44.1768456  59.4904747  25.7489223  44.3801498  58.1754150  26.4702129
  73.4191666  27.5335274  -0.0305333  72.6545258  27.5900936  -0.6035579
  73.0671082  27.6546650   0.8512918  85.4776688  63.7639961   2.4460323
  85.9065704  64.3330460   1.8069164  85.1595993  63.0224648   1.9310647
  24.7286205  60.2894516  43.3139153  25.2944946  61.0475693  43.1680374
  23.8482723  60.6581421  43.3866119  26.0630302  49.2473564  43.5797882
  25.9157524  50.1924362  43.6167259  26.7193317  49.1339188  42.8923073
  65.3979034  47.5626221  65.5824356  65.3121643  47.4761696  66.5318604
  64.5274734  47.8292580  65.2866364  26.0589828  52.3912201  40.1271057
  25.4477196  51.9638367  39.5271606  26.5596180  51.6717224  40.5117111
  76.4856110  31.3359470  66.2900543  76.1943817  31.5602608  67.1738510
  76.6502609  30.3936291  66.3240738  27.2790813  15.5257025  24.9697742
  27.2582340  15.3520956  25.9108677  27.6058559  16.4225979  24.8988552
  39.7550011  22.3062325  72.7237701  40.6781235  22.3871765  72.4839249
  39.4819298  21.4700089  72.3464127  18.5181026  13.2121267  69.3847504
  18.0158119  13.4390879  70.1673203  18.5002308  12.2554741  69.3577652
  20.3598099  52.6542549  26.2088261  20.0913315  51.9849281  25.5794163
  20.4514923  52.1818886  27.0362892   5.9083471  58.7081070   9.8644056
   6.3453188  59.3606148   9.3171186   5.7757688  59.1492882  10.7034597
  84.2367172  16.3491306  32.0446739  84.0158539  17.2703075  31.9072628
  84.9306030  16.1718864  31.4095860  70.1880951  47.4129295  12.4009113
  70.6720963  48.2157669  12.2074432  70.8542099  46.8014717  12.7149734
  16.4333363  20.9576950  88.8828506  17.1521778  21.4844189  88.5334778
  16.4798126  21.0873127  89.8300934  30.3804913   5.8192797   8.1538153
  31.3214645   5.6673608   8.2416935  30.1005516   5.2029648   7.4770422
  86.2474136  68.6744232  53.9348183  87.0773697  68.7586060  54.4041939
  85.9805984  67.7668533  54.0809326  49.9274139   6.0404472  75.2724533
  50.5555534   6.6623192  74.9051056  49.3763657   5.7902980  74.5308380
  32.2286720  17.9823914  62.9563751  32.8855858  17.2891598  62.8921280
  32.1318588  18.1342354  63.8964844  59.7407990  52.2464180  88.8987427
  59.8060760  52.8158150  88.1320877  60.4384460  52.5475578  89.4808350
  64.9384308  11.9627838  54.3596191  65.7879562  11.7751837  53.9604454
  64.4525528  11.1413660  54.2859497  37.3021431  50.8623924  56.3775139
  37.7492943  51.3794594  57.0475349  36.5214005  51.3727455  56.1625404
  49.3671837  39.9571877  56.3598175  49.7457695  39.3359299  56.9818649
  48.4384232  39.7278595  56.3274727   8.0609055  51.5556870  85.8747482
   7.1746988  51.8340912  85.6437531   8.2816420  50.8923569  85.2209091
   8.8632431  32.1153336   2.1027477   8.4917717  31.5775185   1.4034667
   8.7910938  31.5715351   2.8871634  33.8626595  67.3427963  47.3534241
  34.3957062  67.8664780  47.9516373  34.4909973  66.7748947  46.9074326
  43.8020668  42.0445366  84.7034836  44.3221207  42.4473610  84.0081329
  43.7377129  42.7214394  85.3771973  72.9391861  55.1243286   0.4360279
  73.7639008  55.2201996   0.9123514  72.3847427  54.6057816   1.0190648
   5.8699546  32.4925270   3.5226874   5.4290619  31.7679596   3.0790086
   5.1581631  33.0212059   3.8833582  14.3976898   4.5857930  21.1317444
  13.8634558   4.9550915  20.4285755  14.5201292   5.3102627  21.7452450
  76.1467361  60.8227882  18.8414135  75.5817947  61.5952415  18.8218060
  76.3693085  60.6654816  17.9238358  35.8980141  61.9796715  25.0002480
  35.2842293  61.8634453  25.7255001  35.3454895  62.2108269  24.2535782
  76.4492950  32.9949913  47.9081039  76.7813416  33.7497749  48.3941917
  75.6043243  32.8015060  48.3140945  20.6781235  58.7157059  19.1546783
  21.2374821  58.0108910  19.4811478  20.1151333  58.9376984  19.8962936
   5.3502321  52.6193619  61.9814758   5.7252269  52.3767891  62.8280983
   6.1083202  52.7425537  61.4101982  22.1009541  38.9707794  64.7324295
  22.4018364  39.6524010  65.3333435  22.8813705  38.4453011  64.5562057
  16.9149914  38.1208038  15.6288300  16.1046028  37.8612518  16.0671616
  16.7438812  39.0088654  15.3153048  65.0005264  18.2084026  23.3577232
  64.8303680  17.6455917  24.1130524  64.3015900  18.8618889  23.3836727
  59.6653328  66.3516998  76.9517059  59.0498352  65.6755371  76.6685104
  59.1329384  66.9613953  77.4626465  41.5665970  39.4743195  79.0213623
  42.1800499  39.0767021  78.4034576  41.7828140  40.4066696  79.0070953
   5.3291898  23.8301983  87.6349564   4.7649779  24.5839634  87.8073883
   5.0614667  23.5238514  86.7685242  78.7005920   4.1213627   1.8449893
  78.1189423   4.5923505   1.2482626  78.1103134   3.6715231   2.4495065
  36.5046768  56.9527092  48.6006775  36.2510033  57.8649902  48.7407608
  35.8596916  56.4462471  49.0943604  23.5509510  34.9764061  69.2792511
  24.1082706  35.5950546  69.7513657  23.7518768  35.1294136  68.3559647
  18.1276169  65.8986588  30.2078934  18.5116806  65.2830429  29.5835972
  17.4393978  66.3434296  29.7131519  49.1907654  68.2159424  39.3382912
  48.9712563  68.9937897  39.8511200  48.3786163  67.9914169  38.8841591
  12.7360697  62.7684860  27.3595352  12.1583862  62.7369614  28.1221085
  12.1416883  62.7932816  26.6096497  36.3173790  35.9291420  12.7835035
  36.2495499  36.1688194  11.8592825  35.6348000  35.2702637  12.9107885
  80.8651505  10.0689526  67.5403671  79.9934006  10.4318638  67.6971207
  80.8174515   9.7043657  66.6566010  45.3532639   8.4189558   3.3500500
  45.9342003   8.5922480   4.0908008  45.0535812   9.2847958   3.0730243
   5.8285427  22.5488224  31.1109581   6.6238165  23.0272388  30.8766708
   5.7618785  21.8577423  30.4520226  24.5746861  47.8006134  52.3844490
  24.0815372  48.6073380  52.5335579  25.0696430  47.6695099  53.1931877
  59.2124825   1.8262610  76.1015015  58.7136192   1.6570783  75.3022919
  58.7811813   2.5836186  76.4972534  56.6453323  20.6977386   7.7020712
  55.8394623  20.9831791   8.1325731  57.0031471  21.4947243   7.3108988
   2.8853521  11.5999994  65.4905853   3.2023470  11.7755499  66.3765488
   3.6145260  11.8472929  64.9219208  58.7148933  24.9704437  47.6645889
  59.2487755  25.4780140  47.0533829  59.1720848  24.1332226  47.7437706
  39.3538246  50.2964172  30.2722759  40.0302124  50.6715927  29.7083855
  39.4003563  49.3545647  30.1080132  64.1775284  50.3633881  77.9853287
  63.8317261  51.2486801  78.0989380  63.6771088  50.0028954  77.2533035
  53.3154106   3.2818604  85.9880447  54.1366425   3.1417015  86.4593887
  52.6979904   3.5662310  86.6619644  79.7948608  68.4905090  84.3869171
  79.5949326  68.1983871  83.4975815  79.1258698  69.1475296  84.5792923
   8.8867350  48.6325798   3.5444314   8.4114637  47.8135223   3.6840513
   8.4675331  49.2567215   4.1368408   6.8702445  38.7645569  25.6426983
   6.1460423  39.3519478  25.4265156   6.9776616  38.8551598  26.5895271
  23.5278931  20.5024033   4.7018924  22.6354351  20.2698822   4.4456029
  24.0350494  19.7040558   4.5547018  62.0434227   5.0347428  20.8811684
  62.6568298   5.0362010  20.1463470  62.5523758   4.6952662  21.6173458
  74.7459106  37.0723114   5.9271073  74.6473465  36.2728500   5.4100242
  74.4912186  36.8169975   6.8137736  12.2611389  51.8611336  20.3013382
  12.0316648  52.1974335  19.4350376  11.9385977  50.9599152  20.3015614
   6.7250423  27.1275387   8.1911716   6.7953229  27.5722637   7.3464746
   6.6815667  26.1974297   7.9692726  51.7086525  58.1218605  43.3134003
  51.4372520  57.5066299  42.6321716  50.9809990  58.1269073  43.9352760
  32.8347893  48.4213104   3.8986621  32.8525658  49.2967606   3.5120037
  33.2521248  48.5284691   4.7534018  75.4751663   4.6037669  35.7420807
  74.8536911   5.2246628  36.1222000  75.7134628   4.9892178  34.8989487
  54.4644814  52.9812813   8.2764959  54.0670662  52.1107979   8.2529573
  55.3460693  52.8329201   8.6185799  27.6648235  40.9761848  12.3912630
  28.1011086  40.2919159  11.8836584  26.8341885  40.5830002  12.6590080
  54.6156921   7.8449144  87.7914429  54.1515884   7.0134764  87.8891602
  55.1211662   7.7437148  86.9849167   1.1820904  38.4080582  59.7418594
   0.5714158  38.1375542  60.4275246   1.9126657  37.7940521  59.8159332
   8.6945753  11.4010534   5.3303261   9.6179857  11.5373631   5.1182785
   8.4838438  10.5498190   4.9466281  78.9756317  24.8621655  76.4904327
  79.5595932  25.4979229  76.9039917  78.1491776  24.9520283  76.9649200
  13.2228899  23.6815777  70.9076996  13.4031019  23.8780575  69.9883804
  12.3373756  24.0140400  71.0545502  73.6477432  52.2974815   5.2437377
  73.9160004  51.7285767   5.9652743  74.4490051  52.4387894   4.7395129
  56.9063644  39.1842308  16.5301552  56.8377914  39.2184105  17.4842854
  57.6837845  39.7044449  16.3271103  81.2520447  37.9510078  62.3433037
  80.8227539  37.5298462  63.0879936  80.5389633  38.1484642  61.7360458
  52.1467133   6.6474996  86.4049225  51.7074356   6.8306375  87.2354202
  51.6973610   7.2036781  85.7685471  77.2198181  34.7202072  31.4475117
  77.2118607  34.5823326  30.5003262  78.1189117  34.9836235  31.6436615
   8.2887011  53.6604538   3.8116412   7.5109186  53.8066292   4.3500829
   8.5079756  54.5263252   3.4675314  33.7071495  52.5959358  19.3281097
  33.5490570  52.9222107  20.2139912  33.3159943  53.2564011  18.7562580
  65.0752335   2.7902651   7.4604011  64.2182083   2.6074340   7.8455071
  65.5805817   1.9912877   7.6103778  55.1051750  61.1030579  78.0299835
  54.6979637  60.5346146  77.3763199  56.0338364  60.8726921  78.0025177
   5.4359818  50.9583473  42.6222229   4.6271186  50.8176003  42.1301231
   5.5362988  50.1660118  43.1498299  69.3996201  47.5003471  25.2570801
  69.3994446  47.4265404  24.3027306  68.8181534  48.2382736  25.4403496
  57.2540321  35.4682198  34.8081818  56.9523163  36.1088181  35.4522552
  57.0239754  34.6202087  35.1878929  58.8379745  28.5499058  54.3643188
  57.9365807  28.8626842  54.4410629  59.0435600  28.6377678  53.4335976
  21.9187183  17.2780266   5.2600055  21.2706661  17.9411907   5.0223651
  22.4545269  17.6972160   5.9333706   3.1172974  25.0749989  34.6536789
   3.8663113  24.5939713  35.0055656   3.2045257  24.9927235  33.7040215
  55.1850433  49.4410095  47.3137093  55.6434631  49.3124695  46.4833145
  55.5571060  48.7799759  47.8975182  41.4613647  55.1175385  10.4395084
  41.3791428  54.2005348  10.1776276  41.5161400  55.0898399  11.3947382
   4.5205536  15.7727804  30.9956665   4.0184865  15.9659929  31.7873936
   3.8780029  15.4065971  30.3879910   7.5129623  54.6281204  75.0525436
   6.9088798  54.0892067  75.5633163   8.3709841  54.2294769  75.1978531
  84.2510910  51.3666763   7.8979335  84.2093582  50.5693665   8.4259357
  84.4106369  52.0657692   8.5320053  51.5251236  28.7642326  82.7392731
  52.2226791  29.3567924  83.0194855  51.9851952  28.0079441  82.3751373
  72.7633820  34.2480125  11.4712381  73.4903183  34.3183365  12.0899820
  73.1843414  34.1635704  10.6157322  53.4480515  32.1321869  19.7372093
  53.3196564  32.1398430  18.7886906  52.8904419  32.8400269  20.0601101
  42.9895592  55.0354118  69.8019791  43.7987022  55.0823097  70.3112106
  43.0458641  55.7728996  69.1943817  29.1530457   3.2402718  22.7136917
  30.0711975   3.3186123  22.9727077  28.8216305   2.5029976  23.2263546
  71.5210953  34.4057732  14.0951500  72.1746902  33.7171936  13.9730320
  71.6440048  34.6950340  14.9992819  81.0523529  29.2364063  51.7802048
  80.7801743  30.0136967  52.2680283  80.4654617  29.2102242  51.0244942
  67.4163513  50.8724022  81.2410812  67.0989761  50.8446426  80.3384552
  66.6617661  50.6102753  81.7684555   8.5541973  19.7738094  66.1550369
   8.7007866  20.5209312  65.5749054   9.4284077  19.4164753  66.3109283
  41.7091484  61.5828476  70.3778992  40.9651260  61.5449028  69.7768860
  41.8301048  60.6783142  70.6667252  56.3473206  33.3414612  87.8003998
  56.3364792  34.2881889  87.9412003  55.4313431  33.1121597  87.6434174
  54.3916931  45.0223160  62.7484436  54.2546158  44.8356171  63.6771965
  55.2642403  44.6763496  62.5608292  62.9388771  28.4661922  13.4111414
  62.9641876  28.3228168  12.4650784  62.8256569  29.4118118  13.5071344
  53.8100662  52.2714577  30.6897182  53.8125191  53.2211533  30.8092976
  53.7789345  52.1496124  29.7408142  68.3400955  62.2232628  57.6499672
  68.9291534  62.1696167  58.4025383  68.5059586  61.4189873  57.1581726
  77.4052887  14.0075293   8.9556503  77.7665558  14.8681765   9.1677952
  76.6289978  13.9302855   9.5102987   3.3371677  18.2839565  75.2848206
   3.4181614  17.4427299  74.8353653   3.9446042  18.2211533  76.0219193
   8.3755360  41.0074577  51.4867630   9.3286114  41.0518150  51.4098701
   8.0546675  41.6669044  50.8716202  16.8030548  67.7913437  68.5602036
  17.3339005  68.5436020  68.8220291  17.2480831  67.0376663  68.9477005
   5.4258995   0.0835174  33.5669479   5.0883322   0.5079574  34.3557014
   6.0049253   0.7360113  33.1729774  29.1915073  16.4548607  81.4191513
  29.8778763  17.1220150  81.4252243  29.3466129  15.9444103  82.2138901
  53.2280045  43.2576599  47.7953720  53.3445549  43.6093178  48.6779747
  52.3617973  42.8506775  47.8121605  57.2365112  12.9165678  17.4462299
  56.3581848  12.7482710  17.1049805  57.8240891  12.6300058  16.7470398
  54.4065018  36.0457344  71.8013687  53.6104088  36.4939842  72.0869293
  54.7234421  36.5670433  71.0637970  30.7975330  18.1333542  73.3096695
  31.1609459  17.5357304  73.9631271  31.1134396  17.7935905  72.4724121
  40.5646362  69.4259949  12.5363083  40.7846451  69.2206421  13.4449663
  39.8215370  70.0260239  12.5995283  66.4245987  59.8408012  54.9031944
  65.8587952  60.6028481  55.0272179  67.0044250  59.8465157  55.6647758
   8.6561222  34.2030106  54.4431152   8.7412271  34.9326134  55.0568504
   7.7833037  33.8483124  54.6122627  24.4660072   1.8152802  23.1671886
  25.1725197   2.3462029  23.5348759  23.7201443   1.9756420  23.7452908
  76.6817932  37.4279785  54.6031532  77.1811142  36.6834755  54.2675552
  76.8845139  37.4503059  55.5383759  75.8460999  12.2507401  34.0595703
  76.0979156  11.4735222  33.5608177  75.6709290  11.9229136  34.9416580
  14.3103790  12.9021530  23.3186665  13.5255203  13.2803020  22.9221401
  15.0367661  13.3022976  22.8406715  34.3359528   1.9486939  58.6206017
  34.5159111   1.0088081  58.6420860  34.3803062   2.2220547  59.5368652
   2.1179194  27.9723969  73.7866516   3.0565650  28.1354122  73.8794022
   1.8374555  27.6863251  74.6559830  46.6750488  32.8716621   5.0774093
  47.1678467  32.1157608   4.7580504  46.8588867  32.8980904   6.0164175
  12.6781330   5.6748848  19.0741634  12.0423870   4.9626088  19.0054512
  12.2823896   6.2904587  19.6911621  58.3549919  22.1780777  87.0180740
  58.0829353  22.8239594  87.6700287  57.6578102  22.1913681  86.3623276
  84.6071396  25.4554615  50.7023239  84.4894867  26.3950195  50.8423920
  84.4458542  25.0633202  51.5604858  31.9886360  63.1781197  47.4360809
  32.0898285  63.3379745  46.4977646  31.8023148  64.0405350  47.8072433
  14.3904037   4.6554732  55.5494461  14.9317131   5.2556176  55.0365677
  14.4414082   4.9920077  56.4440842  27.9241104  20.9296017   3.6657031
  28.4514942  20.9948101   4.4618468  27.1475773  20.4375820   3.9324324
  19.4633579  57.6061058   3.8359165  19.7901001  57.4678497   2.9468966
  19.2737350  56.7259903   4.1609793  77.2257767  36.0002823  34.3736382
  77.6208649  36.2519722  33.5388985  77.9310532  36.1019669  35.0127602
  55.8013458  33.9461250  76.5270386  56.5221367  34.4062538  76.9571228
  55.2012253  34.6409760  76.2563553  26.6717911  47.5638008   6.3316455
  27.0355339  46.9539299   5.6897898  26.7930470  48.4273834   5.9369931
   2.7201772   5.6981115  65.7653656   2.7281225   4.9460044  66.3573990
   3.5962775   5.7087836  65.3799210  74.7961121   4.2717714  88.7864380
  74.1161652   4.6590052  88.2351151  74.3720474   3.5173357  89.1953735
  30.0095749  70.5034103  23.8841667  29.7600708  70.3926544  22.9667187
  30.6684685  69.8260345  24.0366459   9.0670938  60.1862144  33.7508354
   9.5732841  59.9770355  32.9658241   8.5466633  59.4001770  33.9167557
  16.2666416  67.4378510  11.5960302  15.6552916  66.7237701  11.7765265
  16.1098862  68.0703430  12.2971821  24.7968178   1.9547665  63.5157051
  25.1942577   2.3710108  64.2805710  23.9522095   2.3939641  63.4158287
  61.5105362   6.4712281  81.5420837  62.1069298   6.3056722  80.8119202
  62.0379639   6.9559889  82.1769485  40.4641190  24.0909100   5.9626336
  39.8106461  23.6200714   6.4798560  40.3370285  25.0105019   6.1959352
  71.2020416  37.9985428  87.4984436  71.4152069  38.4755783  86.6964264
  71.4900360  38.5767937  88.2047806  24.8228569  68.0456390  54.0549736
  24.3631763  67.3350372  54.5021553  25.2052212  68.5657043  54.7617645
  19.1313782  67.3257065   6.1118875  19.9385586  67.8324890   6.2005777
  18.5389004  67.9015732   5.6285863  12.7233944  50.6413422  73.7693710
  12.3499107  50.2710762  72.9695892  12.6344728  51.5880203  73.6592712
  22.6200294   0.2443765  50.3037224  22.2289047   1.0273694  50.6912460
  22.5502014   0.3840905  49.3593521  58.9605370  24.7891216  83.0961304
  58.8487778  24.2308846  83.8656158  59.2639847  25.6255398  83.4490509
  40.4615974  60.7969284  23.3660984  39.5151711  60.6942062  23.4658928
  40.5767288  61.7090225  23.0995178  30.8636646  39.0938377  88.2018890
  31.0042477  38.5277748  88.9608612  31.4362507  38.7332802  87.5248566
  40.0446472  26.8753071   6.3937683  39.2566376  27.3355827   6.1049452
  40.1742706  27.1656647   7.2966089  21.7588177  52.8834610  88.3242874
  21.9344578  51.9640312  88.1241913  21.1390724  52.8557777  89.0532455
  52.9064598   1.0328276  84.3830719  53.6684990   1.1836503  83.8238068
  52.7879677   1.8577011  84.8539963  11.6479263  51.3727264  25.4298687
  11.0230532  51.8104935  26.0079021  11.9513006  52.0620880  24.8391247
  31.9771709   8.5217447  78.7994995  32.2046738   8.5654659  77.8707504
  31.3590298   7.7934632  78.8606491  17.3569775  19.3142395  80.6852570
  17.4360142  19.1531982  79.7450180  16.4424362  19.5684338  80.8086700
  76.5921631  16.4065056  26.5651188  76.4336777  15.4631214  26.5313396
  77.5337601  16.4858742  26.7178345  38.1247025  -0.0620619  78.4751511
  38.3751564   0.0380557  77.5567398  38.6717224   0.5690818  78.9427567
   7.4251380  14.8845692  25.6171055   8.1023102  14.2196035  25.7415638
   6.6091180  14.4420376  25.8505764  80.3923645  32.4706230  32.0519867
  80.5410538  33.3830261  31.8037033  79.4966660  32.2880516  31.7680397
   7.3777351  26.9805164  88.1464081   6.9687958  26.8908558  87.2856216
   8.3048019  27.1253948  87.9572296  71.2900772  33.3324432  88.0847397
  71.3489075  32.6108589  87.4585724  71.5355835  34.1079674  87.5802460
   5.1878734  32.2870064  17.2604256   6.0296288  32.7426910  17.2550926
   5.3275719  31.5193501  16.7059689  33.1087227  14.6791658  71.5326920
  33.4634209  15.5679665  71.5539703  33.7893753  14.1598358  71.1046295
  41.5025787  31.2780704   8.8676653  41.6756668  32.2184448   8.8233118
  40.5561790  31.2027187   8.7456751  73.8368149  59.3381386   2.2559180
  74.1216431  60.1991234   2.5622025  74.3641815  58.7181892   2.7596853
  28.4868317  42.0377693  73.8855057  28.6651020  41.5771141  73.0655975
  27.6290264  42.4410019  73.7520599  55.7298431  49.6936073  44.5509682
  55.0243225  49.3345680  44.0128593  55.5433388  50.6313896  44.5958290
  48.3051567  49.1461372  24.5829163  48.4132042  48.2018013  24.6960182
  49.1270790  49.4355049  24.1867580   1.0931178  56.5055580  64.6581497
   0.4849553  57.1999359  64.9115448   1.8614957  56.9696465  64.3258057
  85.2974319  32.4615326  65.9170837  85.7389984  31.8513355  66.5077667
  85.6463089  32.2512131  65.0508881  53.1220627  24.3936291  24.0688457
  52.7511826  25.0634384  24.6433315  53.1187439  23.5958519  24.5977840
  11.1635876  43.7851753  30.2267818  10.7416000  43.8077736  31.0856476
  11.3419380  44.7033386  30.0233192  18.2550297  21.8294792  28.3980522
  17.5926991  21.2852478  28.8239174  18.9639187  21.2221889  28.1861362
  41.6485481  38.6366158  81.6934052  41.9921608  39.0385780  80.8955383
  41.2963524  37.7946281  81.4048767  46.0896606  56.3962517   8.7068806
  45.6881218  56.0686264   9.5116549  45.5564499  56.0240784   8.0044508
  67.5023193  11.9773016  52.8586731  67.6603928  11.5059690  52.0406952
  68.2973022  11.8374786  53.3731461  20.1770630  10.4005527  62.9421463
  19.3376408  10.7314196  63.2617188  19.9965782   9.4956560  62.6875496
  13.8400679  51.6045189  70.4382172  13.8685408  51.6218033  69.4815903
  14.1672831  52.4641533  70.7031479  26.0593529  43.1182022  14.1550980
  26.5782356  43.2163620  14.9534445  26.4703903  43.7128525  13.5276623
  12.2006807   0.8793976  49.1593819  11.8039989   0.7702310  50.0236473
  11.7745218   1.6559358  48.7966003  34.5437698  39.4887390  78.7938156
  34.7432480  39.1294289  77.9293289  34.2540817  38.7337456  79.3059692
  24.1482887  39.2192841   9.1406574  23.9462185  40.1157646   9.4084654
  25.0652351  39.0967903   9.3865004  74.6872025  31.8543701  74.1158752
  74.9696350  31.1822262  74.7361069  75.4403381  31.9790668  73.5384140
  85.1096573  23.0739937   5.3685055  84.6996002  22.3863239   4.8439159
  85.4930191  22.6106739   6.1132202  63.8521538  13.2261887  20.5581131
  64.1720581  12.6410542  21.2447796  62.9062729  13.2664871  20.6992435
  72.5925064  67.1136475  56.7717590  72.8767929  67.4353104  57.6273003
  73.3150787  66.5626602  56.4708443  12.7252150  64.3684158  85.2039490
  12.6874571  65.0874939  85.8346100  11.8128128  64.1031418  85.0882645
  28.6884155   7.1826444  68.2567215  29.2447853   7.1339340  67.4793472
  28.9119129   6.4001102  68.7606277  65.6750793  40.2046471  17.4020710
  65.9733200  40.6943092  18.1685677  65.1301727  39.5048409  17.7620430
  78.1902161  48.2804604  43.7613373  77.6652222  49.0764503  43.6776237
  78.9745026  48.5594177  44.2338943  52.4269638   6.1601000   1.2866760
  52.1896362   6.7412233   2.0093131  53.3656425   6.0097938   1.3985696
  25.1800194  62.3761940  70.7688065  25.2427998  61.4426270  70.5669632
  24.8394203  62.7722816  69.9667206  65.7822189  63.4585381  41.6088448
  64.9216843  63.5512886  41.2000542  65.7386780  62.6216850  42.0714569
  45.4108047  42.4776077  10.8291636  46.0488472  43.1744919  10.9824228
  45.5927582  41.8318863  11.5119267  78.7078705  22.3936100  77.8881226
  78.7772446  23.1672077  77.3286896  78.4206619  22.7353363  78.7348633
  21.6034660   1.2788897  70.3411102  20.8339996   0.7865798  70.0551224
  21.7447815   0.9984387  71.2453232  48.3194237   7.0878086  87.8183365
  49.1901512   7.3992662  88.0654373  47.8677216   6.9535279  88.6515045
  59.9103584  69.2222672  25.3922825  60.5277214  69.7457733  24.8813610
  59.1442909  69.1342621  24.8251610  49.4991112  36.7600441   7.6231623
  49.0695610  37.2802963   6.9441528  50.2367783  37.2996521   7.9075909
  77.7066193   3.8595781  62.0646324  77.1471329   4.5029478  61.6295662
  78.5253601   3.8801820  61.5691757  16.0906124  55.3377953  13.5087051
  16.4969158  55.3668175  12.6425028  15.5798950  56.1456795  13.5608873
  31.2486897   1.0876032  27.2582455  31.2490692   1.9928945  27.5691776
  30.3616467   0.7741363  27.4346676  40.2737617  43.3354759  21.2634811
  39.5909920  43.5759697  21.8897552  40.3342361  42.3824577  21.3293037
  21.7532215  32.1740265   1.8451881  21.6807785  33.1270485   1.8975110
  21.0106125  31.8490677   2.3542726  46.6564484  46.4743309  12.6530924
  45.7694397  46.1396561  12.7851343  46.7057724  47.2493935  13.2126274
  51.9106140   0.2344295  38.4906158  51.4862289   0.5931683  39.2700005
  52.8456688   0.2603900  38.6936607  11.8787451  66.1260147  21.9298344
  11.1364403  66.4982452  21.4537468  11.7851114  66.4629974  22.8208485
  38.9459763  41.9074936  24.2030315  39.3737106  41.0523949  24.1574383
  39.0193520  42.1632843  25.1224995  37.4589462  23.3870258   5.9409022
  38.1477356  23.2414627   5.2923555  37.1018944  24.2477398   5.7220078
  71.9102859  -0.1936443  62.1958466  71.9500504   0.5539451  61.5993881
  71.4348907   0.1340724  62.9592819  12.7603455  36.8068161  53.6729507
  12.4239035  37.6195602  53.2954788  13.6771870  36.9966736  53.8719139
  54.1828232  14.0884628  27.8875732  54.1387024  14.9251232  27.4246635
  53.5083656  13.5498934  27.4737129  18.4059124   4.0387888  20.4249020
  18.9239330   4.7616072  20.7790489  17.9482307   3.6776605  21.1840763
  66.1896133   7.0642962  65.4801483  66.3710098   7.6118937  66.2439957
  66.7296219   7.4380903  64.7837982   2.2283626   3.8650947  33.4659119
   2.8962822   4.0558820  32.8073425   2.5570350   3.0910392  33.9231262
  14.9595385  16.6638603  63.5698547  15.3208380  16.5894775  62.6865845
  14.9192991  15.7622871  63.8888779  14.3395472  14.4259920   5.1170745
  14.7509613  14.7060480   5.9347167  15.0131884  13.9096117   4.6745934
  62.9459572  53.9862251  79.8808670  63.5167389  54.7336998  79.7027740
  62.3061867  54.3181305  80.5107574  58.9624100  53.5097198  82.3323669
  58.7989845  52.6981277  81.8519058  58.4161682  53.4387665  83.1151886
  86.1076813   4.3192134  84.7464752  86.5435562   3.9839690  85.5299683
  85.9267960   3.5398533  84.2210159  74.6873169  30.1622677  -0.0197655
  74.3761368  30.3948879   0.8550398  74.6110306  29.2087803  -0.0554319
   8.4529104  16.9965858  65.1459503   8.4108553  17.9264927  65.3689728
   7.5783367  16.7894764  64.8166199  80.2499161  59.0648575  63.8495636
  80.2727051  59.6504669  64.6063843  79.4223862  59.2687111  63.4138222
  85.0504684  14.1661587  28.5632381  84.5516357  13.8278131  29.3068256
  85.8468399  13.6353321  28.5476265  11.7708187  10.4247208  16.8417873
  11.5506105  10.2772560  17.7615662  12.6383572  10.0338907  16.7375717
   5.2010856  46.3629112  64.2750015   4.3216991  46.0045738  64.3954468
   5.0563264  47.2329483  63.9030991  42.6242409  39.4149933  41.5532608
  43.5254364  39.3833160  41.2322006  42.5981178  38.7676506  42.2578850
  53.7115974  44.8910255  28.3822422  53.3774147  45.5072632  27.7304745
  53.0320778  44.8628960  29.0558109  65.3076019   3.1907914  87.7679901
  65.5289459   4.1199160  87.7050247  64.7642975   3.1267042  88.5534515
  44.3768539  64.2378998  71.2172165  43.9999199  64.0341492  70.3612747
  45.2575645  63.8642502  71.1861649  82.5003052  14.6173763  20.9651279
  83.3131409  14.9891281  20.6225948  82.1537704  15.2941465  21.5466175
  13.1458664  48.9952507  57.9997444  12.3268671  49.4893150  57.9627113
  13.7854977  49.6174774  58.3460579  61.5078239  40.0911674  59.7222786
  62.4414062  40.2922516  59.7872391  61.0714417  40.8554649  60.0986443
  64.3542099  12.0049162  42.5646324  65.0986404  12.5807276  42.3899879
  64.5344162  11.2178583  42.0505333  78.8739395  48.9227371  70.6417999
  78.9961319  48.8107567  71.5845413  78.5349503  48.0791435  70.3423538
  38.1076813  51.4035606  74.5618210  37.6619492  50.6414490  74.9316101
  38.9332008  51.0571823  74.2230377  41.7753944  42.5081253  72.5901337
  42.5266495  42.9712639  72.9607391  41.4953194  41.9117737  73.2845001
  66.9789658  66.4220963  75.0070496  66.9096756  66.1109695  74.1044846
  67.3021698  67.3195114  74.9268951  62.7383804  29.6166992  74.2480011
  62.5010262  30.2367535  74.9375153  63.6939659  29.6562157  74.2089157
  72.4332886  46.3589821  58.3361359  72.0164490  46.3989792  59.1968765
  72.6114426  45.4285164  58.1992989  77.9207458  58.5288429   7.2529144
  78.0821991  57.6403770   7.5704017  77.7119980  59.0305405   8.0409212
  47.3862000  48.3309326   7.7272296  48.2462196  48.7002106   7.9278154
  47.5084915  47.3845444   7.8022513  43.4388542  51.2857323  75.4913864
  42.6783485  51.6670609  75.9300766  44.0256958  52.0269966  75.3417816
  77.4038773  67.1800308  82.4426575  77.2689056  68.0587311  82.0878372
  78.0119019  66.7653809  81.8306122  13.2391310  63.5321312  63.6449776
  13.1576777  64.3817902  64.0781860  13.5694122  63.7396431  62.7708588
  33.9097710  48.2054214  61.2177887  34.7614746  48.2160912  60.7810745
  33.8199654  49.0831070  61.5890541  77.2317810  63.2881317   1.0619979
  77.3953705  62.7483063   1.8353403  76.5926514  63.9379616   1.3543510
  11.0535688  50.9336510  59.0709419  10.9811659  51.5142441  59.8285065
  10.3261709  50.3193321  59.1696053  59.8110504  70.6185379  36.2223549
  60.4264374  70.2481079  35.5896530  59.6336555  71.5006256  35.8957329
  61.0792084  19.4822598  76.4210510  61.7321434  18.9655514  76.8932037
  61.4740372  20.3504219  76.3395844  68.6012650  16.2555027  23.0689049
  68.0664215  16.7136936  22.4206486  69.1300735  16.9436626  23.4726639
  63.8060188   5.0355210  83.9086685  63.7723541   4.9013872  82.9615097
  62.9262581   4.8133650  84.2134552  58.0060959  29.1664219  25.7565823
  57.9921455  28.7255630  26.6061001  58.7916565  29.7127037  25.7831020
  75.9281387   7.4068770  46.1877060  76.7873383   7.8072066  46.3209229
  76.0893784   6.4657550  46.2549477  14.2041779  40.5034370  76.7144012
  13.9609432  39.5847664  76.5998917  14.9425335  40.6317253  76.1189194
  81.8246613   6.5527925  70.8802567  81.9599228   7.3209262  70.3253632
  82.5946198   6.5292020  71.4484482  20.6729965  66.4226151  58.8012047
  21.4763470  66.8806686  59.0482903  19.9694290  67.0227432  59.0483360
  40.0513115   3.0844202  86.4573669  39.9682922   2.1326761  86.5167160
  39.2913399   3.4211948  86.9319839  48.1502266  20.7134228  77.5927963
  48.6776619  20.2642841  76.9322510  48.4696808  20.3711567  78.4276810
  36.7000771  66.2792358  12.1296263  36.9621849  66.1307602  11.2210627
  36.9917297  67.1707382  12.3204069  22.2622509   5.3077040  88.2528229
  22.2679882   5.4602790  89.1977692  21.4996758   5.7921824  87.9366150
   3.3737061  32.6420174  87.4290619   4.2048612  32.9354744  87.8022842
   3.6251738  32.0482483  86.7216492  31.2252274  63.7645836  82.5890884
  31.4939823  63.2965698  81.7985382  31.9503326  63.6374283  83.2008743
  58.5940857  66.6289978  79.3777390  59.0493355  66.3734970  80.1800537
  57.8993874  65.9779663  79.2788544  52.3026123  38.6584206  48.3785858
  51.7172050  37.9371414  48.6094093  52.4445801  39.1246910  49.2024002
  43.5065460  29.0326080  45.9181519  42.9004097  29.7509575  45.7370300
  43.2826576  28.7479515  46.8041992  79.3497086  63.9286995  13.5131311
  80.2750244  63.9599495  13.2701530  78.9657059  63.2902451  12.9121742
  67.4501190  47.2765236   6.0189800  67.6782455  47.8564224   5.2924099
  67.6606827  46.3988876   5.7001586  12.5550566  39.7505379  41.3099747
  13.1945295  40.3297997  40.8955307  12.9055090  38.8703003  41.1735954
  46.8602600  30.2353268  62.7966118  47.2670021  30.1143112  63.6546021
  47.5589409  30.5927658  62.2486038  79.7990494   0.3365718  68.4640503
  80.0786514   1.2037284  68.1706390  80.2901077   0.1872367  69.2720108
  48.7535667   9.2285538   9.5909119  49.1251030   8.3663187   9.7773008
  48.7504234   9.2865553   8.6354761  60.7629852  54.6820602  57.5935707
  61.5562706  55.2174454  57.6106224  60.1987495  55.0685463  58.2632713
  71.9101486  57.1871490  20.4869652  71.7345810  56.3101616  20.8280029
  71.1955566  57.3524475  19.8719234  64.3277817  30.8781357  17.9632549
  64.1150284  29.9591961  18.1261082  63.5414238  31.3563042  18.2263603
   1.5823746   9.9997578   6.6650324   2.2559125   9.3425283   6.4900227
   1.9909079  10.8313074   6.4244990  53.3814354  43.0261536  38.9471130
  53.9245796  42.5503082  39.5754433  53.8553200  42.9547424  38.1185226
  76.9756775  24.0960560  36.6888390  77.0379639  24.5877476  37.5077362
  76.5440445  23.2774086  36.9332466  19.8757381  33.0628014  82.0879593
  19.0201988  33.1976318  81.6804047  19.8740864  33.6460838  82.8469162
  39.3730621  50.6738892  44.7656441  39.6549644  49.9384346  45.3095856
  38.6458855  51.0650139  45.2498627  58.5946503   4.7911496  44.3497429
  58.4219475   3.8502617  44.3160400  58.3088646   5.0559530  45.2240639
  65.5913315  44.2132645  71.6551971  65.4361420  43.3594360  71.2513046
  66.4955215  44.1702385  71.9663544  21.9851112  11.6310320  61.1334877
  21.6184063  11.3362064  61.9670563  22.6124191  10.9491253  60.8932343
  81.7489853  34.9798241  46.2511864  82.1328506  34.6677971  45.4317207
  82.0906754  35.8681717  46.3527603  13.5658045  36.7093658  66.7780457
  13.0219126  36.1261635  67.3074646  14.0705538  36.1215286  66.2159882
  31.0307560   8.5660486  87.7800064  31.3647442   8.6532593  86.8872147
  31.8082352   8.3924570  88.3106918  74.5979996  68.5222168   9.3694067
  74.2716827  67.6856995   9.0377626  75.4486923  68.6327896   8.9447613
  12.3562584   5.5624466   0.7749393  12.9242105   5.3484149   0.0347685
  12.7433062   6.3518744   1.1533959   7.2053156  62.0297546  41.2323532
   7.7725139  61.3322029  41.5608978   7.2032375  61.9094658  40.2827415
  20.7811642  34.4873390  40.2966766  20.6552486  34.2940521  39.3676872
  20.6323013  33.6509209  40.7376633  37.5930481  62.0317307  73.8302994
  38.5305176  62.0929375  74.0137177  37.5336075  61.4370270  73.0826187
  58.9187012  11.3394718  59.0242577  59.0883789  11.8939657  59.7858200
  59.2580070  10.4798374  59.2735214  12.9889002  57.3105278  37.5238495
  12.3298702  57.4955292  36.8547554  13.7817125  57.7416878  37.2048187
  34.2813377  48.4714584  68.1780624  33.5930557  48.9351120  67.7010651
  34.8175354  48.0696945  67.4944611  24.7207375  63.9488297  56.9894295
  23.9082279  64.1550369  57.4515343  25.3370686  64.6226883  57.2762909
  13.3401260  37.4441147  13.1892986  13.6494064  38.2796478  12.8393545
  13.3234434  37.5730858  14.1376228  71.0836029  13.2438946  25.3193474
  71.9744034  13.0062675  25.5767117  70.6517868  13.4793110  26.1405334
  48.8061142  37.4030151  73.8769073  47.8594513  37.5436401  73.8939209
  49.0526505  37.5429955  72.9626541  67.3984680  55.3882179  84.8947525
  68.1197739  54.7641487  84.8142776  66.6379929  54.8487053  85.1111908
  59.9487419  34.8494377   8.0995636  60.8849945  35.0152168   7.9892144
  59.9069443  34.0241890   8.5827312  71.8582687  45.7808418  24.0637493
  71.3860168  45.2169685  24.6763325  71.1703262  46.2332954  23.5756302
  81.2140350   2.7730067  21.9233894  81.4266891   1.8653221  21.7063160
  80.6699524   3.0723228  21.1949577  42.8820038  19.4530811  17.0317898
  43.5979309  19.4496708  16.3964405  43.2477570  19.0271511  17.8070564
  46.3008080  37.1815834  72.9503632  45.7114105  37.7428818  72.4465942
  45.7683258  36.4199982  73.1798859  31.8164940  37.4698410  83.4595108
  32.0574570  36.7831306  82.8377380  31.5738640  38.2155457  82.9106140
  19.8442631  21.3177586   0.7229236  19.8520679  20.5126572   0.2052537
  19.2403946  21.8961868   0.2570954   0.7639061  68.0352020  81.3660812
   1.2744105  68.8343964  81.4961166   0.3954302  68.1266785  80.4873962
  41.0063057  40.1663017   8.9120007  41.0013657  39.8141823   8.0219345
  41.9341774  40.2655373   9.1251688  40.3779602  17.2436924  63.6413765
  39.4341850  17.0964222  63.7032738  40.6824150  16.5863628  63.0157089
   7.3616943  12.2379923  78.4493484   7.3531928  13.1756687  78.6414948
   6.8556437  11.8433666  79.1595688  38.5328102  31.5753536  63.6360817
  38.5976830  31.0102749  64.4059601  37.6204185  31.4967842  63.3575096
  22.9998550  53.8864479  11.2095346  22.3967247  54.2514992  10.5620737
  23.7262497  53.5397377  10.6914854  76.4490356  33.6541214   8.2412338
  76.2999878  34.0276108   7.3726015  76.7514877  34.3920670   8.7705660
  55.7872581  36.0786819  67.1168747  55.8401451  35.1718636  67.4187317
  55.3702583  36.5477524  67.8395844  22.9597225  61.7575989  33.8600159
  23.3760090  60.9078331  34.0043640  23.6900520  62.3663330  33.7491302
  11.4704771  55.0797768  48.0450287  12.3742275  55.2166481  48.3291664
  11.0942373  54.5051041  48.7116814  62.9654121  28.9496078   6.7211804
  63.8237534  28.7026386   6.3769560  62.7308121  28.2358742   7.3142905
  37.3255081  35.2485809   1.8405522  37.2972488  35.1460037   0.8892841
  36.8620682  34.4820366   2.1779845   8.7226343   4.9889016  19.9789562
   8.9091358   4.0711789  20.1770344   9.4891901   5.4637995  20.3000412
  78.1877365  50.2088699  53.1583824  79.0049744  49.9772453  52.7171288
  77.6547089  49.4154625  53.1072197  47.5122147  67.7088394  62.4457016
  48.3633804  68.1200027  62.5963593  47.4876671  67.5476761  61.5024872
  51.9864845  24.2364540  66.2870789  52.1110229  24.0597610  65.3546066
  51.0383301  24.3164864  66.3911438  76.1519394  70.2948837  60.8307381
  75.2006760  70.2203979  60.7547112  76.2930374  71.1445389  61.2483673
  47.5452766  17.6128540  65.0992661  47.5647545  18.5414906  65.3305435
  48.4099541  17.2859726  65.3476868  55.4296532  25.3279114  16.0016441
  54.6927948  24.8039989  16.3159561  55.5474243  26.0016251  16.6713238
   4.9528308  33.2701378  70.5304718   5.4238701  34.0808258  70.3377533
   4.3829579  33.1383400  69.7727737  37.7219543  71.3016205  63.1362000
  38.4483032  70.6797180  63.0926857  37.0865860  70.9726791  62.5003242
  46.8135605  31.7264786  81.4306107  46.2067871  31.4748592  82.1268463
  47.5386314  31.1065350  81.5091782  24.2682285  60.2590065  10.2252121
  23.9190998  60.4358406  11.0987511  25.2140789  60.1897163  10.3548193
   0.5984811   6.9101510   4.7879243   0.8085082   6.1514521   4.2434096
   1.1101505   6.7808437   5.5864892   0.0688404  44.4002800  45.3742714
   0.9350017  44.0846291  45.6318741   0.0714177  45.3275299  45.6118317
  28.0894375  41.0267220   7.8940411  28.4970570  41.5060272   8.6153927
  27.3943329  41.6069145   7.5834980   2.8204279  65.8672333  10.1135330
   2.1995232  65.9833374  10.8327198   2.2743721  65.6467743   9.3589115
  33.0029831  22.6153183  78.4984360  33.8475533  23.0475712  78.6252899
  32.6889648  22.9455242  77.6566544  26.3762989  63.9713669  76.4513779
  27.2607574  64.2667618  76.2352524  26.3420677  63.0678520  76.1371765
  50.5054207  63.6852455   6.0879455  50.4464569  63.6496315   7.0426636
  50.5848083  62.7701645   5.8185778  58.9387817  50.3731079  85.1068268
  59.2079201  50.1411705  84.2180023  58.0142899  50.6068954  85.0238190
  26.8077869  32.0679054  14.5555124  27.3103180  32.5681114  13.9124823
  26.0247440  32.5960388  14.7109203  30.0620861   5.2571187  10.8790216
  29.9514084   4.3148880  11.0062351  30.0238171   5.3768148   9.9301062
  28.8086777  71.0901337  19.0337963  28.4143181  71.4265823  19.8384819
  29.0438423  70.1859741  19.2421741  54.0524368  66.8161316   2.5128505
  53.4615288  66.2428589   2.0245719  54.2159653  67.5509949   1.9216913
   9.9390392  36.3784752   3.5680816  10.1775837  35.8627167   2.7978084
  10.7250538  36.3707657   4.1142988  58.0669937  59.5471191  42.5467186
  57.3289032  59.3743477  41.9622459  58.0874138  58.7931366  43.1360626
  73.9333725  36.1522484  65.8974152  74.3178329  35.4913673  65.3215179
  72.9885864  36.0475311  65.7849655  80.5180359  60.8295059  65.8032379
  81.1962585  61.5046310  65.7818756  80.2683029  60.7699776  66.7253647
  76.6963501  20.9312744  34.6077423  77.5250397  20.9255791  35.0867653
  76.7758865  21.6667423  34.0002937  51.4267273  63.3302422  72.3387146
  51.9994926  62.6143303  72.6137466  51.1007004  63.0598755  71.4803238
  77.4634705  12.7871494  78.0092163  78.0658112  13.5213604  77.8894119
  78.0288696  12.0471411  78.2304382  48.7618675  27.7100315  16.9740582
  48.6858711  26.8169594  17.3100319  49.5532494  28.0549526  17.3875465
   4.7831326  28.6862602  73.4565201   5.1566505  28.0191708  74.0324631
   5.1911449  28.5240498  72.6059647   3.9193885   6.7449737  26.0865021
   4.3730278   7.5128350  25.7388916   3.9689140   6.8473954  27.0369167
  75.1974869  25.7439899  40.6777191  74.6377106  25.3136024  41.3239746
  75.4385986  26.5756550  41.0856781  63.0539169   5.5361452  66.4492340
  63.4248619   6.2409444  66.9801712  62.1464119   5.4654436  66.7453232
  63.6896515  49.3965645  75.4370346  64.2819138  48.6819038  75.6709747
  64.0455322  49.7446709  74.6194763  54.7763367  51.7938499  21.0184860
  55.5014305  51.1802216  20.9004631  55.0543480  52.5848083  20.5566101
   5.2854533  61.0414734  82.6885452   4.5742207  60.4499245  82.9344101
   5.6841965  61.2955399  83.5208282  23.4482536  24.0047932   6.7894545
  22.8082752  24.6750221   7.0291462  24.2497005  24.2657623   7.2431178
  61.1792068  58.2002983  27.8390179  60.3106956  58.4549065  27.5274200
  61.7669868  58.8646393  27.4792938  43.4347458   0.4139697  58.7937660
  42.6336823   0.4326106  58.2701454  43.8591042   1.2525445  58.6122551
  34.0197792  45.7319832  21.4288330  34.3043213  44.8686371  21.1290054
  34.8323288  46.2231369  21.5503445  77.4012222  41.0070457  62.2079239
  76.9556046  40.3611412  61.6597786  77.4033966  40.6182098  63.0825882
  58.7975769  39.3239403  29.3243217  59.1025734  40.2300148  29.3716507
  58.1049347  39.2696724  29.9827557   5.1750355   6.4346733  56.2592049
   4.4556460   6.7602177  55.7181587   4.8070421   6.3833437  57.1413498
  56.1741714  47.9550552  23.5953350  56.3471832  48.0326614  24.5335655
  56.6369209  47.1597862  23.3314304  17.1179771  15.4323635   6.6420507
  17.8264751  15.3393841   7.2789316  16.4934940  14.7458820   6.8765621
  48.3891411  31.5473270  26.2170525  48.1513519  32.4664345  26.3392601
  48.3152657  31.1626492  27.0904350   5.1619120  15.2131844  50.7432442
   5.2936592  15.7239943  49.9445267   5.4014735  15.8105011  51.4518013
  77.3734589  52.3334503  37.4384918  77.2918701  51.5497704  36.8949699
  76.4991455  52.4618835  37.8063507   8.5720987  68.0575409  18.4335670
   9.2994165  68.6693573  18.5472240   8.9892874  67.2336426  18.1818123
  64.1806259  53.7806244  59.0872459  63.6612816  54.0934105  59.8279762
  63.5437050  53.3627663  58.5076294  79.2503433  54.8888817  49.9371681
  79.9682083  54.3433342  49.6157913  79.6229324  55.3605652  50.6820984
   9.1099653  68.2596970  46.3177338   8.1802197  68.2029648  46.0973129
   9.5480728  68.3890915  45.4765739  73.1482925  10.2126589   7.8515778
  73.9222565  10.7007008   7.5704494  72.6132889  10.8577356   8.3140450
  75.9767761  70.4297180  43.3502426  76.9280548  70.4818420  43.4429092
  75.7240448  69.6817245  43.8914032  60.1216927  37.2054901  30.8505268
  60.9188881  37.3944626  30.3555546  59.4163322  37.2863541  30.2085304
  83.0051498  66.6270981  82.2044830  82.3494110  65.9623108  82.4149704
  83.8413620  66.2171860  82.4257355  78.8356400  45.2834053   3.5035186
  78.8315887  44.3617172   3.7617950  78.1282196  45.6781349   4.0134058
  20.8053322  50.7684784  51.7040825  20.1741199  50.0580292  51.5897713
  20.3469944  51.5486374  51.3918190  75.7992477  52.8268623   3.5183883
  75.9794998  53.7669182   3.5241735  76.6625900  52.4170990   3.5728581
  37.3686371   9.2978745  79.1142120  36.5618744   8.8204556  78.9207153
  37.0958633  10.2131653  79.1780090  25.4167461  35.9715233  64.9170532
  26.3636322  35.9868317  64.7777481  25.0758514  36.6363831  64.3187408
  73.3646011  15.4525108  50.8648186  74.0141068  14.7652369  51.0132408
  72.5270233  14.9896994  50.8424034  21.5381775  66.5581512  32.4298744
  21.9998150  66.9033966  33.1940308  21.2521038  65.6847229  32.6972923
  49.9042854  65.3055725  49.3174095  49.2993965  65.5504913  48.6171532
  50.2891655  64.4798889  49.0235519  32.3346100  60.2829361  61.3322678
  33.2037392  60.1540985  60.9524689  32.3779907  59.8466797  62.1831665
  63.6834221  31.3405876  22.1040096  63.3976707  30.5173912  21.7078724
  63.4154434  31.2711697  23.0203075  61.5823669  22.6968479  71.0331268
  61.3089256  23.5239105  70.6363602  60.7652931  22.2827549  71.3108826
  46.1368179   5.4235826  54.5344124  47.0428963   5.1173978  54.5731850
  46.1949883   6.2948265  54.1422615  74.1378250  70.8474731  78.3668518
  74.0989838  71.0418015  77.4303970  74.0825424  69.8931274  78.4159241
  76.4149857  51.0582008  29.1357365  76.3696442  51.6192703  28.3615437
  75.8718185  50.3015022  28.9152832  82.5154800  68.3354645  84.3919296
  81.6112518  68.1077728  84.6081848  82.7503967  67.7363815  83.6833038
  22.8262119  60.5012627   2.7693703  22.6475410  61.0426826   2.0004945
  23.4510765  61.0132294   3.2828543  57.0263939   5.8817105  21.1340790
  57.5366096   5.0783978  21.2370338  56.1236649   5.5805430  21.0310650
  49.3049545  49.5653419  15.4135571  49.3426170  50.4078217  14.9607477
  49.9820824  49.0362892  14.9918509  28.3899250   7.3169174   7.7836118
  28.2324505   7.7448878   6.9420214  29.2706833   6.9504528   7.7048659
  55.1609650  12.1712294  24.1709175  54.9134407  12.8648920  23.5595284
  54.7185593  11.3900909  23.8387585  79.4587860  19.7122955  57.7423248
  80.0405350  19.5265732  57.0052338  78.5823288  19.7272968  57.3578377
  55.5846596   1.2146649  23.8732071  54.8357124   1.4846630  24.4046288
  55.3669930   0.3280585  23.5854874  83.4231415  62.4572716  40.7392082
  84.3568497  62.2740211  40.8432846  83.3087921  63.3339958  41.1059685
  44.6281357  36.4309006  13.1280174  44.5699196  35.4936485  12.9425411
  45.4599113  36.7008705  12.7387991   2.4713068  41.8837547  17.0672932
   2.5298138  41.7435951  18.0123672   2.9180076  42.7175446  16.9207115
  57.6453094   8.1361074  89.1699600  57.4298553   7.6226864  88.3913651
  56.9915504   8.8351240  89.1843796  36.6555710  31.5023575  86.7673569
  36.2303734  32.1320839  86.1852188  35.9389915  30.9617863  87.0998154
  86.7170410  23.7582092  27.5930710  85.9841080  24.3349705  27.8084526
  86.3103333  23.0015812  27.1707706  75.4599609  20.5650921  72.9471664
  76.3596878  20.6059990  73.2712708  75.4306793  21.2092705  72.2397690
   2.9843860  19.1057453  34.7634697   3.6137698  19.8202877  34.6658173
   2.7512329  18.8676300  33.8661537  73.3120270  51.0728836  10.7221746
  72.8433838  51.3913536   9.9506941  74.1407242  50.7393875  10.3782740
   1.2615228  52.7162476  78.5270538   2.0209773  52.2679367  78.1549225
   0.5554896  52.0717239  78.4786987   5.2589569  46.5539360  68.2787170
   5.0285916  45.6260529  68.2318726   5.2746935  46.7498131  69.2155304
   4.7487369  35.5875587  28.4005547   4.8521495  35.9730568  29.2705727
   3.9480536  35.0667534  28.4629803  84.4547577  26.4188957  47.5935287
  85.3592072  26.2032356  47.8209114  84.2026825  27.0916767  48.2260284
  64.7067490  39.4439697  24.9955101  65.2352524  38.6496086  24.9186802
  64.9336014  39.8004456  25.8544006  52.5710716  46.9426498  73.2924347
  51.6869583  47.0967560  72.9595337  52.4523544  46.3163109  74.0064621
  69.4914627  39.9611168  65.1324158  70.2642441  39.4591904  64.8733597
  69.3335037  39.7056046  66.0412521  20.3671417  58.3282356  45.0340805
  19.9505043  58.6786232  44.2467613  21.3052101  58.3740883  44.8492661
  69.1843948   0.5604819  18.7293949  69.0021591   1.4823875  18.5474281
  69.6837692   0.5716828  19.5459290  48.9453964   7.5811787  51.1948891
  49.1818924   6.7907991  51.6802750  48.0260925   7.7314529  51.4151802
  32.7283936  42.4921761  14.5450068  32.0501328  42.6744957  15.1953554
  32.3722382  42.8344269  13.7250986  14.2187004  42.0836067  63.7450829
  13.8037319  42.2490768  62.8985291  13.5580511  41.6055260  64.2462921
  36.3561096  48.4465981  51.2583885  36.1557426  48.1106300  50.3847694
  37.3023338  48.3328438  51.3475418   0.5230309  21.1331024  24.0674629
   0.4125799  20.5006275  23.3575268   0.1258164  21.9380627  23.7350636
  50.7007027   2.8009911  24.2850819  50.9002724   2.9444213  25.2101936
  49.7471275   2.7234099  24.2549992  83.9613495  61.3754311  74.9728394
  84.3505630  62.2344894  75.1364212  84.1146927  61.2164268  74.0414810
  28.4366474  67.3615875  63.0592651  28.4123306  66.8952713  63.8948441
  29.2225018  67.9056015  63.1113625  52.9116554  43.5588837  76.8089142
  52.6854630  42.7348404  77.2402191  52.8827553  43.3556824  75.8739777
  80.9797211  32.7161255  36.7691383  80.0314941  32.5943336  36.8166656
  81.2707138  32.0785637  36.1171608  12.3802462  43.8373184  67.2446060
  12.4337797  44.7883377  67.3390961  12.6030207  43.4975967  68.1113205
  28.7911091  50.2574844  51.0267067  27.8469982  50.3976059  51.0991783
  29.1796913  51.0018196  51.4862747  81.4867172  53.5518799  36.9738503
  81.0648804  52.9457169  36.3648682  80.7675629  54.0754166  37.3273430
   5.8014226  61.7928696  62.5027428   6.1097116  62.0495186  61.6336517
   6.1371822  60.9046402  62.6233406  78.1866684  20.5050697  81.0807190
  78.8517532  20.3858128  80.4027328  77.8378372  19.6264896  81.2312164
   5.8485808  28.6385822  38.1999207   6.2997656  27.9227352  38.6473885
   5.1627436  28.2077122  37.6898117  81.5701218   4.5071487  81.1600952
  81.9920044   3.9822361  81.8403244  80.6575241   4.5743909  81.4409561
  84.4953232  15.3163157  41.7931328  84.7011566  15.9208822  42.5061302
  84.1417160  15.8743734  41.1004829  43.9116096  60.4074211  77.0562286
  44.2241325  61.2830391  76.8285141  43.2331581  60.2191124  76.4077911
  54.4762917  56.2554245  78.5653000  54.8078117  56.8713951  79.2186813
  55.2599373  55.8278351  78.2199097  73.3860397  57.5092583   7.6698918
  73.9431763  57.8611946   8.3641357  72.5415115  57.9410629   7.7985024
  23.6225605  45.3246689  66.7125626  23.7339325  46.2352753  66.4393997
  23.4659290  45.3749275  67.6555252  25.4307823  44.5638809  83.9781036
  25.1368179  43.9435997  83.3109665  24.6311131  45.0062790  84.2627869
  71.2873001  26.6115379  28.7450638  71.6122665  27.4306526  29.1187992
  70.3809814  26.8017159  28.5028801  49.2968597  21.4912567  53.4980049
  49.6442604  22.3401089  53.7718658  49.9268036  20.8544769  53.8355179
  51.5065269  33.8840714  28.0286770  51.8021584  33.0044136  27.7940769
  52.0744400  34.4692459  27.5273991  50.5904579  59.3178024  36.5660057
  49.8179893  58.9585075  37.0023918  50.6646156  58.8128777  35.7561989
  61.0990219  70.0856705  49.2346954  60.9149094  70.8994751  48.7655983
  60.3062363  69.9183655  49.7443314  19.8501358  54.2300568  84.4974365
  20.5493164  54.4251747  85.1213760  19.0455036  54.4719200  84.9560242
  18.9871693  65.3323441  16.9651413  19.6603699  65.5764771  16.3299751
  18.7240086  64.4488068  16.7075787   5.9058189  39.6084671  58.1414146
   5.0180192  39.3016090  58.3254890   5.8798823  39.8803024  57.2239952
  58.8405533  37.4996567  40.2927818  58.0792198  36.9912796  40.5723419
  59.1454849  37.0580940  39.5001450  66.4899826  21.7386112  17.8893356
  66.2159653  22.6524220  17.9674530  67.2731094  21.6758099  18.4361362
   9.9860287  31.8232880  68.6355667  10.3337412  31.7019711  69.5190887
  10.6534424  32.3402405  68.1844025  48.6586304  16.8828812   2.8634653
  47.8874664  16.5727749   2.3887374  48.4878159  17.8121414   3.0168548
  66.7325363   8.5663013  15.5456791  67.2093887   7.7753620  15.7971907
  66.2325974   8.3084717  14.7712011  36.8140793  57.3408699  72.6621246
  37.5952797  56.9287567  73.0310745  36.3154526  56.6154213  72.2861938
   9.4177465  53.5386810  11.9150648   9.8883572  53.1525879  11.1763554
   9.9124203  53.2605896  12.6859055  38.7525368  13.4969273  73.0667191
  39.6800957  13.6453791  72.8827972  38.3418999  13.4487514  72.2034149
  68.6965179  24.5019588  62.1772652  68.0422058  24.7366581  61.5192223
  69.1396484  25.3260841  62.3789749  19.3181496  51.8410187  58.3153572
  20.0853710  51.3013954  58.5061646  18.8437805  51.3533401  57.6420250
  84.0626373  69.0083389  70.7432327  84.3933640  68.6107864  71.5487137
  83.9590225  69.9352188  70.9586182  36.6577911  11.9064131   0.8249150
  37.1651077  12.6384974   0.4743226  37.0474129  11.1303816   0.4221724
  52.8246880  47.3932343  23.6757164  52.8758392  46.8699455  22.8758526
  52.0384865  47.9273911  23.5626068  50.3027687  49.5039787  47.2861023
  50.4816399  49.4918823  46.3458405  51.1316147  49.2482758  47.6908951
  70.8829956  34.7697945  65.9211273  70.0492630  34.2999153  65.9394531
  71.5264664  34.1062584  65.6723328  76.9306870  48.8875237   1.2369729
  76.6088028  48.2502136   1.8745136  77.6117859  49.3709755   1.7045277
  67.6062622  71.2132492  75.7784576  67.5257187  72.1510773  75.9523163
  68.2644958  70.9094543  76.4034882  63.1063919  50.7786255  15.2923346
  63.8473740  50.9176559  14.7025490  62.9025307  49.8474350  15.2054148
  36.3560333  69.7125702  32.2396736  36.0402145  69.6653214  33.1420364
  35.6412697  70.1279602  31.7571926  51.3978157  44.6726494  44.1640320
  50.6023407  44.9150352  43.6900101  52.1005554  45.1299286  43.7022057
   1.3651562   1.2149526   6.8195300   1.4756403   1.1741405   7.7694559
   2.2216065   0.9715750   6.4681158  71.3055649   6.4728193  51.6534576
  71.5774460   5.6284661  51.2937660  71.7643051   7.1201668  51.1179886
   5.1497846  67.0561447  73.4888000   4.4615612  67.2360229  72.8483124
   5.4411721  66.1676483  73.2841110   6.7093992   8.9338999  47.0315208
   7.5539556   8.6789751  46.6600800   6.8869729   9.7562227  47.4881248
  28.5579071  31.0193062  83.8815384  29.2783031  31.6064701  84.1106720
  28.2247372  30.7090435  84.7235413  41.7410202  34.9218712  62.7026253
  41.8899460  34.3995361  61.9144516  42.1321716  35.7725449  62.5036507
  65.6656952   8.9322100  31.4333706  65.3827972   9.5790071  32.0797844
  66.0205383   9.4530096  30.7128925  50.2575111  19.4323959  89.0188904
  50.9594460  18.9189987  88.6189651  50.4124756  20.3269920  88.7157135
  17.6414986  28.0284233  89.1141052  17.8183537  27.7936554  88.2031555
  17.0164490  28.7512074  89.0581589  77.1955795  54.6326866  36.1121979
  76.3404236  54.4204178  35.7381897  77.3875732  53.9025154  36.7005997
  41.7297745  61.9454575  37.9816856  41.5074310  61.2155533  38.5596466
  41.9430885  61.5321312  37.1450920  61.5816422  65.5943222  78.6360016
  61.1957207  64.9664230  79.2467728  60.8697433  65.8115387  78.0341339
  54.4327774  54.2114334  57.5013657  55.3061600  54.1006660  57.1256485
  54.3479691  55.1552925  57.6361618  37.8312759  17.2033253  71.4197998
  38.4814606  16.7104435  70.9192429  37.8111267  16.7735310  72.2748489
  57.8870125  22.5535545  17.9325428  57.0169907  22.3091145  17.6170406
  58.4026299  21.7504025  17.8596001  42.9492760  65.3701859  57.0081367
  42.1602898  65.2035980  56.4923973  42.7134972  65.1080475  57.8980370
  18.6448345  48.2383728  53.0843620  18.9082146  47.6736679  53.8109818
  18.7095356  49.1264534  53.4355812  67.7116089  37.3418388  42.7073288
  67.7911606  37.7488785  43.5700150  67.4790802  38.0631828  42.1226692
  77.7482529  39.1450996  31.8565559  77.9471512  39.7906761  31.1783924
  76.9069824  38.7722664  31.5929623  37.4505997  25.4064865  14.2940264
  38.1313934  25.0184059  14.8437052  36.6863327  24.8459072  14.4277372
  20.0834064   3.5813103   3.1378510  19.6142349   4.4148412   3.1744161
  20.7638111   3.7181606   2.4786446  80.6779633  14.7458248  57.6037903
  80.0346680  14.7808380  58.3117332  80.3287582  14.0950956  56.9948235
  10.2972622  23.4612522  12.1526279  10.1010075  22.9657822  12.9477530
  10.7954798  22.8521118  11.6076889  26.3089714  67.4268951  71.5934448
  26.6708546  67.8433990  70.8112717  27.0408535  67.3977890  72.2096710
  47.1873703  62.0801697  59.4541702  47.1211014  62.1337471  58.5007706
  46.2944717  62.2294922  59.7650909  51.9131508  48.4210129  19.6050358
  52.8576698  48.5653076  19.5476437  51.7924500  47.5124702  19.3289604
  44.0793076  26.3052292   4.5615277  43.7159576  26.2736187   3.6765363
  43.6846809  25.5569134   5.0093307  58.5221596  18.6624985  37.9980164
  57.8578110  18.0846081  38.3734016  58.7440109  18.2590523  37.1588211
  11.2927322   0.3694466   2.6793218  11.6587572   1.2081429   2.3985255
  11.9541197   0.0042168   3.2670345  34.2876549  53.2335167  34.4043922
  35.0330353  53.8317490  34.3519020  33.5566444  53.7286682  34.0346947
  53.5517120  15.3046455  39.1582680  54.2769394  15.6561403  38.6418114
  53.4697876  14.3959780  38.8687096  49.1915321  54.0980606  73.3535995
  48.5904160  54.8125458  73.1428909  49.6894417  54.4179611  74.1059189
  74.6057434  53.7761803  34.9239235  74.7803040  54.0658150  34.0284500
  74.2655716  54.5544205  35.3653526   6.7502975  62.2268372  11.9012690
   6.2470951  62.5571785  12.6455088   6.7610207  62.9532623  11.2780352
   6.7527895  61.9452400  76.8889084   7.4766865  61.6770592  76.3229675
   6.8531232  62.8934441  76.9730148  35.4180565  47.0270958  77.0767059
  36.1177940  46.4792786  77.4323578  34.9852867  47.3934708  77.8478775
  74.1963425  31.6081810  51.1848679  74.6511688  31.9321804  51.9622917
  73.4973297  32.2444077  51.0337677  74.6146622  62.6051521  23.2966709
  74.9847946  62.1232376  24.0362606  74.4183197  61.9312744  22.6458511
  69.2405701  20.6996994   8.2714348  68.5611115  20.9245968   8.9070339
  70.0349121  20.5982437   8.7957954   6.1000929  12.2606039  39.9777679
   6.1874089  11.3668699  40.3092003   5.3984938  12.2079010  39.3287582
  47.3280373  47.7639618   3.7100675  46.5776558  48.3577690   3.7335594
  47.1967506  47.1823540   4.4588861  12.6362648   3.0107615  86.5125046
  12.8469038   2.0986402  86.3127594  11.6862917   3.0654762  86.4086304
  11.7920446  35.2003593  51.7254868  11.5008898  34.3624573  52.0851860
  12.3517771  35.5721207  52.4071960  55.3612137  55.0683784  84.8190231
  54.7849236  55.3968010  84.1289062  55.8444595  55.8398705  85.1148376
  82.6520462   4.5785809  23.3070431  82.1872330   3.8597891  22.8786564
  82.8646088   5.1836028  22.5964108   1.9978195  34.0798683   7.1032286
   1.4687525  34.6902351   7.6168156   2.4642115  33.5586548   7.7567172
  48.9214211  41.0468941  34.3553696  48.4776306  41.0914803  33.5084343
  49.6396332  41.6754913  34.2828178  21.8657150  47.9160728  85.8025055
  21.4508076  48.2720451  85.0167770  22.5223866  47.3040199  85.4702377
  73.8992538  23.7315464  69.9160538  74.7031097  23.7285042  70.4357071
  73.6186905  24.6467037  69.9142380  23.0903625  54.5979462  53.1955299
  22.3189240  55.1099625  52.9527168  23.4925232  55.0941925  53.9084358
   5.5048833  56.7545891  63.9673920   5.5010180  56.4177094  64.8633423
   4.9864516  56.1212082  63.4711189  45.3738136  42.4658432  61.3143234
  44.8394508  41.6991959  61.1071053  44.8288116  43.2121735  61.0649300
  81.5994339  10.5448122  51.7426643  81.3250580  10.0894003  52.5386238
  82.5479584  10.4203272  51.7103729  52.7747650  33.4911575  70.7594223
  53.1633530  32.7193489  70.3476715  53.2485085  34.2302513  70.3779221
   6.1286769  15.7353191  57.5880585   5.2301426  16.0126476  57.7668266
   6.2956495  15.0396872  58.2240219  18.9789982  47.7580986  25.7176247
  18.4897022  48.5801048  25.7512321  18.6450195  47.3122177  24.9392414
  30.1656303  13.1481724  85.6046829  31.0831299  12.9019785  85.7222214
  30.1158752  13.4630880  84.7021408   3.6948359  42.4891701  14.2826576
   3.1863189  43.2495117  14.0006571   3.8927407  42.6614227  15.2031984
  58.7465096  52.9306564  20.0338345  59.3367615  53.6833496  20.0696907
  58.0354080  53.1551132  20.6339893  80.1562042  29.9525986  86.3953629
  80.1256104  29.8751678  87.3489380  79.3570023  30.4277439  86.1678848
  81.5844650  12.7362604  81.2591858  81.6076508  12.6568298  82.2127991
  82.1625519  12.0402517  80.9467468  63.4180679  17.8387928  39.5340767
  62.6891174  18.3418999  39.1711082  63.9018402  17.5310631  38.7675934
  10.2940235  64.3917465  37.1986389   9.6965084  64.8918762  37.7545891
  10.3348637  63.5273476  37.6077576  61.8260231  41.4797363  41.2398453
  61.9355049  41.0816231  40.3762741  61.1043968  40.9931068  41.6381836
  48.5406837  11.5849648  72.5879211  48.0033607  12.3764763  72.6199112
  49.3649292  11.8380642  73.0036087  61.4390831   3.5693233  82.3592300
  61.0181122   2.7805173  82.7009888  61.0462151   3.6954231  81.4955292
  86.2919083  50.5373421  21.6715355  86.8650970  51.0524483  22.2392960
  86.0538025  49.7752647  22.1995258  40.9085426  32.0196648  19.7400150
  40.0991669  31.9112320  20.2394009  41.1849709  31.1264744  19.5350075
  29.7339363   4.3791227  79.1721115  29.8444538   3.9862309  78.3062897
  29.8139877   5.3207359  79.0198364  57.2712097  28.0177231  68.6510315
  57.5478439  27.5286312  69.4259491  57.4483681  28.9326839  68.8694153
  10.1761456  56.6261597  12.3313189  10.3637466  56.0820808  11.5664558
  10.6848345  56.2290878  13.0382833  50.4902039  13.5486879  29.2846832
  50.4675598  13.0165958  28.4893246  50.6392937  12.9189539  29.9899769
  57.1464462  64.3550110  80.1493912  57.1699638  64.8194122  80.9860611
  56.2324677  64.0890503  80.0486908  38.4214859  43.2777214   9.7352076
  38.9589653  43.4677963   8.9663010  39.0409088  43.2720108  10.4649458
  25.0549545   2.7048538  58.6721649  25.9126053   3.1278262  58.7141228
  25.2172012   1.8055785  58.9571419  79.1882477  50.9510307  32.8553619
  79.1483307  51.5101509  32.0794640  78.3455734  51.0834770  33.2896347
   9.2934570  47.8006439  74.1001968  10.2456036  47.8882484  74.1446304
   8.9602861  48.6252022  74.4542160  44.3671455  56.6084061  33.6310768
  43.6927834  56.4482574  34.2912445  45.1891441  56.6001320  34.1214638
   3.6567585   7.0599675  53.8308983   4.5652857   6.9762053  53.5414276
   3.1805737   7.3371029  53.0481606  20.4222088  11.6270285  86.2439270
  20.3840523  12.0125160  87.1192474  19.5172024  11.3828487  86.0500946
  73.9867096  67.5166473  59.5320206  73.8575363  68.4585266  59.6434250
  74.8589401  67.3505707  59.8896027  82.7041550  60.3750648   7.4071374
  82.6263199  60.7175064   6.5166831  83.2219772  61.0322685   7.8720798
  17.9013958  46.1822891  84.8103638  18.6654930  46.3051414  85.3736572
  17.4739285  47.0386238  84.7964478  15.3389530   4.6905670  12.5161591
  15.6685390   5.1471543  13.2901955  14.4682360   5.0611553  12.3721209
  51.9599457  55.8197937  20.2463760  51.3290291  56.5220184  20.4046631
  52.7602654  56.2723808  19.9801350  48.5974960  13.0646048   7.4230609
  49.4336319  12.9374056   6.9748101  48.7426033  13.8218422   7.9903069
  74.3561783  41.1714973  81.9901123  74.3134689  41.9792213  81.4782715
  74.7227707  41.4407501  82.8323364  55.0571327  27.7983265  37.0863380
  55.0447884  26.9093990  37.4411430  54.3528709  27.8072872  36.4381294
  13.1246214  36.4203224  29.8611259  13.3964415  36.3106804  28.9499054
  13.8494244  36.8913460  30.2722588  85.8276825  21.6103058  31.9965496
  86.2858429  21.2712879  32.7655678  86.1021500  22.5254631  31.9383526
  82.9005585  47.2567825  67.1233902  83.5148773  47.1946716  67.8548203
  83.4228897  47.0353279  66.3524475  63.9334564  10.6634998  33.2000999
  63.2876129   9.9576454  33.1702690  63.4110641  11.4645777  33.2402687
  81.3530045  64.3020859  53.5409508  81.2278366  64.3029404  52.5919724
  80.6400681  64.8452072  53.8770599  46.4173927  62.5318451  56.4413185
  45.9458885  62.3565178  55.6269646  47.1078033  63.1457443  56.1909332
  54.6577682  20.5786972  62.3819122  54.2010384  21.3125858  62.7930527
  54.7194252  19.9181290  63.0718994  62.5642052  18.3011589  80.0494766
  61.6616135  18.5159283  80.2849197  63.0615768  18.4405022  80.8553467
  53.8118896  29.1475563  22.6817856  54.3940735  29.6627579  23.2402306
  53.9859734  28.2390671  22.9279041  21.8858051  38.6280403  79.8148117
  21.5832043  39.1934929  79.1042328  22.4333668  37.9725571  79.3826675
  59.6011086  58.6908875  30.0487022  59.3392334  58.0080109  30.6662216
  60.1532211  58.2382889  29.4110813  28.0976143  51.2887344  21.4954929
  27.5312996  51.7684708  20.8910351  28.9858646  51.4801140  21.1944695
  26.4217796  56.8816032  56.9348030  25.9395485  56.1661644  57.3493271
  27.1048775  57.1074295  57.5661621   6.8933783  43.3835373  26.5351429
   6.6004415  43.8732262  25.7666206   6.1875596  43.4931717  27.1723499
  69.3840561  12.0797510  20.0993462  69.2425995  12.9565907  19.7424507
  69.8822937  12.2259665  20.9034710  33.5233345  27.9344921  13.6782789
  34.4086418  28.0591831  14.0202055  33.4377747  26.9867420  13.5749283
  59.4715652   0.8389380  86.1420517  59.9921913   0.4549407  86.8475494
  59.9766235   1.6013150  85.8593292  43.4999657  35.6220055  43.8746109
  44.1219940  35.7770424  44.5854416  42.7940674  36.2487602  44.0331039
  47.2130699  34.1753464  53.7909317  46.9075508  34.4370537  52.9223709
  47.2609940  33.2202148  53.7502365  66.5467072  68.8358841  54.3339081
  66.6602707  69.7710648  54.5035286  66.4781036  68.4413681  55.2033234
  54.1094284  58.1845398  25.2992516  53.4527855  58.7535019  25.7009201
  53.8575630  58.1421700  24.3767548  49.3691101  57.3934288  80.1192322
  49.2327881  57.2037468  81.0474930  50.3055115  57.2512970  79.9807281
  25.4762268  12.7849569  68.1645737  25.3836174  12.2637920  67.3670502
  25.9588051  12.2182102  68.7663651  74.1575317  30.7090073  11.4919195
  74.7931290  31.3181210  11.1161137  74.2043152  29.9363823  10.9288082
   0.2311461  52.7656059  81.0572586   0.6813473  53.3518867  81.6653900
   0.6447136  52.9350052  80.2107925  77.9644165  22.4763813  16.5100060
  78.2415771  23.3463268  16.2225857  77.0221405  22.4577656  16.3426704
  24.1810436  35.1743050  19.4142628  23.3075962  35.1151428  19.0271950
  24.6166039  35.8671532  18.9177895  83.7733154  49.1716805  48.8642807
  83.4214630  48.6808052  48.1216660  84.6800308  49.3577461  48.6204033
  63.8475685  38.8238182   7.4121246  63.4182510  39.6280823   7.7037997
  64.3314896  39.0816231   6.6275306  56.1134338   3.9039786   6.7552385
  55.6636162   4.7163572   6.5229936  55.7001839   3.2364156   6.2076826
   3.5885112   0.9786789  56.8757935   4.4927702   1.1712859  57.1236839
   3.1925476   1.8375236  56.7280426   0.2990379  35.4711761  81.7470779
   0.2456586  35.3487053  82.6949081   0.5291619  34.6067390  81.4064636
  75.7261887  44.1291161  68.1264954  75.0610123  44.6037865  67.6280365
  76.0982971  43.5090370  67.4993820  54.9660454  26.6117210  22.7549438
  55.7695198  26.1278362  22.9460392  54.2645340  25.9753876  22.8934841
  60.2156448  49.7592773  57.0474892  60.7476921  49.2836952  57.6854362
  60.7735100  50.4829636  56.7623558  61.6094666  27.2760239  75.0416794
  62.0529900  28.0471306  74.6882477  60.8130493  27.6215782  75.4448471
   4.5608964  49.8851624  46.3708038   5.2698665  49.6269226  45.7818146
   3.7675989  49.5524521  45.9510231  27.8972759  57.9980125  58.9226303
  27.2870140  58.7343941  58.8831406  28.6367092  58.3268852  59.4338188
  81.3630524   5.2513065  84.3249054  80.4496384   5.3349700  84.0512161
  81.3905334   5.6525531  85.1935120   6.7482696  64.6013031   5.9347696
   5.8542995  64.2896118   5.7937016   7.1889429  64.4514847   5.0983524
  52.0934143  15.8743210  13.2423849  52.1489296  16.7301903  13.6674013
  51.3832054  15.4249878  13.7005720  70.7565994  24.8508892  43.5851669
  70.0463028  24.6209164  42.9861488  70.3231049  24.9962578  44.4261093
   7.9193320   5.9297767  38.2850838   7.7456779   5.5598550  39.1506691
   8.8097506   6.2756047  38.3466530  72.5442810  15.8292637  87.5541382
  72.7568359  16.4186230  86.8304596  72.7607956  14.9571629  87.2242966
   3.9922674  36.7738533  15.2455978   3.5187523  37.5977364  15.3606234
   3.3237889  36.0967827  15.3502054  37.3345184  59.7710762  47.1942253
  37.4458504  59.2697029  46.3864708  36.3944550  59.9453964  47.2402802
  64.6152954  68.8708572  25.4840412  64.1614685  68.9973373  26.3172722
  65.5438232  68.9504395  25.7025471   7.2348022  43.4208717  40.0059242
   6.5519814  43.8964310  39.5328178   7.2941442  43.8653183  40.8516083
  64.6223526  13.5912409  78.8195343  64.9886780  14.4432220  79.0565186
  64.9436111  12.9956989  79.4965515  58.9777374  13.1637974  35.3475952
  58.9124489  12.5951109  34.5804138  58.4093208  12.7531986  35.9991684
  25.0829468  25.1058369  83.5175171  25.2213516  25.9340382  83.9770432
  24.8216896  24.4918804  84.2038422   0.7961381  32.0562973  74.8602982
   0.1896057  32.7928085  74.7834625   1.5709642  32.3320084  74.3705444
   6.9791002   5.0523353  41.5255966   6.5042624   4.3398514  41.9535332
   6.4526162   5.8317332  41.7033195  51.1684799  30.4246902  85.3505707
  50.7307587  31.2288303  85.0713043  51.8900757  30.3171806  84.7309189
  34.6389236  70.4773331  66.6264572  35.5162239  70.7914276  66.4075470
  34.5982018  70.5267868  67.5815125  18.4179745  54.4704170  63.7403755
  19.3640690  54.5171547  63.8780479  18.3217239  54.1092606  62.8591652
  16.9898148  35.5223656   9.9671583  16.7837982  34.7383881  10.4762421
  16.6009655  36.2408676  10.4659386   4.0897007  44.9617271  39.7696342
   3.5657451  44.3167229  39.2945862   3.4895020  45.6912994  39.9236412
  74.9188614  46.2661018   7.0277381  75.5906830  45.9366684   6.4307790
  74.3149033  45.5316353   7.1374083  65.2257233  44.7407951  55.9908638
  65.4778290  45.6632957  56.0316315  65.7441101  44.3202820  56.6769180
   2.7612026  64.8226471  29.4174309   3.4985912  64.2142639  29.3688736
   3.0633790  65.6028519  28.9524460   0.4057757  34.7061844  84.2661438
  -0.0702398  34.3409538  85.0119705   1.3287773  34.5795937  84.4858627
  62.0376472  30.6328411  76.7795258  62.2381020  31.2609634  77.4734344
  62.0297050  29.7832794  77.2204514  33.7022209  36.9267197  73.5904083
  33.7020531  37.7822037  74.0197983  34.2283325  37.0550003  72.8011169
   2.2460515  58.1711807  37.5527191   2.2838776  57.2483559  37.3013229
   3.1354566  58.3778305  37.8399200  67.2420578  27.6932049  48.9463387
  66.8378448  28.2295914  49.6283455  68.1719208  27.6783524  49.1729813
  14.5191717   2.0062301  19.3980274  14.1505041   2.7379098  19.8929615
  14.1099596   1.2291692  19.7787552  57.7541618  27.3480625  63.9194412
  58.3635445  26.6120872  63.9762459  57.1902237  27.2518673  64.6868744
  31.8941059  39.8268051  35.4291611  32.4872169  39.3413734  34.8557472
  31.8074207  39.2749825  36.2064705   8.1299400  39.5322838  46.8537979
   8.2981176  39.2036591  47.7369499   7.3257465  39.0896034  46.5826225
  31.3207016  46.6007118  30.9102669  30.3974705  46.6202888  31.1622505
  31.7214031  47.3095474  31.4134808  70.9964447   0.7362444  20.8663616
  70.9409866   1.6760886  21.0391312  70.6713181   0.3258242  21.6676617
  80.4393463  40.1566811   0.4983759  80.1968307  40.9331970   1.0028030
  79.6216583  39.6684036   0.4024183   3.4528906  32.7152290  39.0698318
   2.6349065  33.0412865  39.4450951   4.1039934  32.8539505  39.7576218
   4.6314168  63.1044655  13.7742233   3.7339075  63.0483742  13.4462566
   4.7219858  64.0101318  14.0705194  80.1205139  67.8676987  52.3511848
  80.9878998  67.8809891  52.7557793  79.7271118  67.0496063  52.6548119
  58.4789124  52.2719345  57.9562531  59.0227242  51.7545204  57.3622971
  57.7418251  51.6986809  58.1667633  14.2023220  18.5030651  19.7104454
  15.0038958  18.7810249  19.2672195  13.5933275  18.3015862  18.9999771
  70.1720047   1.8559873  49.3114243  70.9201202   1.2616905  49.3694534
  69.5195389   1.3710767  48.8060646  16.8834438  59.9761200  15.9877186
  17.6716099  59.4419556  16.0861835  16.2961464  59.6657982  16.6769295
  50.5644531  29.0562534  31.6670723  50.1903648  29.6513119  31.0173073
  49.8562317  28.4441719  31.8671036  54.3299789  56.6842651  38.0298195
  53.5585938  56.2701454  37.6429138  54.0318260  57.5584335  38.2811546
  27.5802746  25.6664257  88.7978516  26.8553581  26.1602974  88.4146805
  27.2252369  25.3143559  89.6140823  56.3647194  27.2907677  29.3786201
  55.7495270  27.0048752  28.7033157  57.2170372  27.2876415  28.9429855
   2.1467030  11.6303606  76.1674957   2.7702830  11.3273726  75.5075150
   1.8152096  10.8277254  76.5701447  27.6359406  12.7600584  77.3685455
  27.6471348  13.6867771  77.6079178  27.3096504  12.7490320  76.4687424
  44.8646584  15.6580362  12.0166864  44.6209946  15.0418930  11.3258715
  44.6524849  16.5187874  11.6556845   5.2179818  70.8512802  22.6238842
   4.7338953  70.4173279  21.9213295   4.5764589  71.4314194  23.0339050
  60.6510849   5.9913864  67.7262192  60.8946609   6.8947411  67.9283371
  59.7222519   5.9377041  67.9512100  28.8827763  11.5038929  72.5420609
  29.4958668  12.0416918  72.0409393  28.6195927  12.0605316  73.2749481
  25.3641987  11.9189463  65.2497940  26.0089512  11.9243240  64.5423355
  24.5198784  11.8518476  64.8038635  35.0061798  51.2939377   1.9704316
  35.4450073  51.6058807   1.1790080  35.7135124  51.1692772   2.6031799
  78.0858002  52.8741264  25.0114613  77.7188339  53.5765457  24.4746456
  78.9095306  53.2315216  25.3430824  78.8539658  58.6800652  22.0125790
  79.1688232  57.8938522  22.4586296  77.9074631  58.5543289  21.9450893
  64.3107452  42.4967346  31.6549416  64.0530396  41.6204720  31.9412746
  63.5934525  43.0626106  31.9404430  30.2127571  23.5392036  78.8025055
  29.7447338  22.8921165  78.2748108  31.1268024  23.2565861  78.7728348
  67.1958313  46.9730415  21.5526257  66.8557816  47.8591728  21.4286499
  66.8856888  46.4882927  20.7877293  13.2983665  66.6748886  15.4323750
  13.8967876  67.4076004  15.5782080  13.3680820  66.1467667  16.2276478
  85.9884491  12.3293524  44.8625793  85.7947540  12.3509827  43.9254303
  86.3928909  11.4733763  45.0038681  64.5927353  21.9764214   3.8010643
  64.9096146  22.1608601   4.6852608  65.3518753  22.1280575   3.2380874
  24.0124664  23.7172031  59.0681648  23.8507099  23.9676304  58.1585770
  24.3887825  22.8389072  59.0114784   6.9430943  34.3828621  58.1267090
   7.5018172  34.4033203  58.9036522   7.3551273  33.7374649  57.5523186
  51.5058479  53.5150185   9.8723230  50.9685020  54.3017426   9.7798004
  52.2874908  53.6960945   9.3503246  56.2881508   5.3391123  70.6801376
  55.8341217   4.5454006  70.9631805  55.6058235   6.0100265  70.6570206
  69.3545837  28.6972008  25.1327152  69.5212021  29.2118740  24.3430443
  68.5766449  28.1807156  24.9222717   0.7515304  53.6592293  88.0045319
   0.5616456  52.8573875  88.4915848   1.5928324  53.9564323  88.3511047
  46.6068306  35.2907372  68.5089188  46.2408600  34.4074287  68.5543900
  47.4980392  35.1642799  68.1833572  60.8516273   3.0409255  78.5285187
  60.5406227   2.1461246  78.3912735  60.2347832   3.4150426  79.1576233
  83.7415161  54.0200005  71.7169647  82.9070892  54.3791046  72.0186234
  83.6900940  53.0871429  71.9252090  66.9272003  -0.1474872  54.3857613
  67.6377487   0.1356859  53.8102875  66.1454239   0.2702366  54.0244255
  71.0827484  55.2761993  61.4704704  70.6275406  55.1021919  60.6466179
  71.6822586  55.9938278  61.2659225  38.2876892  27.2079201  64.7232895
  37.4520111  27.6160755  64.9497452  38.9368591  27.6924229  65.2332611
  40.2794609  61.5417862  11.4885044  39.7213745  61.4751129  12.2633114
  40.6710358  62.4130859  11.5496340  34.7455788  62.8726616  42.5846596
  33.9823303  63.4469376  42.6470528  35.0151253  62.9312782  41.6680679
  16.1014023  68.8751907  85.4820328  15.9708824  67.9283371  85.5335464
  17.0371132  68.9789276  85.3090668  36.8019676  43.0007553  60.1106911
  37.1035652  43.4753876  59.3361015  36.0005074  42.5618324  59.8256569
  66.9274902  56.7768631  38.8708534  66.7547455  57.0185051  37.9609070
  66.4991379  57.4607201  39.3857193   1.8996325  40.2173615  55.9317589
   1.8153735  39.2741966  56.0716476   1.2931064  40.6079330  56.5608940
  29.0411587  42.3923721  14.2218838  28.5539398  41.8781624  13.5781155
  29.6258602  41.7604446  14.6402445   8.1983309  44.8442955   0.9648550
   8.7073746  44.6476059   0.1784590   8.7384176  44.5222588   1.6865402
   2.3761070  12.4116716  21.7395458   1.8899137  13.2071743  21.9563923
   2.8562934  12.1988220  22.5397625  48.6974945  70.7191086  43.9741325
  48.7385521  71.6729126  44.0434761  48.4829216  70.4236526  44.8589478
  15.7209644  61.3261528  77.3273163  14.9852295  61.1385574  77.9101791
  16.0986137  62.1356850  77.6712189  26.0469608  69.0769882  14.3627205
  25.5983772  68.2366486  14.2687082  25.3955250  69.7270126  14.0994091
  60.5947495   6.4115658  59.8137474  60.9963264   6.1628180  60.6462669
  61.3150063   6.3875322  59.1837578  71.0955276  55.3621445  27.1354370
  70.3278885  55.0140305  27.5890617  70.9768448  55.0947800  26.2240295
  39.0134354  36.4650612  12.1098251  39.3516960  35.6944046  11.6538658
  38.1276360  36.2170906  12.3746014  31.3613548   9.2509079   8.2366877
  31.1437244  10.1830101   8.2440071  31.1430893   8.9609404   7.3509607
  44.2669106  42.9079742  73.9528427  44.4684715  43.7912941  74.2616348
  44.9913940  42.3709488  74.2737045  23.3894100  14.3392916  75.3154526
  23.6936779  13.4385805  75.2042236  23.2931633  14.4444265  76.2619858
  51.2545509  37.7013321  29.3191128  51.3559647  37.7947311  30.2663326
  50.3870277  37.3122864  29.2083206  47.5396271   9.0214844  68.3609848
  47.3706360   8.2681742  67.7951279  46.9832764   8.8758535  69.1261673
  53.5870171   0.7360835  78.0078735  52.6993561   0.6561999  78.3570251
  53.6002846   0.1503139  77.2509537  42.8124771  11.5568094   6.6634989
  43.5578003  12.0856771   6.9481502  42.0470657  12.0984278   6.8559208
  33.4066353  53.1528053  51.9797821  33.8787689  52.4052277  52.3464622
  33.4811096  53.8342094  52.6478920  58.0016937  44.3886833   1.0159227
  58.2203522  44.5062828   0.0914815  58.7593193  44.7352715   1.4872116
  52.8753166  50.3749504  50.9412193  52.3240433  50.9755974  51.4427681
  53.1955032  49.7466507  51.5884857   3.8494053  29.3648682  88.2133255
   3.9670994  29.8808517  87.4157410   2.9075067  29.1995277  88.2548141
  32.4860115  54.0786018  63.1784363  32.2766914  53.7266197  62.3132629
  33.3409119  53.7032242  63.3893089  56.7046738  52.8348846   0.8460072
  56.2456017  52.3169441   0.1847785  57.5089912  52.3452187   1.0178648
  71.4319687  48.7136803  35.6119766  72.2972107  49.0084953  35.3279419
  70.8232880  49.3299026  35.2045364  48.2994423  38.8283615  24.5010567
  48.1424980  38.6175728  23.5806389  49.2528801  38.8388672  24.5851593
   6.5257883   5.2300706  50.3434677   6.8448968   4.8023477  51.1381073
   6.7190404   4.6077080  49.6423607  64.0234451  43.9183311  59.5795403
  63.3035507  43.9587479  58.9499779  63.6555595  44.2765198  60.3873711
  53.0287094  62.1650620  86.2212448  52.1330833  62.2334137  85.8904572
  53.1716080  62.9835396  86.6965332  58.2709045  37.1128807   8.6746378
  57.6145020  36.7813225   8.0619097  58.9851151  36.4773293   8.6275873
  64.4884644  36.9869843  85.8634415  64.9219360  36.9646683  86.7165756
  64.9197693  37.7011795  85.3942566  45.4169159   1.6014223  67.7125168
  44.9560547   1.7063181  66.8801498  45.9682121   2.3809240  67.7809448
  38.7675323  41.1073036   0.7266366  39.3834267  40.8431931   0.0431535
  38.5240860  40.2887497   1.1590010  10.6349926  23.4901447  68.2389526
   9.8734751  24.0297451  68.4514465  10.7006416  22.8714619  68.9663849
  44.0873756  10.6392708  61.5875740  44.4477425  11.2339268  62.2454147
  44.2700768  11.0679607  60.7514687   5.2874899  64.0159225  86.6330185
   5.8408942  64.7792435  86.4677124   4.6007242  64.3397141  87.2158966
  85.9828491  62.5379143  25.4004841  86.2543106  63.3865433  25.0506725
  86.7544327  61.9801559  25.3015232  51.4795189  20.6024361  76.8563080
  51.5860367  19.7239723  76.4913559  52.1298485  21.1333160  76.3964462
  45.1824570  39.0959892  40.6030121  45.2487640  38.8541031  39.6792526
  46.0806923  39.3021202  40.8616905  61.0854073  68.7987289  75.5006180
  60.9434319  69.6676941  75.8760757  60.6187401  68.2046661  76.0884476
  24.6231956   9.8310375   4.7619829  25.3871193  10.3780336   4.5790963
  24.7643681   9.5128822   5.6536555  25.5056572  34.6150703  16.4008083
  26.3267746  35.1051903  16.3586311  25.5558281  34.1343536  17.2270184
  61.2552757  48.5130844  40.6834679  60.6954231  48.8448067  41.3854370
  61.9011688  47.9660759  41.1304932  73.1934052  37.2399826  25.0666790
  73.1245499  36.3751717  24.6622200  73.5269928  37.0668106  25.9470005
   7.8820777  19.1126804  15.3536873   7.3689923  19.6622944  14.7613201
   7.9241786  19.6131153  16.1685638  31.3541985  45.8221970   4.2982588
  30.7491894  45.8898315   3.5595970  31.8324738  46.6513252   4.2928166
  49.8272285   0.8254393  72.4395294  50.3834190   0.6801841  73.2048950
  48.9532051   0.5588284  72.7245331  72.7257309  64.5423431  25.0677948
  73.5548859  64.2526016  24.6872807  72.7666321  65.4979858  25.0317516
  40.9264603  53.7279854  74.1404266  41.4263802  54.0491638  73.3899918
  40.0267258  53.6654625  73.8197937  60.6326256  36.2204590  81.1830673
  61.1557579  36.0999374  81.9755554  59.8121262  35.7625961  81.3657684
  25.2477283  23.3236580   1.7517306  25.0696659  23.0361366   2.6471958
  25.3671913  24.2706566   1.8235281  61.3804970  36.2084618  88.6030273
  61.8988495  36.9307899  88.2483597  60.4962730  36.3622093  88.2702484
  63.4028015  20.1816540   8.3096104  63.2006416  20.3628025   7.3917060
  63.2135506  21.0030613   8.7631607  75.4448547  11.4094191  44.3395844
  75.5221634  12.2277384  44.8301048  74.5100021  11.3316898  44.1492157
  58.8323936  27.6035271  35.6509972  58.7197723  28.4925060  35.9875450
  59.7474213  27.3916759  35.8355789  69.4872742  56.8524017  22.5647068
  69.0362320  57.1093903  23.3689175  70.2403183  57.4410973  22.5138493
  14.6808987  26.5164928  85.4994965  14.8702908  25.9206581  86.2243042
  13.7406597  26.4191227  85.3488312  40.8644867  52.4459305  32.4463806
  40.0021172  52.0610161  32.2901993  41.1925430  52.6608582  31.5732155
  66.3017273   2.8472016  48.5919838  67.0573883   3.1132553  48.0681343
  65.5464096   3.0312650  48.0335541  61.6368217  57.5946350  23.9812222
  62.5756989  57.6843758  23.8178501  61.4720078  58.1506310  24.7427578
  34.4699669  25.0338383  71.1225128  33.9013672  24.8281746  71.8645554
  35.3184624  24.6598797  71.3600769  31.4328003  50.0626640  50.0524750
  30.4902287  49.9922028  50.2035522  31.8045101  49.3021851  50.4993973
  66.7736511  18.2814579  86.3387299  66.6171417  19.2020607  86.1284256
  66.1435242  17.8023548  85.8005524   6.8635106  38.8118477  52.4038124
   6.2243590  38.6497421  51.7099533   7.3719645  39.5601006  52.0910492
  80.8569946  56.6116676  75.7721939  80.5241165  55.7481689  75.5276718
  80.2104568  56.9511757  76.3910217  15.1576519  69.0922623  48.5612183
  14.9785595  68.2596970  48.1241875  14.8197756  68.9742889  49.4490013
  77.0727615  11.1467495  59.1346207  76.6108627  11.9757309  59.2597961
  76.4442444  10.5892496  58.6759338  55.9134560  23.9158516   4.1927104
  56.4892769  23.2282791   3.8581884  55.0465775  23.5107689   4.2184649
  10.9250135   3.4990010  19.1873398  10.9566250   3.4683862  18.2311516
  10.9879951   2.5831778  19.4585094  56.3565598  47.7395248  48.8240547
  56.9891014  47.8711090  48.1177902  56.6216354  46.9154434  49.2325325
   1.2843158  64.3441696  48.9100761   1.1379361  65.2813034  49.0388260
   0.9708151  63.9394417  49.7188683  15.7338009  40.2723236  59.3366394
  16.2650852  40.4646492  60.1092834  15.9662066  40.9572144  58.7096291
  53.0666580  17.9253807  33.1912689  54.0127220  18.0498791  33.1158066
  52.9628334  17.3156929  33.9218369  63.5900116  15.9304724  24.4798470
  62.7125969  15.5496473  24.5165863  64.1754761  15.1766348  24.4077854
  50.4673920  62.9864159  69.8718262  49.6876106  62.4793549  69.6458588
  50.7808075  63.3295021  69.0349884  62.0226097  56.6455574  82.7432480
  62.1336479  56.2646294  83.6143341  62.9106255  56.6980743  82.3898315
  64.9669724  45.8094788  85.0455170  64.7430191  45.0360603  85.5631180
  64.1465454  46.2978210  84.9773178  75.3310776  21.7673531   6.3282762
  76.1925125  21.4027748   6.5313511  75.1974182  21.5646420   5.4023848
  45.4794579  21.5706234  77.2630997  44.9548302  20.8880291  76.8446884
  46.2680969  21.1175194  77.5613861  59.6186218  44.8845749  61.0882378
  59.3549461  45.7915459  60.9329529  58.8105965  44.4410820  61.3463860
  31.2819405  54.3147774  11.1590118  30.4893932  53.7899895  11.2717047
  31.0049400  55.0536156  10.6171465  64.2265015  15.7081079   4.4799242
  63.6462593  15.1249475   3.9905646  63.7940369  16.5613060   4.4444594
  74.6391983  58.2204819  88.8205566  74.4017487  58.8263435  89.5225372
  73.8169632  57.7889519  88.5882874  45.1500244  62.4794388  79.4740677
  45.7692566  62.0593796  78.8771286  45.6641312  63.1552620  79.9158707
  86.1064758  29.2401428  60.5768471  86.8193665  28.7246799  60.1996078
  85.4757385  28.5884972  60.8830452   3.1492395   3.5124843  66.9699631
   4.0849876   3.6569495  66.8294754   2.9843144   2.6418304  66.6080322
   6.6421123  13.4339447  66.8171234   6.2745404  13.9795227  67.5124435
   6.3537831  13.8529272  66.0062256  43.4256935  47.2699890  71.8826294
  42.5544891  46.8751183  71.9188766  43.4781914  47.8073082  72.6730499
  47.5967064   7.8598547  63.0935135  48.0019875   8.0222435  63.9453392
  47.3346634   8.7268181  62.7837715  51.5408554  39.6185760  80.7480850
  51.2974129  40.5423279  80.6877060  52.2965584  39.6079369  81.3354797
  63.1579857  44.0641403  22.0335350  63.2790184  43.8108749  21.1184177
  62.2146530  43.9923859  22.1791534  24.3978100  38.0224075  63.0208893
  24.8951435  38.8391533  62.9782143  23.7474861  38.1012383  62.3229637
  73.5819778  49.2945709  75.3564072  73.6632004  50.2206116  75.5846252
  73.3196869  48.8688545  76.1726227  49.3102341  36.4746780  60.0925636
  48.7265244  36.4369812  60.8502541  48.7423019  36.2942123  59.3434868
  70.5998535  61.9102325  59.9157715  70.2996140  61.7586288  60.8119316
  71.2370605  62.6202736  59.9935493  23.4405632  29.0335178  84.2708969
  22.7200890  28.5328960  83.8881073  24.1163731  29.0371876  83.5930328
  59.2138557  25.3157864   6.0699773  59.9981194  25.5160637   6.5809078
  58.7156258  26.1330872   6.0656638  31.1183319  48.9569244  34.6476364
  31.0199661  48.3106537  35.3468475  30.4976578  49.6499100  34.8729515
  72.9152145  38.5760117  22.6649036  72.1751862  39.1657753  22.8089924
  73.0669327  38.1692276  23.5179825  24.6598797  34.3326721  22.3351688
  24.6217251  34.7482262  23.1966152  24.0524178  34.8404198  21.7971954
  15.4712639  18.4428062  66.9147034  15.4284267  19.2216129  67.4695587
  15.2118912  18.7524242  66.0468979   1.0818145  23.1996765  64.5215530
   0.6829931  23.9283257  64.0459061   0.5797432  22.4318810  64.2483368
  79.5896912  69.3352432  23.8167648  78.9424820  69.9720993  24.1196918
  79.4502487  68.5689163  24.3731194  41.4467964  19.7195244  12.6059103
  41.9831581  20.5109501  12.5590572  40.6124611  19.9718704  12.2103853
  39.4761009  69.6582718  36.0399551  38.5384216  69.8028336  36.1668015
  39.6134758  69.7869415  35.1014404  72.8047867  57.5007210  64.9596405
  72.9741440  58.2283669  65.5580444  72.7409668  56.7331352  65.5279465
  19.9221268   1.6801360  64.0359879  18.9935665   1.8964504  64.1209259
  20.3683300   2.5266638  64.0589294  78.3890152  69.2769089  44.8413734
  79.1715240  69.5967255  45.2904053  77.7719040  69.0803757  45.5461998
  30.6363449  33.3232079  84.7063293  31.2896137  33.0508957  85.3507843
  30.3210430  34.1681061  85.0272141  69.7972107   2.1713445  40.1595001
  69.2727585   2.9686193  40.0850754  69.8542938   2.0092430  41.1011467
  17.0487213  50.2303772  14.2445593  16.8794708  49.2882576  14.2431240
  16.7409267  50.5277138  15.1007633  50.4004593  40.9642029  60.3414268
  49.5686264  40.8723526  60.8060188  50.6660919  41.8695793  60.5025558
  38.9818878  10.8605528  83.7556458  39.3856888  10.0326157  83.4954605
  38.9091301  11.3579550  82.9410706  33.9895821  33.1663132  85.5657806
  34.0834541  32.8668709  84.6614838  34.6664200  33.8353958  85.6680145
  55.5197372  66.9482956  10.8809862  56.4678764  67.0153809  10.9939594
  55.3629570  67.2522354   9.9869671   4.1760216  11.3621893  38.2789612
   3.2887528  11.0172644  38.1788979   4.1457119  12.2248411  37.8652649
  60.4333611  31.7398777  55.2546310  60.4302902  32.4756851  54.6424141
  60.8042374  31.0132504  54.7539368  53.7589455  19.1868439  28.0222969
  54.5262184  19.0161171  28.5685387  53.0773239  19.4478149  28.6415863
  42.7612991  56.0501633  35.5429306  42.2713165  56.6386642  36.1172295
  42.7965622  55.2223091  36.0221443  78.3890381  29.8297043  36.6156921
  79.2445755  29.8674030  37.0433350  77.7605209  29.9627609  37.3252602
  40.7635765  28.6553154  76.8313980  41.0914421  28.4994259  75.9457169
  39.8609200  28.9475231  76.7046738  73.0138397  40.4044342  19.6566544
  72.7201080  40.8848953  20.4306793  72.4348068  39.6434784  19.6130791
  66.3683548   6.4673700  32.1027908  67.0602036   6.2826209  31.4676151
  66.0586014   7.3430700  31.8716335   6.2223911  44.3320274  77.5600815
   5.3026509  44.1800690  77.7773819   6.7045946  43.7249489  78.1214828
  72.1273270  11.4186802  47.4192047  72.7648621  10.7795343  47.1009598
  71.4702377  11.4676657  46.7248955  55.8795280  17.9282398  32.8525772
  56.3604355  17.3190651  32.2923431  56.5466232  18.5336456  33.1761475
  68.8814392  17.1277218   2.2048821  68.1612091  16.9665318   2.8144069
  68.5623932  17.8293648   1.6373090  31.6409836  39.5890503  66.5210342
  32.3913345  39.6891289  65.9352112  30.8804207  39.7724991  65.9695587
  21.4360523  31.7401161  64.8346786  21.3294163  32.2849426  64.0549164
  21.9156990  32.2943230  65.4503326  76.9047699   6.8385901  17.7253494
  76.7066956   7.6341214  18.2194443  77.4563828   7.1368947  17.0021877
  78.6397552   9.5246296  40.4200859  79.3780060  10.1265154  40.3254776
  77.9094772  10.0817833  40.6893501  21.7971821  13.2855482  84.6693878
  21.2460251  12.8552465  85.3230667  21.3511620  13.1260576  83.8376007
  21.4782295  37.6923866  86.6703415  21.9893074  38.2617645  86.0951462
  21.9821854  36.8796730  86.7122040  60.3229637  70.1170425  44.7791367
  59.6535645  69.4334793  44.8089027  61.1497650  69.6397400  44.7097740
  77.1711960  28.5101643  34.6854591  77.5768204  28.9898109  35.4077110
  76.5168076  27.9523468  35.1059914  73.5256424  22.0222454  17.1678600
  72.8306961  21.5110340  17.5825157  73.6087723  22.8024368  17.7161522
  77.8885651  36.2345428  65.3762360  77.8088303  37.1399002  65.6765747
  77.7603683  35.7082291  66.1654129  10.8211994  34.6537666   1.7131177
  10.5732918  35.0037498   0.8573813  10.1811113  33.9628563   1.8838905
   3.5922995  48.5134010  53.9900970   3.9732506  48.4965439  53.1121330
   2.6785729  48.2598000  53.8596268  15.8492661  30.9227333  70.8926620
  15.4969978  31.8116093  70.9378204  16.6481915  30.9546967  71.4188995
  69.1535950  32.3850479  78.1643906  68.7385483  33.0966454  78.6518250
  69.4052658  31.7502155  78.8351212   2.5841784  18.9418964  31.9545517
   1.6618901  18.6999989  31.8702812   2.6540804  19.7814465  31.5001259
  53.1120377  38.3636284  27.2323952  53.5976677  39.1853065  27.3047981
  52.7523918  38.2200356  28.1077614  82.8786850  67.5752563  53.5477371
  83.4890442  68.2318726  53.2122498  83.1293030  66.7657318  53.1026497
  56.9899712  45.5798187  39.6134682  56.9179001  44.6904335  39.9599190
  56.3066368  45.6326752  38.9452667  60.3757668  15.4224014   6.0735550
  60.6083565  16.3500004   6.1147351  61.2002716  14.9616165   6.2288079
  34.4809952   7.4797750  66.5953674  34.7285118   8.2048683  67.1691360
  34.1556015   7.9032521  65.8010025  84.3243637  25.4168835  58.2613411
  84.5501175  24.5254002  57.9957771  85.0890503  25.9395943  58.0199738
  12.6836939  48.7872925   3.0945044  12.7724552  48.6791000   4.0414190
  13.5709038  48.6679955   2.7555954  72.8792343  31.0817528  22.5801125
  72.3417511  31.5972500  23.1814518  72.7349396  31.4850998  21.7241211
  34.5633774  68.9810104  22.4584293  34.8078194  69.8778915  22.2302017
  35.2170181  68.7114334  23.1036549  51.9241791  24.5923481  70.7873840
  51.1125069  24.5365677  70.2830887  52.1835670  23.6813412  70.9252777
  19.4975204  34.7807159   1.1623194  18.7730255  35.4033241   1.2231334
  20.2758274  35.2979164   1.3696271  73.5290909  28.1678772   9.6821499
  74.4451981  28.0616741   9.4258366  73.0315094  27.8171501   8.9434786
  64.2230911  45.3673439  49.5514984  65.0374451  44.8746567  49.6530838
  63.7380753  45.1975060  50.3590546   1.3865976   8.2237349  86.3383179
   1.9549762   8.3264885  87.1016159   1.3973764   9.0818834  85.9144135
  43.1275253  46.4185944  26.9473419  43.6221466  47.0768509  26.4592037
  43.7206001  45.6697235  27.0080967  65.8324661  21.3114872  37.2880554
  65.7066879  22.1368694  36.8199196  66.7116470  21.3789463  37.6605034
  21.9604378  59.6087074  16.9763336  21.4294529  59.4641991  17.7595367
  22.8241234  59.8471069  17.3131485  14.6956987  69.9659500  27.5587559
  14.1635303  70.6423950  27.9776173  15.1829739  69.5647736  28.2783775
  71.2731705  64.7730637  82.6210785  70.7320328  64.0385895  82.3313446
  72.1724930  64.4823837  82.4695511  37.7455330  21.2844715   9.5633202
  37.1338654  21.6409798  10.2075224  38.5908279  21.6672821   9.7981911
  79.0110397  50.8313408  78.6357574  79.7473297  51.4038162  78.8511200
  79.1019516  50.6670418  77.6971588  86.1475677  12.6755419  21.2710476
  85.8862228  13.0856094  20.4465618  86.4381866  13.4042692  21.8194332
  70.7752838  59.5664139  28.2135658  70.0145645  59.7281418  28.7715816
  70.4951172  59.8422394  27.3408337  76.7414474  63.8575516  75.0494537
  76.5506439  64.5773544  75.6508713  76.4901123  63.0696907  75.5314636
  74.5335846  34.8632469  72.2754974  74.8574524  34.2442856  72.9298935
  74.1313171  34.3128090  71.6036072  79.7461166  49.8515129  20.2961617
  79.3629456  49.8020210  19.4203949  80.6411667  49.5311432  20.1844444
  82.5232010  61.5396957  53.3463974  82.0157394  61.2373466  54.0995903
  82.2112732  62.4309654  53.1896324  30.2704258  67.5942230   6.9388461
  30.0136814  67.1098099   6.1542072  31.1307755  67.9559097   6.7262177
  50.3074341  27.9510708  61.1165543  50.6022949  28.8236618  60.8560295
  50.9017601  27.6984558  61.8230934  33.7247162  37.0824814  80.7356110
  33.2810783  36.3164711  81.0998154  33.0240135  37.7179146  80.5890732
  75.0350494  56.0312653  47.9764862  74.4604797  56.1618500  48.7308388
  75.8927994  56.3352699  48.2732658  76.1502762  52.9485435  82.5688171
  75.5170670  52.9378548  81.8510666  76.9872208  53.1429558  82.1469727
   3.9037993  31.1590118  11.9708204   4.3233027  30.8913975  12.7885189
   4.3548584  30.6544571  11.2939129  54.6940880  45.2973747  34.1465378
  53.8686104  45.7522392  34.3136215  55.3077583  45.9933624  33.9114990
  70.4657135  44.0725250  71.4038925  71.2873001  44.2811890  71.8485107
  70.5767288  43.1693306  71.1069946  14.8515930  21.5302334  60.4301300
  14.7156744  22.4777336  60.4303169  14.0019569  21.1664371  60.1811256
   9.4170017  13.7201777  68.2034531   8.7031918  13.2284031  67.7974167
  10.1540842  13.6128654  67.6022644  21.1572552  57.4037819  11.1404324
  21.7551746  57.1282730  11.8352833  21.3030682  58.3462753  11.0587168
  13.7049437  20.3492203  12.6943846  13.9605608  19.4271049  12.6699791
  14.0610647  20.6746845  13.5211153  26.6464100  67.4938889  48.7646179
  26.0081921  67.2500534  49.4350319  26.6345119  68.4510040  48.7594376
  44.5745239  38.5193787  50.9746628  45.5252151  38.4102020  50.9969406
  44.2290459  37.6607323  51.2188072  73.3904266  39.0846558  16.6432438
  73.6547775  39.2677078  15.7416649  74.2148209  38.9702339  17.1160164
  17.8068275  29.8974724  74.8573914  18.4952316  30.3873825  75.3071976
  17.8629799  29.0147228  75.2232208  68.5682831   3.3322475  26.2986221
  68.1620636   4.1153550  25.9271908  68.0472260   3.1388321  27.0779305
  53.0739174  36.3047028  83.3572693  53.1920052  37.2545815  83.3537827
  52.2228813  36.1676140  82.9411316  67.6089859  47.4934120  53.7317543
  67.2195511  46.6239853  53.8248405  67.4231949  47.7434196  52.8266525
  78.8396301  18.6706638   0.4004868  78.3676453  18.0283909   0.9305306
  79.7622986  18.5177269   0.6042471  62.6765404  31.7404613  24.5497360
  62.5542297  32.5306282  25.0759544  63.1656342  31.1466923  25.1193447
   2.8534448  53.1148682  44.0768890   2.8782439  54.0705261  44.0285721
   2.3320072  52.9279709  44.8575325  54.9188347  31.8061867  63.8933525
  55.3999290  31.6937389  63.0735130  55.4895515  31.4244270  64.5602646
  53.3674736  33.7677841  62.9486961  53.4278793  33.1906281  63.7099266
  53.9244537  33.3537903  62.2894402  66.6907349  62.4300385   5.2163167
  65.9975128  62.5991325   4.5782886  66.7700424  61.4763489   5.2367234
  10.6174526  70.5519867  14.5169077  10.0905046  69.8026123  14.2394094
  10.6379061  70.4899063  15.4718733  13.9024315  26.6756096  24.2600880
  13.1383324  26.6901302  24.8364334  14.0085344  27.5847645  23.9800663
  60.3695679   2.6453273  42.0805397  60.4882278   2.4049938  41.1616325
  59.7203636   2.0232742  42.4088936  64.7200546  58.5448189  19.6756821
  65.4398499  58.3601074  20.2790146  63.9290504  58.3913002  20.1923847
   3.4921091  69.8209305  64.8517532   4.3350921  69.4729233  65.1424408
   3.5921354  69.9322891  63.9063263  14.2493849  19.8390694  53.4602013
  14.6547165  20.7058830  53.4841042  14.1166487  19.6112785  54.3803787
  51.6672897  52.4356689  73.3727341  51.2829361  52.1099091  74.1865997
  51.1636887  53.2236786  73.1686249   6.3127465  37.2865982  11.6013680
   6.7300291  37.2878075  12.4628239   6.7446241  37.9957047  11.1250429
  75.8602753   1.7098960  79.6705246  75.7600403   1.3350070  78.7955093
  75.7870331   0.9607814  80.2618713  47.7795830  35.7238960  82.0208511
  48.2202873  36.5051651  81.6867447  48.4919548  35.1326065  82.2640305
  83.0207443   9.8090153  35.2021294  83.6822586  10.0319118  35.8570747
  83.3708420  10.1544123  34.3809280  11.7704992  53.8487930  26.8413944
  12.0158033  54.6836433  26.4425430  10.8266802  53.7822533  26.6964455
   6.8359904   2.9250660  23.3313065   6.0402756   3.0417731  23.8503895
   7.2337742   3.7952623  23.3037643   5.0559597  42.9890747  28.5237885
   4.2458954  43.0024872  29.0335407   5.7498899  42.9136314  29.1787701
   6.4256020  22.8779774   2.6686158   6.5758443  22.6885738   1.7424489
   7.2412071  22.6238861   3.1004226  79.9825439  67.5209351  26.8481731
  80.5317841  68.2535172  27.1272449  80.5522537  66.9944916  26.2873554
  86.2472076  60.6559143   2.5208268  86.4268188  60.7691154   1.5874695
  86.4804993  61.4971695   2.9133809  44.2712975  39.4494896  75.3020248
  44.8818054  40.1760674  75.1771469  43.8401833  39.3503036  74.4531784
  48.8862228  48.8171272  84.2200928  48.0461235  49.0700989  84.6028061
  49.5373421  49.1054840  84.8597183  81.2796783  49.5851631   8.8570833
  82.0088577  49.6190948   9.4762506  80.7853470  50.3874588   9.0250025
  73.0715103  37.6509705  60.6237640  73.4962311  37.1167755  59.9525909
  72.8842773  37.0380173  61.3347206  42.4696426   6.0859942  87.7803497
  43.4157104   6.0765486  87.9255829  42.2402458   5.1679077  87.6363831
  15.8086262   1.1060617  65.2605209  14.8781652   1.2927549  65.3854980
  15.8900948   0.9087279  64.3274307  18.1400280   6.0394049  83.0970840
  18.0497360   6.9879980  83.0062561  17.4127693   5.7827854  83.6640701
  59.9500427   6.7452493  10.7308521  59.4992485   5.9482808  11.0098829
  59.3307304   7.4498515  10.9211636  72.4257812  26.8301888  12.0174904
  73.0539780  27.0216808  11.3211241  72.4780655  27.5865021  12.6018591
  45.3791161  70.9271393  12.7431364  45.6173096  70.4428711  11.9525785
  46.1177483  71.5168457  12.8944473  77.3964615  34.1409836  58.0667572
  76.4885101  33.8385391  58.0470581  77.3918076  34.8727837  58.6837502
  51.7902985  57.6401062  70.3794022  50.8582191  57.6945763  70.5903397
  51.8162041  57.5698547  69.4251328   9.4499760   2.6333008   0.7795278
   9.4214191   2.9872103   1.6684397  10.3189182   2.2384989   0.7067173
  55.5690765  58.5380821  87.2520599  55.8977242  58.1635056  86.4347992
  55.9594116  57.9962921  87.9378738  38.7486801  59.0744896  36.6645699
  39.4037514  59.0351982  35.9677429  38.4259834  58.1765556  36.7408485
  16.1470356   9.0901508   1.7101448  16.3707485   8.1618805   1.6430720
  16.9314270   9.4998007   2.0750406  74.8908310  51.1800537  41.0675888
  74.8123093  51.7101898  40.2744789  74.9456940  51.8189316  41.7782669
  40.9137268  56.5026550  75.4287033  40.5599403  56.6297531  74.5484085
  41.4936409  55.7455482  75.3467560  82.7234421   1.0535083  79.8839417
  82.9313202   1.8109144  79.3368073  82.4152832   1.4306563  80.7079773
  23.1717091  53.1840363  22.2138405  23.2331409  53.0482979  21.2683067
  22.3118572  53.5842972  22.3429813  74.3437347  18.6930637   5.9640574
  73.4984970  19.0802040   5.7361870  74.7529144  18.4979992   5.1209941
  41.2844810  44.3290443  24.6089344  40.7826385  45.1123619  24.8343220
  40.6814423  43.8003922  24.0863380  37.3566589   8.1352673  62.7587776
  37.8334274   7.8613639  61.9752579  37.2363052   7.3287697  63.2600822
  63.9648514  38.6866646   3.6514311  63.7008171  37.8968582   4.1233692
  64.0606079  38.4018707   2.7426100  26.8959427  66.0828323  56.2456360
  26.9084435  66.7977753  56.8819809  27.4041939  66.4127884  55.5046654
  82.5135574   2.3168390  71.4077148  83.1817322   2.9953988  71.3111420
  82.9312439   1.6442349  71.9456482  32.2645874  28.2527599  77.4597244
  32.4985695  27.3907719  77.8039017  31.5603523  28.0782661  76.8353577
  16.0678139  20.9865417  57.8027878  16.0624294  21.8303471  57.3509064
  15.7323751  21.1813335  58.6778717  44.9310837  70.3209000  31.1143074
  45.2050171  71.1726990  30.7742577  44.9686928  69.7371826  30.3566208
  10.8141766   1.8965247  14.6002035  10.2719488   1.1271011  14.4263973
  11.6572685   1.6916753  14.1958952  33.3038139  14.5740681  86.0165176
  33.9085197  14.3630810  86.7278900  33.0208168  15.4697857  86.2004623
   9.5040245  57.9963379  64.5743713   9.0262966  58.8084679  64.7430420
   9.5149441  57.9185944  63.6203957  65.0137329  64.2681274  56.1214561
  64.7217255  65.0095825  55.5911674  65.8996506  64.5044022  56.3963165
  25.3455677  64.4932022  41.7294388  24.4505367  64.6928558  42.0038300
  25.7782917  64.1885910  42.5270538   0.4906941  53.4088554  28.9821968
   0.7952005  54.1694908  29.4771118   1.1496918  52.7350006  29.1491508
  79.8188019  69.7310944  77.0394821  78.9638748  69.6323547  76.6204529
  79.6645660  70.3464203  77.7562866   1.0459145  43.4031181  36.6004562
   1.2339309  43.0228424  37.4585190   0.1559765  43.7464104  36.6804123
  80.8809128   9.4025393  64.7995834  80.9220963   8.5275812  64.4136047
  80.3913116   9.9226217  64.1623764  58.1247940  15.4137011  42.8353996
  58.8506317  15.0067053  42.3623810  57.5206871  14.6928473  43.0133209
  73.3664474  41.8069229  69.6115417  72.5664673  42.0368462  69.1388855
  73.9624176  42.5367279  69.4429169   9.9664240  45.4189911  69.0700836
   9.4523067  45.6269073  68.2899017   9.5382500  45.9042015  69.7753983
  23.7562027  62.2769127  88.0916519  23.8428402  62.9551888  87.4218216
  23.1982346  62.6718559  88.7616653   4.6574106  36.9373055  71.5567322
   4.8780823  37.0883827  70.6376572   3.9831984  36.2582703  71.5326843
  72.4303589  62.4209137  48.1262627  72.4887924  62.1201401  49.0331001
  71.6886215  63.0259171  48.1219063  10.6621828  41.3661346  48.2272186
  10.7782526  40.5022278  47.8317146  10.0269489  41.8051376  47.6615448
  34.8724632  55.4577637  19.4241352  34.1007462  56.0236435  19.4456520
  34.9804840  55.1655235  20.3292103  47.6477127  53.4789581  45.1106415
  48.5929489  53.5677910  44.9887009  47.3727379  54.3212433  45.4728203
  66.3440628  66.7506409  33.8351593  66.2846832  66.1640930  33.0810585
  66.7514801  67.5447998  33.4893913  52.6065407  65.6271744  65.1697617
  53.0403709  65.4392776  64.3374710  53.3048210  65.9586029  65.7343750
  52.7308083  23.4254608  29.9421635  52.1544037  24.1872082  29.8810501
  52.6546669  22.9984226  29.0888901  58.5237541  18.1487808   4.2806325
  58.3979149  17.2020588   4.2164836  59.3219795  18.3187351   3.7804494
   4.4358048  39.4856491  40.0748787   4.5630841  40.4333801  40.1176796
   4.9846220  39.2030792  39.3433113  61.4266548  26.3928261  50.7093391
  61.5888786  27.3036404  50.9549675  60.6597290  26.4318161  50.1379051
  74.2777863   7.8470836  83.7930298  74.3829422   7.1626701  83.1321564
  74.6891937   8.6195602  83.4054031  80.6977310  50.0196381  65.7428513
  80.1479263  50.8005142  65.6782227  80.6210861  49.7477684  66.6574249
  38.3321457   8.6545963  59.3230553  38.5851326   9.4611359  59.7721901
  38.3220634   8.8901215  58.3953400  58.5756798  43.2757568  76.7582703
  58.0200424  43.0269852  76.0196152  57.9620514  43.5726776  77.4302368
  70.9465866  17.5390224  21.0503483  70.9100800  16.6110287  21.2821369
  71.6070557  17.9067516  21.6375313  44.0118065   6.4112453  15.6817236
  44.2182388   7.0930448  15.0423756  43.2136803   6.7192664  16.1110840
  70.5525131  46.5453186   6.6870160  70.8311310  47.4389496   6.4869599
  70.1216278  46.6138420   7.5389972  70.7470169   4.2310634   2.4217937
  70.5761795   5.1436763   2.6545682  71.0166855   4.2644343   1.5039719
  65.1453018  60.5514336  11.1534948  65.2087784  61.4309998  10.7812500
  65.9340591  60.4600830  11.6880426  26.4897060  11.2131987  23.3419342
  26.9657860  10.5759974  22.8094387  26.3224373  11.9446697  22.7476254
  86.1489410   0.9174926  77.8868332  86.8381271   0.4813583  77.3857956
  85.3589630   0.4106762  77.6989441  18.1036358  12.5128736  77.9357605
  18.8524761  12.2006836  77.4278183  18.0197487  13.4358044  77.6961975
  75.2755585  21.9181404  83.7899704  75.0964966  21.3068485  84.5044632
  76.2074585  22.1195621  83.8749771  80.7964935  55.9678154  63.3511887
  80.8761597  56.7765236  62.8453445  80.9158020  55.2697639  62.7072029
  82.6660309  56.1480141  85.7419128  82.7133408  57.1007843  85.6630173
  83.0636978  55.8208313  84.9350357  69.3497772  52.4468269  15.0483103
  70.1446991  51.9137802  15.0346651  69.6408768  53.3179321  14.7787447
   1.3050992  19.5061264   1.9423386   1.9925781  19.3580761   1.2929651
   1.7340792  20.0085621   2.6349905  78.6930161  63.9972382  79.1608887
  78.4657593  64.7554245  78.6226196  79.6446228  63.9265518  79.0854721
  61.6439819  58.3940163  53.1170082  61.6921806  57.4401398  53.0535164
  61.8486557  58.7034340  52.2346230  83.1226807  35.7481079   2.3136761
  83.0097427  35.1907082   1.5437533  83.5230637  35.1750870   2.9675643
  20.1352978  15.1653481  69.0821457  19.6548748  14.3639450  69.2899475
  20.8665562  15.1731901  69.6997452   8.9860229  18.9626827   8.7678299
   9.5524788  19.7286472   8.6747675   9.4825163  18.2478027   8.3694925
  37.4037399  61.8665199   6.3024240  38.1495399  61.2687492   6.2505746
  37.3720474  62.1307526   7.2218852  47.1809387  48.7009048  16.9447021
  47.1544113  49.2544212  17.7251797  47.9770470  48.9705849  16.4867573
  55.1793404  19.7494144  30.8699932  54.8952446  20.3400040  31.5676479
  55.1946831  18.8845100  31.2797966   4.6062799  47.8295364  70.8061142
   5.1776929  47.6580849  71.5546646   3.8213050  48.2214317  71.1888199
   5.1626554  40.7801666  16.4962101   5.8081689  40.0805473  16.5965919
   5.4331932  41.4478989  17.1264286  37.1324730   2.5222101   1.4684809
  37.6735954   2.8655787   2.1794758  37.5896378   2.7869124   0.6702551
  65.5160904  18.9773235  63.3530312  66.4256897  19.0889034  63.6294632
  65.2489243  19.8458595  63.0522041  41.9068260  51.1899719  70.4826584
  42.0389404  51.7187653  69.6958008  42.4120865  51.6388321  71.1604996
   6.0270600  67.3499451   9.8983107   5.1493583  67.5339508   9.5636272
   6.5894980  67.9878769   9.4590616  55.2922516  52.5092354  49.0655098
  54.8086395  52.9418106  49.7692375  54.7947502  51.7108459  48.8886032
  54.3418121  41.6625748  57.8244095  54.7899971  41.1745148  57.1336441
  53.4138985  41.6012230  57.5975952  28.3926601  46.9044456  31.2480602
  28.1195602  47.8217545  31.2341805  27.8064270  46.4706039  30.6281052
  57.7054329  40.3949280   9.0105639  56.8749504  40.4524460   9.4830313
  57.9907722  39.4900436   9.1370382  32.2538834  50.7531776  79.5550766
  31.6727676  50.3773079  78.8938141  31.8999844  51.6279564  79.7155457
  78.5050201   9.2291899   4.6522107  78.2095184   8.3615952   4.9282346
  78.3523865   9.7878866   5.4143085   2.9708257  47.9381485  44.1900101
   3.3179963  47.2156830  43.6668015   3.2087867  48.7249832  43.6996040
   2.0090125  55.5328789  78.2000046   2.0673628  55.9686127  79.0502777
   1.4520316  54.7708511  78.3591080  83.0950317   6.1298308  12.7601862
  83.2406693   5.5056801  13.4711428  83.1798935   6.9886394  13.1742878
  40.1811333  47.2283363  49.7241898  41.0640755  46.8593254  49.7023010
  40.2272797  47.9209404  50.3832817  74.4256439  59.6062393  14.8281975
  74.8518219  60.2291183  14.2394466  75.1368942  59.0472679  15.1410828
  74.6830292  37.1035461  27.4114876  74.4661331  37.9581718  27.7840519
  75.6381149  37.0582542  27.4560432  17.5293293  64.1972198  55.6476555
  16.5893421  64.3578491  55.5648613  17.6833572  63.4055710  55.1320953
  23.3952827  33.9695892  84.3253479  23.4439774  33.1033134  84.7296066
  22.4658260  34.0917091  84.1318817  10.9552746  58.1886559  18.4296265
  11.0112257  57.4585724  19.0461292  10.3345823  58.7956009  18.8328533
   5.7042055  31.8235226  64.2567825   6.0366263  31.2729759  63.5478172
   6.1465950  31.4977093  65.0405960  11.8061972  26.0330353  88.5338593
  12.5916405  25.7638874  88.0575485  11.7222652  25.3915100  89.2392883
  12.7351017  57.1584167  55.0054626  12.1225796  56.8096886  55.6531029
  12.2352333  57.1782684  54.1893959  86.1677933  60.6055870   8.6825676
  86.0697250  59.6847229   8.9246950  85.8601990  61.0889282   9.4493771
  51.0712624  14.5831642  23.0099564  51.5526428  13.7558308  23.0050220
  51.6669464  15.2043695  23.4288788  36.4253693  44.4645729   2.2601919
  36.4504051  43.6288185   2.7261515  35.9151039  45.0408440   2.8292012
  14.0209932  40.6667175   9.1917791  13.6509323  41.2180862   8.5023727
  14.8253393  41.1158066   9.4517374  39.2423668  25.2864189  16.5451584
  40.0503616  25.0392475  16.0954018  39.2612038  26.2432709  16.5628872
   5.3990951  57.2137451  23.3978806   4.4536915  57.3345299  23.3092556
   5.4909549  56.4094582  23.9086761  40.3384705  28.6442966  65.9286346
  40.7618408  28.6475735  65.0701599  40.4397888  29.5405560  66.2490845
  87.0327225  14.0997992  84.3240662  86.6977844  14.1117086  83.4274521
  86.3849487  14.5921297  84.8282776  72.5834122  41.4767494   2.4446487
  71.8875046  42.0785637   2.7087760  73.0662079  41.2997398   3.2519977
  63.2342415  17.3178043  11.6022978  62.6356773  17.7195168  10.9725523
  63.0791283  16.3774014  11.5139036   8.0311871  48.7241783  32.9576874
   7.0877957  48.8281364  32.8334351   8.4190435  49.4442940  32.4604645
  38.8333931  54.7132301  65.5658569  39.1922417  54.8126717  64.6840515
  39.1089592  53.8382950  65.8393250  71.6025925  38.3902206  36.6207237
  72.1770401  39.0767937  36.9596405  71.2666473  38.7439232  35.7971573
  11.3400745  57.4549599  52.7258492  11.8780794  57.5250015  51.9372559
  10.8385592  58.2699928  52.7468071  53.9432793  34.0546684  55.8793068
  53.6633530  33.3821182  56.5002327  53.2498627  34.7137413  55.9113464
   5.2800231   5.8922200  70.2068176   4.3751574   5.6626701  69.9952621
   5.5271978   5.2788377  70.8988419  61.0534897  61.2725220  83.0316849
  60.4764023  61.8737564  83.5025558  60.4811935  60.5552292  82.7592926
  41.4512177  13.3116913  84.2673492  41.3267441  12.3690968  84.3780441
  41.7187805  13.4123001  83.3538284  20.5627766  68.3089905  74.0517120
  20.2781372  67.5494766  73.5434341  21.5153770  68.2254410  74.0941544
  66.4893341  52.5900841  48.9630089  67.3353958  52.9764290  48.7368660
  66.5564728  51.6801910  48.6734962  22.1892052  60.0296173  49.3481522
  22.6986618  60.2850380  48.5790977  21.2928829  60.2933235  49.1400795
  19.9564228  30.8422413  83.8372803  19.8147507  31.3789616  83.0574799
  20.7453041  31.2065773  84.2387238   7.7907238  53.6738243  53.2254868
   8.5252342  53.2090607  52.8245888   8.1807232  54.1525688  53.9568787
  50.3648491  28.1249962  14.8107281  51.1777153  27.8102455  15.2062187
  49.7699432  28.2467403  15.5506592  29.0979671  63.0476761  66.7012482
  28.8997192  62.8713112  65.7815628  28.2712021  62.8934708  67.1583176
  44.9910088  12.3413696  59.5354462  45.0723648  13.0019941  60.2233315
  45.1460762  12.8219509  58.7222862  13.3242655  20.6321201  25.2034321
  12.4123001  20.9130192  25.2785873  13.5543900  20.3281631  26.0814323
  41.8871155  57.9609756  37.1354942  42.2658920  58.7799988  36.8161888
  41.2985191  58.2284508  37.8413544  18.3464279  46.0185013  61.5900536
  19.2070351  45.6177216  61.7123756  18.3307228  46.7464523  62.2114029
  26.5386753  27.2273121   3.6027570  27.0224438  27.0943832   2.7875700
  26.9451580  27.9977188   3.9995925  44.5746269  19.1143780  83.7599182
  44.7198830  19.7862930  83.0938416  45.2878609  19.2395382  84.3859100
  22.7919865  35.6347923  72.1327744  22.9452820  35.7929916  73.0642776
  22.5270061  36.4865532  71.7856064  38.5697670  16.7877522  15.1935158
  38.5667343  16.6181011  14.2514744  39.4623222  16.5815868  15.4711380
  60.4247704  13.0707474  53.1344948  60.3103905  13.2025490  52.1933365
  60.9590263  13.8129930  53.4171066  14.6381855  13.2375927  83.5123520
  14.9788103  13.9859247  83.0222473  14.7358322  13.4883938  84.4309387
  31.3083897  47.1122093  47.3972473  31.8159676  46.8346443  48.1598473
  30.4762077  47.4148979  47.7606812  60.6866989   9.8097286  10.4532042
  61.3204231   9.3897276  11.0347786  60.2429276  10.4523678  11.0066595
  39.3785210  32.8216209  69.3420258  39.2501984  33.6962395  68.9748611
  39.3352318  32.2358589  68.5862198  47.8649063  57.6032219   3.7253132
  47.0870590  57.5088768   4.2751160  48.0591850  56.7135124   3.4305177
  61.6757278  61.0571022  18.0023289  62.6081085  61.0852776  18.2170525
  61.4529076  61.9619102  17.7834511   8.1991997  12.2311277  24.2847500
   7.6711946  12.3534832  23.4957829   7.8238449  11.4582624  24.7066765
  39.9999847  19.1896935  66.9302521  40.9493866  19.0704479  66.9047623
  39.7631035  19.4184113  66.0314713  26.5229359   2.2610919  74.1905670
  25.6284199   2.2727029  74.5310669  26.4242039   2.4230852  73.2523575
   4.7119370  68.0150681  43.3155670   4.2451262  67.1824341  43.3865776
   5.6360798  67.7688904  43.2756844  37.9137459  67.2786331  41.5187912
  38.8653412  67.2472687  41.4202538  37.6025124  66.4791946  41.0942192
  52.8450546  27.1169682  32.3693581  52.1902924  26.4345055  32.5168839
  52.3776054  27.9364014  32.5313797  76.1730270  25.5949345  83.7330780
  76.6556854  24.9176846  83.2591553  76.8488693  26.0945339  84.1911926
   4.2867002  58.5549469  77.6629944   3.7299566  59.2599182  77.3324127
   5.1194711  58.6731644  77.2061005  69.8797379  29.9350376  79.5244370
  70.4493027  29.6011543  80.2175064  69.2901917  29.2071152  79.3274612
  20.0264072  27.7301731  85.8607330  20.1917057  26.7940006  85.9724884
  20.0811291  28.0903854  86.7458801  56.7136650  25.7737141  85.9539871
  56.1630516  25.5098248  86.6911545  56.2149620  25.5166359  85.1784592
  41.5932999   8.7587004  74.7533569  41.2812614   8.4288158  75.5959930
  41.2153015   9.6354046  74.6845245   8.0680714  49.8502731  75.2937393
   8.1341619  50.0603333  76.2252655   7.8951960  50.6911240  74.8702850
  53.5471039  54.3513069  13.6589622  54.3563118  54.5094223  13.1727371
  53.3145103  55.2061729  14.0213661  74.5168991  55.1528168  55.8754349
  75.2560883  54.5900917  56.1060333  73.8124619  54.8747711  56.4608307
  41.5811501  54.8247452  26.8667183  41.2278175  55.0939522  27.7146072
  42.2754745  55.4579811  26.6846123  54.8565102   8.5098934  50.2184448
  54.6331482   8.8046131  49.3355598  55.8016205   8.3610821  50.1893387
  58.2407570  43.3728905  57.9712791  58.2961960  44.2905655  57.7047691
  58.4317551  42.8798027  57.1733971  18.6640472   0.5685435  48.3350143
  18.7553635   1.0513997  49.1564407  19.5231133   0.1704641  48.1944122
  78.3085327  29.0231247   3.4816513  78.5617828  28.1483364   3.7763464
  77.4316711  28.9079990   3.1154742  31.0927849   4.8938060  71.3844604
  30.2934971   5.0868921  71.8744507  30.8133430   4.8722920  70.4692154
  75.5972672  13.4051685  61.1427689  76.3269348  13.8503542  61.5736237
  75.0500793  14.1141129  60.8048248  69.4263382  10.9606371  12.9224958
  68.4908142  11.1595058  12.9609489  69.8379822  11.6413336  13.4548826
  49.1543770  43.0709305  12.1468821  49.7027168  42.4019127  11.7370405
  49.4239464  43.0719109  13.0653381  73.5559769  14.0095491  21.7915611
  73.7126236  14.9068480  21.4973698  72.6753769  14.0305986  22.1661739
  71.7934875  21.6505203  69.9537277  71.7420425  21.4147549  69.0274429
  72.3929367  22.3963699  69.9781036  47.1269989  41.0972633  25.1905422
  47.5406189  40.2982635  24.8638134  46.2490120  40.8218613  25.4542236
   9.7854996  58.8419533  78.7619629   9.6942577  59.1296844  79.6703186
  10.7292881  58.8481522  78.6024094  50.3682899  33.1601486  13.9526272
  49.9995918  34.0121727  13.7195005  49.6746330  32.7270164  14.4500885
  41.0982170  13.5513258  74.9601822  40.7551308  14.3066826  75.4376373
  41.9976349  13.7948103  74.7410965   0.4129860  15.6426163  51.0838203
   0.1429009  14.8460760  51.5407753  -0.3339114  15.8647861  50.5279274
  44.2819519  19.9225655  61.9370079  44.1501656  20.3252811  61.0787048
  43.4119568  19.9193039  62.3361702  48.9608002  64.8988266  31.0794945
  48.8743057  64.0931702  31.5890713  48.5121880  64.7102127  30.2552357
  62.7065811  47.4294968  88.2373047  62.7794914  47.4509697  87.2831268
  62.4977989  48.3310585  88.4819107   1.2224765  62.8698120  62.4257278
   0.6854047  63.3029938  61.7622986   1.8520808  63.5375748  62.6976204
  51.2400932  31.2185764  58.5711861  50.6950607  31.9532681  58.8529663
  51.4571991  31.4169521  57.6602821  70.2040863  68.1571274  49.9480019
  69.7119293  68.9169846  50.2588425  71.1198654  68.3804550  50.1144829
  50.7723770  16.2075024  78.0700607  50.8106804  15.2576466  78.1820374
  50.1684532  16.5047455  78.7506104  85.0314484  59.0874100  44.1508102
  84.6617508  59.9605179  44.0195198  85.1060791  58.9993134  45.1010208
   4.5295057  39.0747833  33.6693306   5.3859243  38.7033119  33.4576950
   4.5237970  39.9270363  33.2336044  74.1200943   5.4691029  54.9565773
  73.7163925   4.6501179  55.2438393  74.9359055   5.5215487  55.4545097
   4.9408736  46.9466286  30.7341576   5.1642637  46.5983887  29.8709908
   4.2328892  46.3820152  31.0443230  73.9914932   8.4394712  74.0383453
  74.6048279   9.1119452  73.7419815  73.5466385   8.8347034  74.7881012
  81.4889679   4.1544533  55.8646889  81.7963486   3.2797296  55.6267624
  82.2895737   4.6648960  55.9859695  54.6392860  30.1294651   9.1085691
  53.9626122  30.7730274   9.3187428  54.4956436  29.4182930   9.7329359
  49.9511147  21.1519165  35.3094940  50.8535233  21.0681000  35.0014915
  50.0231819  21.6323471  36.1342506  51.8573380  47.8282433  42.5723877
  52.5037308  47.1277428  42.4846001  51.0393143  47.4395065  42.2626228
  11.3999357  49.3366890  34.6141968  10.6310396  48.8028870  34.8144150
  11.6592665  49.7087898  35.4571228  39.8295059  14.6724701   9.5947123
  40.7064095  15.0549488   9.6260405  39.2591095  15.3512554   9.9554491
   0.4353743  55.8244400   7.8641047   1.3802758  55.9773407   7.8603935
   0.3252011  54.9946251   7.3998847  30.5726795  50.7659874  39.6961479
  31.0691261  51.2537308  40.3533211  30.6319237  49.8536568  39.9796448
   2.7785053  60.9243851  22.9783993   2.8792109  60.1246300  22.4621811
   1.8665816  61.1826439  22.8445015  17.4793091   2.0580790  18.9081154
  17.8114967   2.5761554  19.6412449  16.5408154   1.9768795  19.0780220
  73.5757141  26.0443478  45.3579979  72.6832962  26.2936134  45.5981827
  74.0224380  26.8760624  45.2001381  52.2905884   9.6848583  61.6590118
  51.9820328  10.5149145  62.0223732  51.4978867   9.1577110  61.5591354
  39.0670738  21.5485802  88.3070221  39.3237724  20.7124043  87.9182434
  38.1160736  21.4886150  88.3977737  60.8351288  46.4718895  11.7503262
  60.9984436  46.1964073  12.6523619  60.7582779  47.4246521  11.8010569
  85.2616272  26.9856606  72.8562927  84.3256683  27.0546913  72.6680145
  85.6888809  27.1860256  72.0234985  16.6346817  42.6943321   7.9364219
  17.3757687  42.0885277   7.9410992  16.7386341  43.1936874   7.1264400
  44.7206612  43.9400826  36.1928864  43.9719048  43.5444450  35.7467232
  45.2149391  44.3706894  35.4953918  63.5691528  55.8520279  60.9048920
  64.4808578  56.1103134  60.7695312  63.2583427  56.4277039  61.6036263
  31.3834553  17.0142155  88.0574570  30.4987469  17.3282471  87.8706207
  31.8417931  17.0768337  87.2194595   0.0778322  59.5269394  69.2376556
  -0.4658360  60.1366463  68.7387466   0.9509562  59.6170654  68.8558655
  12.8582020  55.8642998  82.7996216  12.6379156  56.2845726  81.9683151
  13.5722914  56.3941116  83.1540298   5.2434759  59.5028152  58.5485382
   4.8515172  60.1571465  57.9702225   4.9210763  58.6652222  58.2157860
  72.1200180  41.2866859  37.8121376  72.4668503  41.8092575  37.0890465
  71.3258286  41.7480316  38.0816650  69.2766724  30.3253899  48.6805725
  68.7148972  30.7863216  49.3036079  69.8931046  29.8391628  49.2281418
  52.0107079   1.7949388  44.8622322  52.1497650   2.3609636  45.6215134
  52.2936783   0.9284550  45.1543999  12.9993162  25.1428375   6.6861129
  13.2583399  24.4678802   6.0587602  13.8084974  25.3649578   7.1466780
   8.1831150  27.9754601  84.2778778   7.5853586  27.3710766  84.7179184
   9.0504827  27.7329826  84.6020813  15.4313173  54.7732544  21.9231396
  15.0616665  55.4956970  22.4307480  15.1552095  54.9469376  21.0232334
  65.5602036  26.3450756  26.5143700  65.8746719  25.4411793  26.4965782
  65.9026184  26.7336826  25.7094040  76.6942902  29.2502689  21.0789185
  76.8095932  30.1969261  20.9965973  77.4336090  28.8763504  20.5995197
  56.8575134  10.7865829  30.8930492  57.2775688   9.9529448  31.1047821
  57.5303726  11.2820511  30.4261436  61.7844582  58.5462303  16.7441254
  62.7047539  58.5896606  16.4845085  61.6849403  59.2445030  17.3912296
   5.0657372  58.4725800  66.7063446   4.8789835  57.5407143  66.8202744
   5.9713526  58.5729675  66.9996262  46.8263550   0.5784593  33.6851387
  47.3640556   0.7747043  32.9179344  46.5417786  -0.3258844  33.5531921
  46.0720978  41.6996803  64.5916138  45.5575371  41.0153084  64.1637192
  46.0541458  42.4328041  63.9764404  11.4090672  34.7013512  75.1361008
  11.3252001  35.6511993  75.2196732  10.8169498  34.4706917  74.4202576
   3.4140689  22.1779194  68.5773544   2.7142065  22.1042271  67.9285126
   3.8684096  22.9887505  68.3485336  70.1711273  33.2580376  59.3859406
  69.9573288  32.3399963  59.2194328  69.4405441  33.5824051  59.9124985
  17.0978985  10.8907499  17.7736683  17.2191849   9.9719763  17.5341301
  17.2583599  10.9155216  18.7169971  27.1786995  51.7203827  70.8860855
  27.7655792  52.1035614  71.5379944  26.7845726  50.9697495  71.3304291
  44.5274963  48.2602043  42.8742561  45.3849220  48.6605225  43.0184555
  44.4526596  47.5997009  43.5629997  26.2160568  15.2862406  68.7120514
  25.9667339  14.4006853  68.4477386  26.9203682  15.5265236  68.1100235
  73.5528030  32.2914963  78.6821671  72.8382416  31.6606045  78.7694016
  73.7853088  32.2632179  77.7540665  25.1059475  14.1449614  41.1367645
  25.5397339  13.6417141  41.8258247  24.5106888  13.5202236  40.7225151
  53.7028503   1.6202569  12.1314983  54.5682831   1.2624863  11.9333534
  53.4904747   1.2685276  12.9960299  47.8535728  34.1501427  26.7028656
  48.1644516  34.5659828  27.5070171  46.9136658  34.3306389  26.6877918
  59.4494553  12.9691563  14.0674314  60.1575050  13.6129656  14.0472832
  58.7642021  13.3494844  13.5178747  54.7892647  61.8023491  17.7934494
  55.3830185  62.4061928  18.2396107  55.3178291  61.4208412  17.0925198
  48.7390900   7.8505931  54.3236389  49.0956001   8.6470137  53.9301300
  48.2228279   7.4486222  53.6249771  53.9607811  12.9098768  49.5677948
  53.2563477  12.9624681  50.2137337  53.7049408  12.1888437  48.9925652
  16.1505547  54.7673988  36.1626625  16.7822437  54.1721573  36.5662613
  16.6139030  55.1334763  35.4093170  49.6921272  22.9969902  24.6525517
  49.8442230  23.2649384  25.5588093  49.7445908  22.0414543  24.6732883
  15.4648657  67.2906189   8.7520561  14.5305443  67.2246170   8.9493351
  15.8227110  67.8227158   9.4627256  24.0699863  31.5888157  85.6145401
  24.2202473  30.7792435  85.1264343  23.1271210  31.5976410  85.7793427
  42.6668091  27.5305367  15.9660234  43.4814186  27.0955753  15.7141228
  42.9476547  28.3608799  16.3505859  56.9364853  65.1705475  16.1542873
  56.8004379  65.8853912  16.7761536  56.1171799  65.1224289  15.6616907
  75.7373886  28.2276611   2.5526092  75.0716858  28.9114342   2.6269729
  75.3554688  27.4719963   2.9990921  62.8953056  28.2875137  16.1110115
  62.1942902  28.6867981  16.6261635  62.5812111  28.3273411  15.2076902
  58.2235031  56.5757141  31.5181580  57.3312836  56.8448486  31.7366619
  58.1570244  56.2243462  30.6302643  61.3034744  10.4851675  61.0249443
  61.2524376  10.2544632  60.0973625  60.6884041   9.8902645  61.4539070
  55.8630295  34.7453499  54.2394142  55.1267166  34.4627647  54.7818336
  55.8202667  35.7014389  54.2567902  46.6481476  61.2613068  87.1616974
  46.7107048  60.8972397  86.2786484  45.9477539  61.9111748  87.1037750
  42.0138474  59.1369171  75.3379822  42.6309128  59.1712341  74.6070328
  41.8208237  58.2055054  75.4449615  45.7483902  67.3700104  74.3702316
  46.4960670  67.0611038  73.8585815  44.9870605  66.9781952  73.9423370
  79.6850739  22.4063301  41.7910385  79.8098297  22.9889545  41.0418968
  80.1307678  22.8473606  42.5142860  46.7171516  26.7329082   3.6458182
  45.8942451  26.6607113   4.1293960  46.8370209  27.6736813   3.5161645
  64.6120682  24.2005119  58.8252945  65.1456680  24.0125294  58.0531731
  63.7664833  23.7933903  58.6369667  32.8724174  31.0635090  54.6904144
  33.2016220  31.8793221  55.0676498  32.1060448  31.3272266  54.1811485
  22.9820671  23.0740337  63.2609711  22.2277050  23.3853493  63.7612228
  23.2537937  23.8307228  62.7415314   4.3594699  45.2083168   3.5819411
   4.7672029  44.3464699   3.4970689   4.6327062  45.6810188   2.7957294
  56.8381767  57.1269341   0.0602442  56.8784103  57.5513344   0.9172724
  57.5560379  56.4938812   0.0725255  10.1863155  59.8369904  31.3948154
  10.4734592  60.4528160  30.7206173  10.9269600  59.2408714  31.5058022
  75.4487000   9.8559551  78.4794464  76.2987289   9.6721735  78.8793259
  75.6504288  10.0405216  77.5621262  46.8839493  64.3894196  80.5050659
  46.5073662  65.2435150  80.7170486  47.7215424  64.5935440  80.0891266
  10.0519371  51.0164070  29.1896973   9.8136864  50.1930847  28.7635422
  11.0090599  51.0231323  29.1795826  18.3861389  44.8688736  50.2733841
  18.5969810  43.9518204  50.0979233  18.8830318  45.3585167  49.6179619
  69.2361145   8.1936140   1.5676229  69.6851883   8.2204199   0.7227264
  69.8171844   7.6832213   2.1316190  72.8613129  43.0017052  35.6572800
  73.7942352  43.1786728  35.5365639  72.4283142  43.8176460  35.4063110
  34.3818970  47.9763298  74.2642975  34.6294670  47.2940140  73.6402817
  34.4338188  47.5491982  75.1193314  15.4965448  65.9713364  84.8459015
  14.5565834  65.7933502  84.8779602  15.7464142  66.1045151  85.7602615
  19.1304264   9.3411160  81.9930496  19.9763813   8.9040489  81.8952408
  19.2277355   9.8780022  82.7795029  82.4322662  20.8239441  38.7500534
  82.5845947  20.0017014  38.2842827  83.1021652  21.4183044  38.4121208
  22.9110508  44.4837341  56.3044357  23.7840729  44.8357887  56.1308861
  22.3292389  45.2405396  56.2339211   6.6089916  35.2594337  80.5317230
   6.0057535  34.5867920  80.8477783   7.1364298  35.4870186  81.2973938
  16.7329216  58.7599983  22.7577133  17.2804165  58.6300659  21.9833755
  17.3120842  59.1816826  23.3925228  18.2390652  29.4544811   6.4856830
  17.3409271  29.2743244   6.2079754  18.7431278  29.4682961   5.6720719
  86.5472336  45.0093231   5.4172702  86.7990036  45.6005249   6.1267219
  85.7445679  44.5904961   5.7279863  69.0753250  65.2453156  13.2531328
  68.8194809  65.0060959  12.3623190  68.6388245  66.0824280  13.4110632
   6.0070310  70.6864853   1.4967180   5.7049360  70.0116043   2.1045909
   6.1427860  71.4592667   2.0449975  43.9271278  32.1556091   4.6380167
  43.8939896  31.3300800   5.1213775  44.6673241  32.6272545   5.0199723
  20.5103149  51.1720467  64.9886398  20.3760319  51.0205193  65.9241791
  20.7983379  52.0831604  64.9324951  78.5208511  43.0769157  71.5188141
  79.0252991  42.5136909  72.1057968  79.0121231  43.8980560  71.4939651
  29.3129005   5.4401369  61.5847664  28.8611012   6.2707086  61.4355659
  28.8329830   5.0325623  62.3057327  45.2657471  56.3775063  59.8759003
  44.4070587  55.9996071  60.0658302  45.6847496  55.7409821  59.2966728
  53.7675514  26.1622543  56.2771606  53.4654198  26.0092945  55.3818665
  54.7010689  26.3530293  56.1856117  16.6485958  16.2528896  74.9731598
  16.2791119  17.0989742  75.2258530  17.2462883  16.4576931  74.2540970
  59.0794563  50.9980621  10.1859312  59.4704971  50.6445999   9.3869419
  59.0120811  51.9389954  10.0236368   1.8420111  33.4883003  80.0484161
   1.0392790  33.0069504  79.8480225   2.2666304  33.6099892  79.1992264
  76.1401978  61.7546768  49.0852928  76.5622330  62.0014877  48.2623672
  75.6240692  62.5228920  49.3295937  41.8516846   0.7978320  40.1536446
  41.1869049   1.4803704  40.2455292  41.8115158   0.5470576  39.2307510
  83.3074265  25.0494461  64.5011826  83.2755203  24.5336151  65.3068695
  82.4823685  25.5346947  64.4946365  69.6518555  68.5643311  11.4014626
  69.7481995  69.3403473  10.8494205  70.2683716  68.7037125  12.1202869
  70.3643417  61.0146561  44.0208054  69.9205017  61.3183556  44.8126411
  69.6544571  60.7680969  43.4279327  29.5167961  59.3571739  50.0572472
  30.2341518  59.9013176  49.7323761  28.7257462  59.7767639  49.7189941
  67.3002090  65.8957825  66.6819687  67.2305374  66.6628952  67.2502289
  68.2310944  65.6731415  66.6932144  56.6299973  68.4263992  65.5419998
  56.4437599  69.2613144  65.1125031  56.9620247  67.8653412  64.8411407
  36.6872902  44.4034004  27.9212742  36.2581749  44.2188416  28.7567558
  35.9719696  44.6446495  27.3327618  40.4407768  47.0349770  17.4628563
  40.5690117  46.6641655  18.3359489  39.5238419  46.8525581  17.2574692
  18.1062737  13.6643658  11.2909889  18.4373417  12.8231459  10.9763842
  18.8915024  14.1556177  11.5324793  52.1606216  43.0859222  11.7396164
  51.7018471  42.2465935  11.7037964  52.7756996  42.9918327  12.4669809
  38.3675270  28.3561630   2.1417618  37.9248390  27.6273441   1.7069278
  38.1271935  29.1251106   1.6248549  32.5020752  67.5374985  35.1953888
  31.9460888  67.4581757  35.9705162  32.7186394  68.4687805  35.1502533
  46.8977356  22.5523262  64.2015305  46.1202583  23.0368271  63.9240036
  47.4930229  22.6061440  63.4538841  39.2748032  61.3991508  81.3715897
  38.8742523  60.8235207  82.0230789  38.9111671  61.1051903  80.5363770
  45.8260689  49.9762535  75.7384644  44.9189644  50.2816391  75.7266846
  45.9848518  49.7323647  76.6503525  69.8416519  11.3641100  84.4352875
  70.6129913  11.1414080  84.9564972  69.7744598  12.3166265  84.5018463
  75.3349304  11.4909716   5.4440222  75.2689056  11.4294167   6.3969564
  74.4339600  11.3964663   5.1349130  52.8953285  70.4072037  62.9982414
  53.3518944  71.0403595  63.5522194  52.3620338  69.8966293  63.6074562
  48.6998940  50.9111481  50.6401749  48.0962334  50.5897217  51.3098869
  49.5569839  50.9025192  51.0662651  45.5042114  37.0166168   5.2150059
  45.3561592  36.1005630   5.4498563  45.1753387  37.0903549   4.3191042
  41.9003258   6.7638345  61.5950279  42.0906639   6.7559958  62.5330811
  41.1251259   6.2098613  61.5032921  51.4694290  69.4282837  79.7568817
  52.2071304  69.6086426  80.3395462  51.0237885  68.6824112  80.1585159
   1.8162421  21.9164410  16.3556347   1.6498742  22.8155842  16.0726204
   0.9457231  21.5287132  16.4456100  54.2586288  12.1392689  56.3013229
  54.8447914  11.9131689  57.0234909  54.8008003  12.0539827  55.5170975
   3.5878541  14.3527489  56.3745689   4.3732033  14.8898830  56.4791870
   3.2520442  14.5855141  55.5089569  85.6617813  36.2915649  58.3600845
  85.9851074  35.3934135  58.4309349  85.8082275  36.6679955  59.2278900
  76.0621872  54.9168396   0.6230998  76.6369247  55.6785583   0.5476394
  76.6479340  54.1650620   0.5338472  72.7494278  67.0899658  17.0607033
  72.0909500  67.3053131  17.7212105  72.7859726  66.1334610  17.0618858
  28.1141052  33.7357445  72.6750793  27.8459930  34.5257416  73.1443939
  28.9246387  33.4645920  73.1060638  30.1259537  58.9486046  60.4821739
  29.6684513  59.0428810  61.3176613  30.8575821  59.5631905  60.5390549
  66.0619278   6.9876328   8.0499477  66.4269562   6.4298763   7.3630028
  66.4399490   6.6473608   8.8608398   7.0759640  24.0450249  17.8788567
   6.3042402  23.4790230  17.8966656   6.8940263  24.7187576  18.5340023
  78.9244080  60.9945183  14.9782486  79.5249710  61.5345840  15.4919538
  78.0675507  61.4017181  15.1055927  49.3634300  39.0258560  62.8909149
  49.4680901  39.9283829  63.1921196  48.5479774  39.0336761  62.3897018
  13.9237185  16.2275600  68.3702011  12.9931355  16.2688808  68.5905151
  14.0558987  16.9471207  67.7529526  27.4514847  47.1486397  70.7735367
  26.7768650  46.9148026  70.1360016  27.9895687  47.8006744  70.3245926
  42.0202560  42.5753059  34.5455132  41.5886040  42.4346504  33.7028236
  41.9494362  43.5178642  34.6965218  86.4521103  22.7966347  11.3592939
  87.2947693  22.3541698  11.4612207  86.3886871  22.9779663  10.4215689
  58.7389336   7.4274969  84.6274643  59.5724716   7.3875647  85.0963440
  58.9742699   7.2962403  83.7089767   1.2861978  44.3384972  39.8811188
   1.0722164  44.7577019  40.7146111   0.8804519  43.4733505  39.9370155
  16.6002636  62.3379898  13.4280682  16.6793346  61.3891716  13.5266724
  16.8241997  62.5030975  12.5121956  71.1119461  67.8883743  75.4833450
  72.0459366  67.9856796  75.2977982  71.0565720  67.8860703  76.4389420
  47.0011520  15.2278175  37.3423271  47.8606491  15.5414801  37.6236000
  46.6830101  15.9045277  36.7447662  83.9960938  53.6886292   9.5388651
  84.6827316  54.2757378   9.8551855  83.5915604  53.3426361  10.3343992
   4.3767242  31.2901363  27.4172287   4.6667166  30.6485748  28.0657158
   3.4221873  31.2188339  27.4200096  64.5522308  59.2079735   5.0041633
  64.7368240  59.0537949   4.0776715  65.3351212  59.6488495   5.3342252
  50.4948654  40.0175743  22.0651302  50.4399414  40.2335930  22.9960175
  51.3708305  40.3021545  21.8044949  10.6000862  50.6185875  87.6096802
  11.2933426  50.0887604  88.0032654   9.9012432  49.9935799  87.4167633
  20.8850098   4.4815178  47.1416550  20.1083717   4.5217123  47.6997337
  21.5992813   4.2638202  47.7405319  29.4588642  62.5657845   3.1369736
  29.7303963  62.9118538   3.9871144  29.4568005  63.3278389   2.5577495
   9.5999794   2.1515718   8.9833508   9.6776791   3.1048810   9.0207138
   9.1836758   1.9781034   8.1390572  39.0617676  66.5204391  44.0200005
  38.4479790  66.9614105  43.4325981  38.9390450  65.5885620  43.8389587
  53.5949173  32.3347282  29.5178013  53.5751381  31.6488781  28.8503819
  53.5342026  31.8626175  30.3482571  72.3206863  10.9407864  86.2506256
  72.4756012  11.8786011  86.1377716  71.9563141  10.8626127  87.1323013
  83.9896774  33.5928307  82.2175980  84.5589371  33.4110260  81.4698563
  83.4977570  32.7819443  82.3468552  24.0753765   6.5628433  86.3054886
  23.5331249   6.0470839  86.9023056  23.9887924   6.1209641  85.4608154
  81.6050797  27.1872959  67.6362839  81.0998688  26.6690521  68.2627182
  82.4392471  26.7241020  67.5598602  21.1635609  48.9503975  21.8776417
  20.4964600  48.4971886  21.3620739  21.2589073  48.4177246  22.6671982
  29.9482269   1.0679820  73.4106827  30.4185009   1.6566080  72.8202667
  29.3762474   0.5591368  72.8360977  61.8197517  27.0564308  38.8234406
  60.9531136  26.6798325  38.9762268  61.8385620  27.2409344  37.8843765
  22.7980938  26.2480373  51.9865761  23.4958363  26.0142403  51.3744278
  22.0484924  25.7222633  51.7074890  23.2902508  59.9361496  66.4473801
  22.8458271  60.3735809  67.1735840  22.5806885  59.5969048  65.9017944
  31.1173153  43.5931931  25.1009655  30.3287106  43.6525192  24.5616932
  31.0351715  42.7539368  25.5538864  17.2672291  61.6466713  71.9720306
  16.5579376  61.1523209  72.3828278  17.8883705  61.8091698  72.6819611
  43.7496948  62.9654198   3.2385998  43.4066582  62.0865021   3.4000430
  44.3646469  63.1180420   3.9560788  43.6395683  46.0402145   8.9343147
  43.4574432  45.8554306   9.8556814  43.8183556  46.9802361   8.9093533
  35.7915001  14.8902979  69.0038834  35.3197098  15.7225122  68.9712143
  35.6268501  14.4879942  68.1510773   9.2800512  39.1954880  68.1018829
   9.7624741  39.6081810  67.3855209   8.7057734  39.8860054  68.4329834
   0.2471094  36.0026665  46.5145988  -0.0804124  35.5778618  47.3073807
   1.0458382  35.5218010  46.2977257  24.2968807  12.3150578  85.1246490
  23.3567905  12.4918823  85.1592026  24.4678307  11.7764063  85.8972168
  75.7889557  66.2303085  27.9386139  75.9863510  65.9705048  28.8384857
  76.3536377  65.6760406  27.3999519   0.8166160   7.4423857  41.9125786
   0.4556535   7.7894988  42.7283287   1.6298676   7.9304876  41.7836952
  63.8999443  26.1972885  21.2734985  64.0383072  25.6605988  20.4930801
  63.0701218  25.8854580  21.6345882   0.7895868  31.3750095  20.1401081
   0.7963897  30.4946747  20.5158730   1.5944076  31.4213657  19.6240215
  61.1777229  58.8698959  55.9619484  62.0473709  58.9803696  56.3463173
  61.3408127  58.7762680  55.0234032  62.9831276  59.0403862  60.9056625
  62.4770470  59.8414459  60.7699394  62.6806450  58.7061653  61.7500763
  24.8774529  41.5664139  10.6126051  25.1940784  42.4089699  10.9383001
  24.6096916  41.0909386  11.3990269  29.4384251  23.5829620   8.9946480
  29.4493637  22.6965847   8.6334734  29.4090061  24.1540337   8.2270260
  20.6046104  41.0774460  86.6659012  20.4794559  41.3779488  85.7657547
  21.4335346  40.5992126  86.6456833  29.4465427  25.6250896  37.5887413
  28.4965000  25.5894527  37.7000198  29.5716705  25.8274231  36.6615753
  26.9339123  50.8642464  65.3092880  26.4528637  51.3439255  64.6349487
  26.9983139  51.4786987  66.0404053  14.9316578  37.9131088  31.1473846
  15.0086927  37.6992989  32.0772133  15.4716301  38.6955795  31.0360126
  75.5381317  46.0084000  73.8323059  74.5964813  46.1686440  73.8944092
  75.6119156  45.2192764  73.2955856  65.1030197  17.5735760  50.0005646
  66.0560837  17.5713139  49.9117165  64.9191589  16.8731289  50.6265030
   9.9901276   2.7275708  85.8551102   9.6575308   1.8651211  86.1036911
   9.2067251   3.2709303  85.7698364   4.1810856  47.4050255  49.8708229
   4.0468526  46.5352898  50.2473564   4.8941655  47.7817688  50.3863945
  63.6831970  14.8121462  68.3149643  63.2742653  14.7993841  67.4496078
  62.9476051  14.8226957  68.9273605  38.3747711  64.4682007  27.9745483
  38.7103043  63.8943367  27.2858334  38.1906052  65.2950058  27.5287838
  39.0710564   6.5577044  61.2026443  39.5956383   5.8417778  60.8441849
  38.7931366   7.0583448  60.4356041  26.8256912  43.4439888  25.9027958
  26.0219116  43.9076691  25.6679096  27.5297585  44.0073433  25.5816231
  75.5239410   4.7148347  43.6372261  76.1402054   4.2132673  43.1034775
  75.1357574   4.0679898  44.2264061  44.9011612  35.3946037  41.4084930
  44.2982521  35.0612907  40.7439384  44.3584900  35.5083771  42.1887474
  73.6175995  24.2760296  77.9611664  73.7310333  24.2695713  78.9115982
  72.9323044  23.6281376  77.7973404  82.1008453  17.4830303  16.8728085
  81.3876495  17.8539238  17.3924427  82.8360672  18.0791874  17.0151958
  56.8789520  42.7063370  80.3789673  57.0083122  43.3597374  79.6915359
  56.2697716  43.1196976  80.9907379  51.6445541   1.2624383  65.5112457
  51.8490868   0.6690162  66.2339172  50.9134178   1.7894226  65.8336716
  70.0847397  60.1771126  79.9034195  69.5720062  59.8565063  79.1614304
  70.8966980  59.6713142  79.8698730  45.4431152  42.2347107  43.8085480
  45.5199814  42.0845947  42.8663216  46.1618767  42.8320808  44.0153275
  66.7210007  18.2303238  42.8670387  66.7576981  17.7856407  42.0201950
  65.8008957  18.1775703  43.1255913  51.3106842   4.3808818  37.5948143
  51.9929657   4.1948819  38.2398987  51.6738701   4.0698471  36.7656059
  11.4684792  71.5548325  87.9368286  10.5351772  71.7348785  87.8238602
  11.7881708  71.3829422  87.0511169   9.6872120   0.9282501  46.6236000
  10.2925482   1.4326816  47.1670609   8.8696108   1.4252431  46.6511345
  20.2304840   7.9413261  61.7880554  21.0356922   7.4294705  61.7113953
  19.7306633   7.7206593  61.0021057  20.0735512  11.3270302   7.2890892
  21.0146179  11.4106188   7.4428353  20.0073833  10.9026060   6.4336839
  58.8686752  56.4092865  25.4230423  58.8686562  57.3371620  25.6581593
  59.3851700  55.9881134  26.1101227  62.3834457  54.4025154  85.6172943
  61.5704422  53.9013062  85.6809158  62.4742241  54.8213272  86.4732056
  86.1363220  64.8183670  37.0686111  85.4387283  64.5812912  36.4575577
  86.8258209  65.1843643  36.5146523  63.5328178  49.6540489  54.3014336
  62.8472900  50.3218994  54.3174896  64.3385468  50.1419220  54.1311150
  50.0378227  45.5118637  35.4613152  49.6643639  44.8602638  36.0547638
  49.7150955  46.3500595  35.7922325  43.6100960  43.1008339  45.8983765
  43.9411507  42.8271751  46.7537956  43.9445190  42.4417534  45.2900925
  20.0639706  45.1693687  38.5144882  19.4898682  45.8574562  38.1780777
  20.6090393  45.6097603  39.1665535  55.4452705  16.5559082  84.5759430
  54.8429832  17.1068344  85.0759048  54.9667816  15.7376804  84.4425964
  29.0007877  52.8122940   3.0632446  28.3492241  52.2628632   2.6275597
  28.5743542  53.0932884   3.8728299  60.7429276  67.5976639   2.2109299
  60.3189240  67.4274826   1.3698050  60.0182800  67.7059708   2.8268712
   0.9754540  66.3232269  11.9274626   0.6710082  65.5590744  12.4169645
   1.1922293  66.9681625  12.6007357  41.0757866   1.1219912  17.8126621
  40.1649017   1.3954849  17.9209309  41.5813942   1.7773896  18.2933350
  49.5133591  60.0742912  59.1423874  49.7039413  60.6011620  59.9184799
  48.7905922  60.5324020  58.7134705  51.4144630   6.4214745  20.9243298
  51.8379822   5.5638242  20.9603920  51.4172440   6.7282839  21.8310223
  16.0415249  13.9024734  21.5835972  15.8364334  13.2796955  20.8862343
  16.9707985  13.7616339  21.7648315  23.0329666  58.7939491  60.8176270
  22.7176552  59.5981560  60.4052429  23.9689560  58.7736282  60.6182709
  44.7594528   1.3399216  29.3682690  44.2374725   1.7495888  30.0581532
  44.1581612   1.2613506  28.6276569  83.2542725  36.0238190  73.7174301
  82.4708862  36.1090622  74.2608185  83.6624146  36.8890991  73.7481918
  11.4722185  65.8420258  46.5743675  11.6141071  65.9309082  47.5168076
  10.5691566  66.1295090  46.4399529  63.5966568  29.3166695  60.8942757
  63.6908302  29.5828991  59.9796791  63.5442810  28.3614655  60.8614998
   7.1004939  69.5139847  20.1813221   6.6562414  68.8429565  20.6995754
   7.3776598  69.0582886  19.3864975   4.7349548  51.0930634   6.0077162
   4.1888871  51.3927307   6.7345190   4.1739869  51.1760864   5.2365780
  39.2381134  26.7789841  67.7024078  38.2927971  26.9191799  67.6480484
  39.6181831  27.5292606  67.2453918  80.9461441   2.6949773  68.0588226
  80.7769241   3.4718163  67.5257950  81.7016830   2.9331095  68.5961227
  20.8423328   1.8069363  55.2634163  21.7572384   1.6696993  55.0177650
  20.8648376   2.5514843  55.8645592  37.8988419  59.9533920  72.2065430
  38.8514748  59.8839645  72.1440659  37.6026077  59.0556602  72.3567429
  64.5168686  56.2649269  81.9746628  65.0742493  56.6703644  81.3104553
  64.7124557  55.3299370  81.9132385   2.9895844   8.1531343  68.5357285
   2.4917674   8.7865763  68.0188522   3.2090499   7.4577255  67.9156723
   2.1914258  18.4482708  10.3392744   3.0123069  18.0459023  10.0555735
   1.5179737  18.0122204   9.8172064  69.1729660  38.7962608   4.4680142
  69.1624069  38.0226135   3.9044657  69.7557983  38.5591965   5.1893587
  24.1541481  -0.0444778  88.0338211  23.5095997   0.6586155  87.9535141
  24.7168179   0.2280521  88.7586441  63.7446861  17.0756092  26.9377804
  63.4539642  16.6826897  26.1147804  64.4456863  16.4999847  27.2435417
   0.6656380  19.8279858  70.4146118  -0.2448299  19.9551601  70.6812668
   1.1103730  19.5386791  71.2113190  70.2094879  51.8722954  74.0292282
  69.3177719  52.0110130  74.3483353  70.0959778  51.4607124  73.1725235
  79.0454025  35.4205017  36.7276878  78.6875992  35.8342171  37.5132141
  78.7133331  34.5232315  36.7571449  36.3248863  29.1070061   8.1242914
  36.0336151  30.0170574   8.0677176  36.9348602  29.0961666   8.8618851
  85.5388641   6.9344583  26.4231358  84.9027405   6.2288260  26.5400352
  86.3777161   6.5436678  26.6677608  18.3906269  24.9966564   0.7242952
  17.9239483  24.6866703  -0.0518177  18.9919453  25.6631222   0.3919239
  66.1304932  37.8221054  52.0472870  65.4649124  37.4655418  52.6355858
  66.9582214  37.4842567  52.3892784  57.8786430  29.7811165  83.9046707
  58.7720261  29.4547520  84.0122986  57.8921318  30.6516705  84.3023911
  31.8778591  59.1608047  35.4442558  31.0260239  59.4513321  35.1183739
  31.7831879  59.1625252  36.3967628  55.1301880  38.3583603  80.4390869
  54.6137390  37.5556068  80.3676834  55.0478668  38.6152191  81.3574982
  16.2925568  17.6720829  61.0207901  16.3592033  18.5144329  61.4704971
  17.1965580  17.4442825  60.8037148  32.5640450  25.8567295  86.6677933
  31.7651310  25.7702789  87.1878815  32.7794609  24.9607239  86.4089508
  54.3403473   9.1660805  33.3417702  53.8543053   8.9549952  32.5446243
  53.8019943   9.8226213  33.7837677  15.7386150  14.5297241  14.5669079
  16.5238361  14.0538454  14.8374624  15.9471273  15.4492750  14.7317772
  58.2321892   8.3513918  66.3308182  57.5589333   8.1598101  65.6779404
  57.7707062   8.3147163  67.1686249  46.5497551  20.8731976  85.3677826
  46.8854675  20.6738720  86.2417374  47.1713829  21.5078735  85.0114212
  10.3867826  11.1665087  84.0730972  11.1918449  10.8514690  83.6621704
   9.9997797  10.3865623  84.4707718  75.3270798  26.0644379  53.1879692
  75.3006516  25.1133194  53.2924156  75.2209702  26.4059315  54.0758629
  56.9114037  17.7508392  42.6180916  57.6044083  18.3062954  42.9750900
  57.2216263  16.8571644  42.7641792  82.4738388  57.3571510  58.0750809
  82.4162598  56.6332092  57.4515228  83.3476181  57.7229156  57.9374123
  30.5680962  69.2112274  87.2756348  30.6558228  69.5430908  86.3821030
  30.3720627  69.9869385  87.8010712  38.0766640  56.4409409  15.5938120
  38.4049301  55.5422096  15.6213274  38.5549507  56.8486290  14.8718243
  65.1220779  20.3281708  40.2368736  64.6687088  20.0832367  39.4302177
  65.8097534  19.6695404  40.3345718  24.9958057  37.7970619  49.0741501
  24.6689453  37.9094887  49.9667587  24.7837563  36.8899994  48.8539047
   9.5835819  58.8485985  21.6924820  10.3588142  58.4188690  21.3311272
   9.4678783  59.6290779  21.1505432  38.1967850  17.8184528  68.2403030
  38.8561516  17.3406296  68.7434464  38.7033424  18.3962936  67.6695709
  70.5083008  36.1241646  36.8429604  70.5658188  35.6151161  36.0343857
  71.0702896  36.8834610  36.6884422  54.5041275  31.8549995  60.7180252
  54.4889450  32.1296272  59.8011932  53.8541641  31.1541500  60.7689133
  24.0258369  67.3943939  82.5513840  24.7532444  68.0165176  82.5427170
  24.3158779  66.6949158  83.1369019  57.6041031  31.0318470  13.8734579
  56.9696083  31.5236988  13.3521805  57.1124725  30.7485218  14.6443396
   8.0977402  67.1932907   6.5974388   8.3147764  66.9420166   7.4952064
   7.5130067  66.5007935   6.2896066  75.6927185   2.3004141  51.3224449
  75.8336639   2.5931561  52.2228165  76.4772949   2.5836341  50.8529129
  80.6687317  60.9948387  71.0399628  81.4209061  60.4030113  71.0255661
  80.9574814  61.7362556  71.5720901  75.0713730  69.6519775   3.2683513
  74.7341614  68.7725449   3.0977180  75.9937439  69.6078949   3.0163147
  83.9396820  33.4649467  68.3998489  84.1404724  33.0381966  67.5669022
  84.5864487  34.1669502  68.4713364  44.5662842   4.0943036  10.2491369
  44.2955093   3.4398363   9.6052523  44.2942238   3.7289259  11.0909882
  29.7672310  23.9794865   5.4894185  29.7630768  23.0231018   5.4501562
  28.8448124  24.2259960   5.4215150  84.7478638   3.7238889  46.2471466
  85.0513229   2.8574290  45.9762344  85.2508163   4.3334870  45.7070885
  68.0648117  55.6523361  35.7084694  67.8771820  56.3520889  36.3340683
  68.4731369  56.0978432  34.9661522  72.8637848   1.8387330  47.1071777
  72.7898407   0.8934669  46.9758911  73.2815170   1.9296435  47.9636040
  70.5693893  50.0749626  54.8023872  70.5868912  49.7221794  53.9127426
  69.7829590  49.6959152  55.1949234  26.9602108  14.1988106   3.6780722
  26.6965179  13.3777361   3.2626989  27.9170742  14.1745663   3.6704850
   4.8644495   3.8168273  38.5358353   4.8668141   3.8673487  37.5799751
   5.7882714   3.7384322  38.7738266  75.6039886  50.1708107  22.9744987
  76.2247314  50.3588600  23.6784458  75.7117538  50.8966675  22.3598843
  25.8225403   9.4790840   7.4432821  25.1769638   8.7824364   7.5622177
  25.8254166   9.9479771   8.2777653  46.5524254  41.8262672  17.7670555
  47.1698418  41.0951042  17.7463150  46.6310844  42.1811256  18.6525612
  34.1064720  58.3932114   6.3208838  34.1512756  57.9288216   7.1566849
  33.2147026  58.2393990   6.0089250  16.2287598  51.1758194  82.7691727
  16.4552574  51.9176292  82.2082367  15.7614746  50.5725021  82.1913452
  21.3996925  67.7291183   4.1253052  21.1640301  68.6346893   3.9237237
  20.7813320  67.2023239   3.6189907  19.5543251  11.4396887  10.0977440
  20.1445980  10.7888689  10.4775372  19.8631706  11.5470848   9.1981258
  31.0539989  66.5163269  67.0764008  31.6355152  65.7832718  67.2781372
  30.8433952  66.8966904  67.9291611  55.3539696   0.4031244  55.6110039
  56.1538467   0.7761468  55.9815254  54.8224831   1.1632313  55.3743820
   8.5466690  17.3878746  49.4560280   8.2126789  16.4919167  49.5001106
   7.7623491  17.9365196  49.4639206  29.1545887  10.9571466  10.6226721
  28.7075138  10.1355247  10.8258791  28.4780312  11.6276636  10.7170553
   9.8235645  64.3010254  29.5134277   9.8018532  64.9372482  28.7985992
   8.9027605  64.1109848  29.6929722  58.3978043  36.0605354  74.4046555
  57.9339333  35.9592209  75.2357941  59.3233376  36.0815239  74.6479263
  62.0967255  22.4103355  56.2233276  61.5547562  21.6358356  56.0728188
  62.0583153  22.5493336  57.1696053  23.6495190  11.0532703  54.0796814
  23.1618290  11.7160225  53.5906525  22.9792633  10.4474649  54.3958969
   0.4801941  27.0857182  48.6606102   0.9039602  27.3479538  47.8433647
   0.5881757  26.1351509  48.6921158  59.9150772  68.2938385  72.9698563
  59.8970070  69.0945587  72.4456787  60.0815697  68.5958176  73.8627853
  79.5283356  47.1097717  59.0695114  78.6224594  47.2143364  58.7784958
  79.5028839  46.3634758  59.6683693  34.0399742   8.6466780   8.6949596
  34.1184807   8.8018227   9.6362343  33.1030884   8.7274761   8.5162191
  60.2602654  43.9844131  46.2133484  61.1896019  44.2097931  46.1712418
  59.8067207  44.7925797  45.9737816  63.6527481  57.5527115  29.0598869
  64.2450638  58.3028526  29.1117096  62.8119469  57.9289665  28.7996616
  54.5422668  29.1457806  30.5433826  54.7736969  28.5761738  29.8097477
  55.3809242  29.4818783  30.8594894  65.1975555  13.8039751   6.9227376
  65.3867035  13.2203369   6.1880126  65.1118011  14.6702080   6.5245938
  37.6919174   6.1560683  75.8888550  37.3940010   5.5591335  75.2024536
  38.1638489   6.8440962  75.4196777  13.6664486  10.9639616   7.4088755
  13.6308231  11.2429781   8.3238144  13.6561193  11.7801924   6.9089837
  85.7295151  16.0512657  46.0596657  85.4769745  16.4949226  45.2499580
  85.2458572  16.5113068  46.7457199  60.6987534  41.6975250  67.2533264
  60.0644341  41.1041985  66.8510361  60.8554306  42.3675613  66.5879440
  69.2658539  32.4734230  63.4736862  68.9369965  32.7596130  62.6215210
  68.6234131  31.8309307  63.7748642  53.2792473   9.6551619  52.0945969
  54.0553284   9.2549286  51.7024956  52.6742287   9.7723570  51.3621674
  67.2661285  31.0458374  82.2298660  67.0545120  30.2869034  82.7734375
  68.2131882  30.9920845  82.1017456  15.9026117   6.3651028  86.3572311
  15.6943159   6.2130785  85.4354248  15.2697124   5.8308420  86.8370590
  47.7574921  48.4241753  71.6970444  47.2986717  48.6786957  70.8964615
  47.3354149  47.6082077  71.9658966  72.6985550  31.0868683  37.5721893
  72.0486908  31.6799545  37.1951485  72.8302002  31.4109898  38.4631729
  70.8804321  35.4138641  46.3028984  71.5830917  35.0562553  46.8456841
  70.9065704  34.8904991  45.5018730  25.6306763  39.5135536   6.6960406
  24.9337826  39.4897003   7.3517861  26.2456322  40.1697617   7.0238380
   7.5160780   0.2364992  64.1374588   7.0813932   0.7291845  64.8335495
   8.2656088   0.7789780  63.8921967  42.2636909  23.9901562  10.0654087
  41.5639915  24.5662727   9.7576084  43.0006485  24.1764507   9.4836693
  47.9038277  21.6269035  38.6706543  48.0293045  21.7245369  39.6145592
  48.7658234  21.8054161  38.2947159  42.3176689  46.1477432  15.2904377
  43.2163010  46.3761139  15.5282221  41.9471359  45.7709084  16.0885162
  54.2434921  42.2368393  13.8296423  55.1120758  42.5059891  13.5307312
  54.4154968  41.6217957  14.5426426  29.9951668   9.5068340  64.5002518
  29.7754002   9.5122166  65.4318619  29.7632809  10.3837109  64.1943893
  68.8586426  26.9618855  67.8270035  68.7570877  26.5929451  68.7043839
  67.9942169  26.8689289  67.4265594  24.6284389   6.1229615  76.6335526
  24.2631912   5.9492435  75.7659988  25.3832359   5.5377612  76.6972122
  13.8248529  15.0281343  76.0032883  14.7639399  15.1501274  75.8637695
  13.7016649  15.1704493  76.9417953  19.2336197  70.2440643  22.2399292
  18.9647827  71.1439056  22.4249878  19.6395092  70.2885895  21.3741913
  21.4104595  54.4127769  44.6001205  21.2597828  55.1276436  45.2185822
  22.3222675  54.5189209  44.3288841  61.7262154   3.3043096  49.0438347
  62.3638992   3.7784231  49.5775070  61.4820976   3.9234681  48.3558807
  53.1873932  18.0156841  71.5031662  54.0794830  18.0207672  71.1562042
  52.7278214  17.3647556  70.9727707  42.0469398  24.7173939  67.4524002
  42.1571007  23.7904129  67.6640625  41.7530060  24.7217789  66.5414581
  38.1459465  51.9456177  32.3035774  37.7749901  51.4266357  33.0172157
  38.3803902  51.3013191  31.6356335  56.9563179  59.6888313  69.7962494
  57.8034134  59.3040428  69.5713196  56.9073257  60.4855728  69.2680130
  44.0003357  59.2716026  33.3075752  44.8643913  59.6668930  33.4232559
  44.1621361  58.3287048  33.3391609  59.1253166  21.3975525  25.6762714
  60.0459328  21.5437393  25.8938198  59.0963631  20.4984627  25.3491154
  46.8547935  67.6268005  57.3658714  47.7477264  67.8219910  57.0816078
  46.4995461  67.0692673  56.6736374  28.2709618  47.4403000   0.4079586
  27.4556255  47.5946770  -0.0691424  28.8878460  48.0722656   0.0387633
  43.9814911  45.6130943  12.8543234  43.4497757  45.1299934  12.2217712
  43.6501808  45.3344803  13.7080441   2.4573283   2.1280906  11.9081459
   1.9597787   2.9322572  11.7598476   3.3633742   2.4213684  12.0045862
   7.9819446  52.6752625  60.9157600   8.0370827  51.8242912  60.4809685
   8.8928442  52.9216347  61.0763626   6.0292673  28.8089314  13.6871815
   6.6299605  28.4861240  13.0154705   5.3282328  28.1577511  13.7145128
  74.8464432  65.7529678  67.5254898  75.4939651  65.2697830  67.0121841
  74.8239670  65.3011780  68.3690567  68.9384689  57.9020348  73.7921295
  68.6107635  57.7224464  74.6733780  69.3156433  57.0711823  73.5029144
  48.3595047  66.1562195  60.0095749  47.4419250  66.0386200  59.7637138
  48.8173180  65.4344254  59.5787048  25.5037727  59.6563721  23.4823151
  25.0960350  58.8166618  23.6941395  24.9058800  60.3108215  23.8434944
  21.2643127  56.9717407  66.1730652  21.6088314  57.4651031  66.9174652
  21.4722767  57.5120087  65.4107666  72.6138611  42.7151222  65.4664078
  71.7257309  42.8921661  65.1563873  72.4938431  42.1359329  66.2189865
  47.2382431  37.1578751  12.1468201  47.8235779  36.4676285  12.4585505
  47.8116989  37.7651672  11.6792946  62.1109047   1.4066314  22.4540234
  62.4052544   1.0228703  23.2800484  61.1789322   1.5786266  22.5884857
   0.3911354  32.9483109  52.8404617   0.9961568  32.8470688  53.5752602
  -0.4662438  32.7268410  53.2038918  19.2784691  42.3147278  58.4106789
  18.7670326  41.7551422  58.9950867  19.1026096  43.2045441  58.7165070
  36.8141327  61.3871002  62.7050972  37.3679314  60.7100487  63.0938568
  36.2853966  61.7117538  63.4339790  55.5297127  51.1756096  85.0782013
  54.5755310  51.1287651  85.1380081  55.7704887  50.4423485  84.5119934
  30.0552635  56.3293839  40.2647171  30.4256153  57.0045509  40.8332443
  30.8122730  55.8239517  39.9685669  39.6230507  52.1359482  65.0974274
  40.5510292  52.3704834  65.0884171  39.4837646  51.6777039  64.2686691
  43.9404182  62.9566689   9.4659958  43.1337624  63.4014931   9.2058697
  43.8731499  62.0877762   9.0701056  18.4440651  65.9104538  69.4760895
  18.0627136  65.2279663  70.0283661  19.1573277  65.4722214  69.0119324
  40.3672371  56.1615448  28.9890804  40.1879272  55.4397354  29.5916348
  39.5028114  56.5038109  28.7613659  32.6817741  64.1549835  70.6871796
  32.6191673  63.7457886  69.8241272  32.1797981  63.5779915  71.2628021
  79.0042114   6.8050332  70.8945694  79.8220520   6.5927711  70.4447632
  78.8225937   7.7114563  70.6462936   6.2910466  67.3316269  75.9206848
   5.8552384  66.9921875  75.1389694   5.5751367  67.6015930  76.4958572
  71.4731216  66.4859772  52.1766777  71.1543732  66.0137939  51.4074707
  70.8825378  66.2212906  52.8819351  62.2363777   4.6975017  11.3735046
  62.5273781   4.5129337  10.4804850  61.2883911   4.5674434  11.3481960
  10.7999058   1.2095224  82.3048248  10.6836090   1.0314039  83.2380905
   9.9796534   0.9240005  81.9024582  72.6783829  13.4452114  28.4209747
  73.1639099  12.8879852  29.0292435  73.0715561  13.2667007  27.5667019
  52.3031006  22.1811581   9.5941257  51.9336929  22.1579762   8.7113848
  52.2187538  23.0953083   9.8651314   1.8715099  15.5124722  32.6028137
   1.1152838  15.5692215  32.0187454   1.5645220  15.8856773  33.4290733
  16.1773071  21.3032188   6.8128328  16.7387733  20.7196999   6.3024483
  16.4787617  21.1969967   7.7150931  75.2168732  38.0176582  30.7337322
  74.7264481  37.2304459  30.4970627  74.9611664  38.1961174  31.6387177
  40.5117798  66.9676208  40.9349098  40.7104721  66.5749969  40.0848503
  40.9540977  67.8162842  40.9160194  22.1496849   6.3864255   1.6297340
  21.4294434   6.1349783   2.2078841  22.5771103   7.1137528   2.0819910
  40.1342583  46.1313553  52.3403702  39.5361481  46.6143150  51.7700653
  40.4631271  45.4180069  51.7933693  53.7807693   1.2263180  64.1354980
  52.9546661   1.2775544  64.6162949  53.9300461   2.1176715  63.8201637
  54.3090096  49.2154846  73.7642441  54.7791100  49.3833046  72.9475021
  53.5050507  48.7734184  73.4913712   7.7813692  55.6967125  61.0021744
   7.7375979  54.7422409  61.0596123   7.1479001  55.9250221  60.3218613
   3.9914894   0.1770858  83.1578827   3.6427805  -0.4499492  83.7914963
   3.2178171   0.5245367  82.7141037  44.7578316  22.5721703  15.4798927
  44.5219345  21.6511250  15.3691616  45.7077026  22.5918198  15.3633175
  42.4284973   3.0677752  34.2732697  41.5684471   2.9329832  34.6712303
  42.8028259   2.1891823  34.2085724  58.7813225  47.8908844  47.6039352
  59.2916031  47.3387947  48.1964264  59.2549133  47.8521423  46.7730103
  48.9479256  61.2979164   5.8442073  48.5982857  61.0509224   4.9880657
  49.1367950  60.4644279   6.2753177  22.2109261  54.4250298  79.2298126
  22.2211494  53.5890579  79.6959457  21.3325825  54.4785004  78.8531342
  60.2989197   2.4061382   2.8809800  60.1606445   3.3495121   2.9655848
  59.8675613   2.1736338   2.0587232  44.3643837  44.8751602  30.9768963
  44.6590805  45.3836212  30.2213497  44.1498947  45.5323601  31.6389503
  47.3315887  59.1346664  27.2863922  46.3927612  59.0977211  27.1034470
  47.7461052  58.8649178  26.4668522  11.6624022  45.8855324  86.8839035
  11.8661051  46.0857887  85.9703217  10.7591848  46.1810913  86.9982452
   0.8347017  18.7841377  77.1661682   1.5086728  19.2267399  77.6820145
   1.2972471  18.4648514  76.3913498  79.0329590  39.9308777  40.0228729
  78.3197632  39.4072151  39.6576920  78.6162338  40.7503357  40.2894516
  20.7239780  19.4395790  64.5588837  20.3754997  19.6777630  65.4179840
  20.0458736  19.7130680  63.9411392  14.7837238  50.9159241  32.8537521
  15.0290394  51.1479149  33.7494278  13.8574915  51.1491547  32.7910652
  71.1820297  13.8097658  11.6616716  70.5985641  14.5204086  11.3956156
  70.8570938  13.5422249  12.5213623  39.4821777  18.3967228  75.7009506
  39.9204521  19.2358875  75.5597000  38.5513916  18.5911541  75.5911102
  83.8151627  58.2309647  83.5879364  83.9658661  57.3184967  83.8347549
  84.4064407  58.3803062  82.8501587  20.4926739  16.1869736  43.8719940
  19.6640987  16.5385056  43.5462303  21.1358719  16.4356651  43.2081566
  86.8854218  61.6128654  22.5271187  85.9833374  61.2931557  22.5432682
  86.8788757  62.3156090  21.8772430  14.8350563  58.3492432   5.2256370
  15.3731499  57.7640190   5.7587414  14.0931215  58.5712624   5.7881947
   0.3237050   4.8173752  64.4693222   1.0745660   4.9071050  63.8824806
   0.5237832   5.3967013  65.2045670  60.5519028  63.3206062  62.1980705
  59.9656639  63.8343582  61.6425362  60.9709396  63.9669533  62.7662926
  73.1508484  56.3387566  17.2651997  73.7067719  56.9678993  17.7249432
  73.1887360  56.6109085  16.3482857  54.1143646  69.5271454  56.7115860
  54.4659576  68.8954926  56.0841904  54.4121819  70.3773193  56.3879471
  36.1551476  47.4587860  21.5012131  36.0411186  48.2849731  21.0314865
  36.8601303  47.6331215  22.1247826  26.7065201  70.6788864  33.5400963
  27.3125000  71.1603165  32.9768486  27.2108765  70.4950180  34.3325920
  78.9887466  36.6086960  80.3623734  78.9839554  35.7639084  80.8124237
  78.7201385  37.2381325  81.0316238  47.1385307   0.6769702  10.4622364
  47.2083588   1.1082724   9.6105709  47.1405907  -0.2581875  10.2580118
  29.6947384  56.8832169  63.6194077  29.3344460  56.8396988  64.5051422
  30.5667591  56.4960403  63.6962585  33.1443214  54.2334824   3.5900619
  32.5384941  53.4981766   3.4976912  32.7527199  54.7825890   4.2692966
   2.0404487  48.0632935  48.1871185   2.8474114  48.1555557  48.6936073
   1.8535845  47.1246490  48.2031746  31.4911442  58.7016373   5.8231459
  30.9235020  59.0445938   6.5133615  31.2389965  59.1913376   5.0402985
  67.1212463  11.2755661  45.1605453  66.4368286  11.9437008  45.1232300
  67.6752853  11.4575834  44.4015045  71.6780472  62.4533234  66.8564529
  72.3339691  62.3632545  66.1651535  72.0690308  63.0661278  67.4792175
  54.5430794  58.6984749  62.3357353  54.7004509  59.6099892  62.5819168
  55.3128090  58.4526596  61.8225822  50.5266953  67.2073059  61.0997810
  49.7621651  66.6550522  60.9362755  50.1641846  68.0196457  61.4532356
  78.3062363  22.8063965  61.0389748  79.1287766  22.3455296  60.8738670
  78.3566589  23.0640717  61.9594612  64.6967010  57.8100777  64.6251068
  64.2826691  58.5842285  64.2436600  64.7692871  58.0123444  65.5578690
  15.2565203  50.5744858   9.6101923  14.5803175  50.0922699   9.1343231
  14.8732986  51.4385796   9.7608986  68.8886719  15.0942621  10.9589386
  69.1947479  16.0011120  10.9720497  68.0502396  15.1177711  11.4201355
  10.6606398   4.7757845   9.0658188  10.1065578   5.4853988   9.3908939
  11.1511631   5.1668987   8.3428745  25.2632618  26.2046833   1.2817802
  25.0763512  26.6906338   2.0849919  24.6823158  26.5918484   0.6269240
  70.6416626  22.9891472  84.0897293  70.1204834  22.3904629  84.6246872
  71.4347916  22.4954300  83.8813477  84.4448318   7.6093149  50.6325722
  84.4202881   8.5385599  50.8609009  85.2937851   7.4896069  50.2069130
  24.6930084   7.7523613  19.9052296  24.6697197   8.4402571  20.5704269
  24.7757645   8.2235851  19.0761738  63.6567307  59.7099686  82.9041672
  64.4153824  60.2257004  82.6308517  63.0097847  60.3610535  83.1757965
  44.9824677   3.9123576  23.8323860  44.1276093   3.5738394  23.5662003
  45.4452515   4.0682859  23.0091305  69.7554016  30.3870773  27.5590591
  69.5157166  29.8220348  26.8245449  70.6948013  30.2441921  27.6745605
  83.5530167  38.6548004   1.2941505  83.8237686  38.5215950   0.3857567
  83.3271637  37.7790451   1.6076351  19.8316154  46.4080658  87.0041885
  20.5044136  47.0274010  86.7213516  20.2742977  45.5593987  87.0094452
  58.4425735  45.8852882  19.4453678  58.8164520  46.7323532  19.2026157
  58.1684952  45.9964981  20.3557224  52.6014900   9.0429697  38.1319504
  53.2922134   9.2691402  38.7548294  51.7872925   9.1913919  38.6128693
  55.7830353  13.6129913  51.3890343  56.4057312  14.2230549  50.9936790
  55.1566887  13.4237452  50.6903877  41.8107719   2.0501130  61.0574188
  42.5610199   1.7496593  60.5445023  41.3910179   1.2454859  61.3617401
  76.0764771   8.0845823  42.1610451  75.6547623   7.9058900  41.3205299
  75.4052734   7.8837709  42.8132629  46.7323837  39.2956619  55.1811066
  46.7849693  38.4673691  54.7042427  45.8454170  39.3090744  55.5407562
  44.4445114  45.2847328  51.6620636  45.0305901  46.0273476  51.8078842
  44.9817696  44.5151176  51.8498993  17.9884300  50.2748718   9.9868546
  17.0580769  50.2359085   9.7651405  18.4121914  50.5879402   9.1877012
  51.5511551   2.0468287  40.7672424  51.8682480   2.7170665  40.1618805
  50.6953163   2.3670688  41.0522232  45.9785919  12.1665239  82.3397827
  45.9761696  11.4145174  81.7475739  46.1611137  11.7921133  83.2015991
  72.9339523  51.5825500  43.8020134  72.4534912  52.2137299  43.2662849
  73.8174362  51.5792084  43.4336739  46.8367577  51.2801285  43.4808273
  45.8882675  51.3966675  43.4259109  47.1319389  51.9862213  44.0557442
  43.7344818  25.5055523  76.3779221  44.4929581  25.4964314  75.7940826
  44.0165100  26.0278797  77.1288300  61.5842667  63.8321609  88.3051376
  62.4250069  64.2851334  88.2402878  61.7561188  63.0900536  88.8847733
  35.5391846  50.0721703  65.1043701  35.8625679  50.0399399  64.2040253
  34.7177315  49.5813293  65.0815277  40.0650139   8.3009157  82.2800674
  39.9023857   8.9603710  81.6056061  40.9836464   8.0591879  82.1621323
  35.2202606  24.9769917  85.6316757  34.5831566  24.4832211  85.1154175
  36.0364075  24.4856033  85.5385513   8.6190796   7.9793868  13.4348888
   8.9545631   8.2282171  14.2961464   7.6961045   8.2322454  13.4551649
  54.1050720  68.6729202   0.4913009  53.9431763  68.9343643  -0.4151574
  53.8812866  69.4472885   1.0075394  56.9422150  43.6753502  33.9541969
  57.1603012  44.6055908  33.8965836  56.0386963  43.6602707  34.2698860
  43.0206451  56.5172729  49.2452698  43.0464668  57.1085815  48.4929924
  43.9268456  56.2290268  49.3545570  45.2583427  48.9680748   0.4502507
  45.7897835  48.1998482   0.2413717  45.4797478  49.1726494   1.3587447
  71.8049393  66.7173996  43.6401939  71.1496887  66.1847458  44.0909271
  71.8275986  67.5373840  44.1334991  82.2350464  63.8971519  69.2141190
  82.6430054  64.2519836  70.0039902  82.6519165  63.0442352  69.0917053
  59.5326958   6.3763523  53.3891830  59.4409370   6.1219950  52.4709702
  59.7565613   5.5631547  53.8417587   9.0837202  48.1395454  46.6571503
   8.7897568  47.3043022  46.2935753   9.8485947  48.3736725  46.1314278
  79.8756332  63.9428139  85.2342224  79.0457077  63.7553444  84.7956924
  80.1188507  63.1157837  85.6502686  68.3938370  64.5145645  43.0159187
  69.1906433  63.9857941  42.9743462  67.7591782  64.0335312  42.4848289
  36.8858070  62.9546471   3.0295351  36.3467293  63.1098137   3.8051298
  37.1536369  62.0386467   3.1033564  36.5640144  24.4704342  81.0684967
  36.7665634  23.7888775  81.7093506  35.9295921  25.0343132  81.5109711
  52.2236137  52.6063004  76.9395752  52.1416168  51.6535759  76.9822617
  51.9078445  52.9122086  77.7898331  15.2822981  57.3979301  28.5417709
  15.8255177  58.0212784  29.0240383  14.9894037  57.8824921  27.7699890
  80.3718948  68.0715179  42.6950722  79.6049576  68.3674316  43.1854591
  80.8646774  68.8721542  42.5151215  59.8846664  54.6321869  43.7961731
  60.5260201  55.2580910  43.4598122  59.4487267  55.0965767  44.5106888
  42.4599915   8.8884039  68.2108459  41.6647797   8.4009953  67.9956741
  43.1483612   8.4604673  67.7016830  18.8937416  51.2038803  17.7013988
  19.5312767  51.2179184  18.4152508  19.3602467  50.7964096  16.9716225
  84.5200729   4.3009400  37.7584190  83.5974426   4.0465722  37.7751732
  84.8012848   4.1231136  36.8609085  42.1598816  38.4562836  64.1388245
  42.7308540  39.1388054  64.4915085  42.7591095  37.7665634  63.8534393
  32.5244713  25.2421131  68.4715118  31.7536755  25.0499096  69.0055161
  33.1308823  24.5258083  68.6596832  39.4263992  62.0252457  86.2399673
  38.9146843  62.6710854  86.7270737  39.8005638  62.5177193  85.5094223
  34.8588409  29.0165958  54.2452698  35.4541779  29.5931740  53.7663536
  34.0010872  29.4324532  54.1583672  50.0838699  11.8766527  26.4600430
  50.7314110  12.5324574  26.2015018  49.2671738  12.3681011  26.5478878
   6.5439868  58.2768745  83.3402100   6.9695563  58.2327499  82.4839554
   5.7454538  58.7813644  83.1850815  11.0587502  18.0554676  82.8134232
  10.5989494  18.8893814  82.7164536  10.7356539  17.5182819  82.0900421
  60.3328362  58.6081047  81.6191711  60.8952789  59.1181564  81.0363007
  60.9111061  57.9385681  81.9846191  15.1509361  51.2756958  22.1636734
  14.4910583  51.8924141  21.8467293  14.7984180  50.9529800  22.9930210
  78.5570526  22.3701763  83.6673431  79.4926300  22.4923134  83.8285980
  78.4948654  21.5056324  83.2612305  69.2441864  47.7456474  83.3833160
  68.3226471  47.5644455  83.5681763  69.2537079  48.0300560  82.4693985
  48.8494835  67.6206970  23.0522556  49.2156143  66.7363968  23.0659008
  47.9172592  67.4912872  22.8777828   0.3485340  31.4727268  16.4076920
   0.2170788  32.4054031  16.5781784   1.2140861  31.2827606  16.7695827
  70.0293579  10.4797478   3.4875722  69.5465317  11.2225380   3.1251104
  69.8580017   9.7621346   2.8777339  50.5618324  34.2466545  18.0281601
  50.3571434  33.3967285  17.6383324  50.9920692  34.0330353  18.8561058
  46.6758537  15.7726784  80.0212021  46.6625633  15.1280766  79.3137054
  46.2702637  16.5525398  79.6423264  12.5981026  52.7544823  23.3267403
  11.9720106  52.8509560  22.6091499  12.9790449  53.6263924  23.4310799
  62.0026970  51.6648941  72.9372559  62.3211708  52.5447273  73.1389847
  61.1734848  51.8090096  72.4813232  79.3325500   4.3285151  57.7582245
  78.7075653   3.6089473  57.8468094  79.9125595   4.0558262  57.0472679
  22.8849621  43.5284615  40.4229774  23.0002880  43.4162941  41.3665619
  22.7279549  44.4659920  40.3106461  28.4048214  56.3972740   0.6268260
  27.5204601  56.1635437   0.9087963  28.7233009  55.6198120   0.1681765
  53.9446640  56.7846069  58.1009331  54.7926865  57.1523170  58.3496933
  53.3599968  57.0227432  58.8204384  36.0348892   0.7757316  13.6826763
  36.7307472   0.7809381  13.0254192  35.6904640  -0.1170598  13.6597624
  15.4842377  15.7747307   0.7823293  14.8849840  15.3419504   1.3904639
  16.3445587  15.6909924   1.1935053  42.2547531  61.8535957  46.9002647
  42.3029175  61.3741074  46.0732193  41.4221992  61.5818100  47.2865562
  14.7520523  30.4429646  79.7404938  15.6862574  30.2670441  79.6284866
  14.6210346  31.3036823  79.3427124  65.0901031   5.2880654  42.0178604
  65.0811615   6.0695796  41.4652443  64.1879807   4.9688225  41.9958534
  73.4240952  22.5193939  26.1488056  74.2140503  22.6194267  25.6175766
  73.5051498  23.1898556  26.8271465  64.5196915   6.3045387   0.8312089
  65.2275238   6.5430789   0.2326207  64.9621201   6.0941043   1.6535255
   6.3816738  57.4696732  50.2461586   7.2021456  57.1643105  50.6332130
   5.7221699  56.8541908  50.5662689  37.0692329  45.0892601  69.4995728
  36.9011536  45.1501846  68.5592194  37.6830330  44.3599167  69.5864182
  25.2305470  39.8469925  25.6548252  25.7229118  40.2971954  26.3412113
  25.2726650  38.9219780  25.8973198  59.1648598  43.7859230  82.0509109
  58.3728867  43.2531891  81.9787598  59.6989136  43.3338699  82.7041092
   3.8374743  42.3242416  75.0857315   4.0292912  41.7040215  75.7891235
   2.8841717  42.3039436  75.0018616   6.4472446  25.7826862  77.8126831
   6.4470396  26.2059460  76.9541473   7.2998476  26.0027523  78.1880112
  67.9318237  43.9631042  72.7798462  68.7117081  43.8942070  72.2291565
  68.2587509  43.8538513  73.6728210  49.5419388  56.1315727  87.3496399
  49.7874718  55.2774620  86.9940567  50.3233795  56.4312439  87.8141632
   8.0797186  20.7986984  23.6797276   8.4387150  20.9421062  24.5553932
   8.7108707  21.2129993  23.0913105  59.7113037  17.0384064  74.8955917
  60.5906868  17.4154243  74.9234543  59.1311646  17.7672005  75.1158829
  81.7385788  57.1261749  18.6796436  81.3942490  56.4283142  19.2370167
  81.1114044  57.8425827  18.7778492  10.6105404  42.2528229  69.8125610
   9.8312349  41.6973495  69.7935562  10.4772806  42.8769226  69.0991364
  24.2422485  48.8442154  25.0079536  23.3901901  48.4335327  24.8610897
  24.0491524  49.7793961  25.0741863  13.6968594  59.4692116  84.9665146
  13.7900524  60.4205399  85.0167236  13.4948492  59.2007065  85.8628006
  70.5936661  32.7693329   1.5664011  70.8174973  31.8526745   1.7272383
  70.8665085  32.9274864   0.6626451  86.1638412  55.2754440  41.5672989
  86.1961136  56.1352272  41.9867706  85.4230042  54.8339767  41.9826202
   9.3672295  66.8045425  73.8414688   8.5940075  66.2917099  74.0767593
   9.4210243  67.4804611  74.5170898  19.1491547  48.5094833  68.8286133
  18.6310005  49.1178284  68.3016739  19.2654915  47.7441063  68.2656708
  36.7991104  46.1552086  25.2053394  37.4418526  46.5564651  25.7902412
  36.0265884  46.0209961  25.7543640  75.4053802  68.2871857  20.1711502
  76.0045395  68.4182129  19.4362564  74.6395798  68.8186111  19.9535122
  66.3768158   6.2715583  87.6729050  67.0060349   5.9843903  88.3346100
  66.7598419   5.9926686  86.8411865  61.4808540  24.7210999  26.1631641
  62.0290222  24.6880684  26.9471607  61.6949005  25.5607452  25.7564545
  31.6415920  45.4701920   9.4204435  31.2311573  44.6056442   9.4386301
  32.0670204  45.5153923   8.5641727  17.7711315  14.1214361  57.6939507
  17.9715424  15.0573454  57.7058907  16.8278503  14.0804729  57.5365601
  71.5446167  67.9854431  78.2180862  72.4462433  68.2196350  78.4382248
  71.2612839  67.4211121  78.9374466  57.0355377  20.8049984  38.3724403
  57.5341225  21.4880905  38.8208046  57.5851898  20.0242119  38.4394417
  12.7794533  65.7363129  44.3240929  13.2724361  64.9315720  44.4840660
  12.2803726  65.8754578  45.1289482   5.3792567  50.4865875  67.5727081
   5.8825355  50.4191818  68.3841248   5.9573679  50.1240120  66.9014740
  73.9500809  48.4977646  82.5236740  73.9643555  49.4394989  82.6944580
  73.8184814  48.1002197  83.3844147  60.6107712  36.0762482  41.7083473
  61.4563828  36.1521835  41.2663040  60.0739250  36.7662354  41.3185425
  52.9765434  41.8342361   4.1479945  53.4003601  41.7692299   5.0037899
  52.0784760  42.1004410   4.3450742  69.3518372  16.1817455  30.5685368
  69.7939835  17.0207005  30.4385548  69.8217850  15.5725756  29.9990673
  17.5997047  50.3468132  37.2561111  18.4657650  49.9919395  37.0555267
  17.2558365  49.7687187  37.9371338  86.1030731  56.0944328  38.5344086
  86.4415741  55.8185730  39.3862038  85.2436752  56.4688339  38.7280312
  80.2193527  65.4902267  30.7091255  80.5622025  66.3770447  30.5984821
  80.4350967  65.2610779  31.6131020  64.5654526  36.0361481   6.9631753
  63.9422569  35.3195953   7.0832186  64.0611343  36.8268166   7.1548553
  17.4542732  62.0022469  22.0311203  18.1520977  61.4166832  22.3250389
  17.5573463  62.0392990  21.0802078   7.1938057   6.0752215  67.3594818
   7.3750730   6.6517367  68.1017761   8.0247822   6.0244875  66.8871078
  30.5769634  60.4775467  27.2830067  31.3096676  60.8955574  27.7353840
  30.2889862  59.7873344  27.8804207   9.7772608  66.8941650  62.9436798
   8.9683008  67.0835342  63.4190254   9.7410469  67.4616241  62.1736755
  44.2572746  65.5635452  20.3151913  43.4610023  65.4551697  19.7951546
  44.9470634  65.1680374  19.7822781  74.0617828  66.1472168  52.9172020
  73.1237946  66.1810760  52.7294197  74.1598969  66.6337433  53.7356758
   4.4779539  62.9267426  58.4686813   3.7599373  62.3407516  58.7080574
   4.3403950  63.7063408  59.0067673  57.7993126  64.8869934  73.4681702
  57.5935631  64.9931107  72.5393906  57.1718216  64.2346344  73.7794876
  86.0202332  20.0850487  61.2709503  86.1360245  19.1421738  61.1534309
  86.8898697  20.4541874  61.1170120  46.8981705  64.2867966  13.7818766
  45.9432373  64.3474121  13.7561884  47.1084862  64.2123566  14.7127142
  74.9520187  67.9205170  44.2993965  74.0569153  68.2508926  44.3760071
  75.0414886  67.3010559  45.0236168  26.9329700  34.3425102  20.3572712
  26.1874599  34.1375961  20.9215927  26.6029549  35.0121651  19.7581997
  25.4640560  65.5757446  73.6973495  25.5318604  64.6354980  73.5312958
  25.8047619  65.9846497  72.9017715  55.2931900   5.9482594  76.0351486
  54.9414330   5.1065650  76.3250580  54.8089256   6.5983481  76.5441742
  57.2420692  20.0977955  33.6503983  56.6784935  20.3887978  34.3672867
  57.0980225  20.7409725  32.9562759  48.7494164  22.1312962   9.2053375
  48.2358208  21.9314690   8.4227009  49.1989136  21.3119812   9.4124870
  78.7082520   2.2000206  78.9322891  79.0320587   3.0929632  78.8138275
  77.8285599   2.3101544  79.2931976  29.5017281  65.6730652  44.8017311
  29.7477341  65.7431793  43.8793411  29.3631821  66.5777359  45.0820961
  81.8448257  65.1592407  33.1028976  82.0180969  64.2318497  32.9411697
  82.6340714  65.6070404  32.7982597  19.9633312  66.0166321  64.1698074
  19.3829880  65.2554703  64.1610413  20.8248768  65.6634979  63.9478302
  82.6373215  30.0727272  15.0143957  82.1908493  29.2916317  15.3411732
  82.1107788  30.3542099  14.2662315  69.6225739  22.0508232  33.0806046
  69.4677353  21.1872616  33.4633751  68.7480469  22.4235878  32.9688797
  32.0629387  54.0716362   7.2011333  32.0688438  53.1145172   7.1902537
  32.9864540  54.3161888   7.2606912  28.6597080  67.0698929  72.9606934
  29.4841824  67.5553436  72.9890747  28.8267517  66.2835541  73.4803162
   2.8445883  29.1022644  39.6088219   2.4552674  28.2280865  39.5870667
   3.7545269  28.9528847  39.8655891  77.0547104  69.0113449  55.8728790
  77.8946152  68.7118759  56.2208977  76.4820328  68.2471848  55.9386559
  76.7161789  53.5968933  56.8047943  77.1415329  53.0851288  56.1167526
  77.0901794  53.2607307  57.6192551  38.1271095  62.0852890  32.8341179
  39.0837250  62.0774536  32.8015633  37.8895798  62.9991112  32.6768227
  29.1381073  37.1821175  82.2727051  28.3340092  36.7061844  82.4804077
  29.6248074  37.2011452  83.0967178  71.2652969  57.0795403  88.7159042
  71.9183502  56.5236320  89.1410217  71.2244263  56.7557945  87.8160477
  37.7599335  64.5312271  40.2403717  38.3764000  64.3208008  40.9417419
  38.2645149  64.4154205  39.4352531  10.9945316  53.0558472  78.1438522
  10.2664385  52.9510460  78.7563324  11.1471090  52.1755562  77.8002853
  77.7109375  68.0590744  63.2380066  78.1523743  68.8981705  63.1065636
  77.5689850  68.0086060  64.1832733  50.4964600  64.0855179   8.8876820
  51.4374962  64.2156448   9.0049353  50.2501602  63.4770851   9.5843706
  75.7148972  63.3216095  72.4323807  76.1358414  62.4883804  72.2207947
  75.8865891  63.4464836  73.3657379  29.0075836  20.9833012  85.6515121
  29.0929508  21.0087318  84.6984634  29.4551792  21.7737713  85.9532547
   9.3886604  36.5867462  72.2975159   9.2718697  36.8900299  71.3971710
   9.6612549  37.3673706  72.7797470  56.0777245  45.1667366   7.3854446
  56.9420967  44.7770042   7.2543030  55.4716949  44.5480995   6.9777126
  57.8583679  -0.0139097  19.7598019  58.2620506   0.2476392  20.5873680
  57.5231133   0.8021173  19.3884048  13.0716286  60.1466827  70.0584106
  13.4434547  60.5253143  69.2617798  12.1732006  59.9193954  69.8188248
  75.2629395   4.6351418  17.2378197  75.8184052   5.4139142  17.2724190
  75.8639450   3.9054096  17.3878536  45.3883362  27.2892895  45.3843002
  45.4477043  27.1359558  44.4413300  44.6446571  27.8836327  45.4839592
  84.0781479  32.2593040  26.2135944  83.7433624  31.4606190  26.6213379
  85.0301361  32.1699905  26.2580299  63.3637733  18.0964928  77.6037827
  64.2625961  18.4029465  77.7239532  62.9617500  18.1887989  78.4675446
  54.2193489  28.3641510  11.1281290  54.8267899  28.4809608  11.8586102
  53.3932190  28.1132259  11.5413847  59.3083458  27.7976131  13.3179359
  59.6464386  28.2843361  14.0696182  59.1720276  26.9099121  13.6490498
  26.5221539  47.8266678  61.4936066  26.6219616  47.2632942  62.2609940
  27.2257423  47.5552559  60.9040871  56.4545860  55.6522522  69.6904449
  56.8819046  54.8346634  69.4351425  56.7181282  55.7861099  70.6008682
  67.9360809  27.6100178  21.3303490  67.0635834  27.7846508  21.6831741
  67.7732544  27.1980152  20.4818363  48.9612808  57.8137131  57.0058861
  48.7481384  58.6230240  56.5413246  49.4753723  58.0993385  57.7611084
  47.8490524   6.8187156  36.9098816  47.4412422   7.2924623  36.1849785
  48.3957787   6.1570625  36.4861603  57.2707596  23.4599819   6.7965174
  56.7034798  23.3840427   6.0292768  57.9150734  24.1247082   6.5531454
  15.4368343  49.6979141  55.2115173  15.0642653  48.8300934  55.3674316
  15.0212021  49.9951057  54.4020958  82.7330704  59.3729401  40.6496353
  82.6028976  60.0385399  41.3251076  81.9789047  59.4709053  40.0683632
   5.5051136  34.9272919  40.1614876   6.0324535  35.2588005  39.4346809
   5.4245028  35.6715965  40.7579269  62.0831299  42.0531883  12.6718283
  61.7255783  42.4839478  11.8954029  63.0290718  42.0429649  12.5258169
  25.0255642  54.1626663  16.3751965  24.9410534  54.8995743  16.9802227
  25.0792980  54.5682182  15.5098228  51.7944603  40.8548088  83.8267136
  51.0206337  41.0529976  84.3541107  51.7746849  41.5004845  83.1203537
  54.4491997  45.8948746  47.1258011  55.0570946  46.4250412  47.6411819
  54.2404861  45.1516266  47.6917114  81.8622513  43.3209343  44.1133461
  82.5907364  43.8990860  44.3398170  82.0243149  42.5230370  44.6166573
  23.7254810  62.5197296  15.9928560  24.4768810  62.0953979  15.5786467
  23.7907887  62.2746849  16.9158516  79.9759750  60.8236237  60.3252487
  79.7661209  60.0059586  59.8740120  79.6040115  61.5070992  59.7678146
  70.9880600   8.0102453  48.3023911  71.8930206   8.0798368  48.6064072
  71.0508728   8.0648279  47.3488121  19.2646370  68.7996063  81.1338730
  19.5252914  68.9784317  80.2303696  20.0738354  68.8850632  81.6379852
  51.1260567  71.2667236  47.4941406  51.8574600  71.3314819  46.8800659
  50.8875656  70.3397446  47.4856720  51.5774345  22.5326042  27.6028538
  52.0555725  22.4261189  26.7804909  51.0655975  23.3321571  27.4805126
  27.4452419  30.9890690  17.1059723  27.0237370  31.6639690  17.6380215
  27.7971001  31.4631081  16.3525066  25.1900177  15.8462067   2.3404958
  25.1327934  15.4165964   1.4870367  25.8629951  15.3547049   2.8114088
  53.3434486  70.4613800  49.4398384  52.8964577  70.7361374  48.6392517
  53.5679131  69.5436859  49.2859268   5.3443780  62.2477074  47.9402504
   6.0751028  61.7533722  47.5688934   5.2977300  63.0421295  47.4083176
  52.2928734  35.1021957  38.2230225  52.4719276  35.3078957  37.3054924
  51.4739914  35.5589485  38.4154854  50.4750481  59.2646561  83.5433350
  50.2579498  59.8969841  82.8583069  50.3541374  59.7467842  84.3613663
  53.0146103  45.1386147  85.5982513  53.3033943  45.7051620  84.8828049
  52.1750336  44.7873650  85.3016586  75.4128265  70.1013794   5.9909067
  75.3307114  69.6279526   5.1630406  75.2002945  71.0082397   5.7703204
  25.0007286  51.2801170  87.0187759  24.0521374  51.1595306  87.0619431
  25.2900181  51.2318573  87.9299316  59.5286751   3.1630249  37.5940323
  59.5298157   2.6519377  38.4033661  58.6024132   3.2583632  37.3722725
  32.0725479   6.7271910  60.4934082  31.9313965   6.8680625  61.4296036
  31.1913567   6.6574187  60.1261635  63.6478462  23.7581196  68.7948532
  64.3517151  23.4592514  68.2191086  63.8374252  24.6844330  68.9439697
   5.9796438  48.8099861  44.1109352   6.9011750  48.7961121  43.8524399
   5.8500800  47.9858208  44.5801811  10.2755985  56.4822006  83.7062378
  11.1851263  56.2108345  83.5823364   9.8801260  56.3976555  82.8386612
  81.9538422  51.3037453  13.1587210  82.7109070  51.8876457  13.1124001
  82.3314819  50.4263229  13.2199469  81.5447006  27.9934387  34.8382797
  80.9631729  27.2384148  34.9277115  81.1834335  28.6463509  35.4377975
  77.3585129  27.5945091  17.5538712  78.2028885  28.0453300  17.5486431
  76.9531403  27.8355675  16.7209301  76.6382370   2.8989298  66.4886246
  76.2910843   2.7714188  65.6057510  76.4344635   3.8107390  66.6967316
  34.9532242  51.1722260  53.3623123  35.6524506  50.8600159  52.7880020
  35.3275719  51.9353867  53.8024025  27.3017311   5.8589540  11.1537008
  27.2717152   5.1025267  10.5679121  28.2216492   5.9277129  11.4091463
  59.0189514  70.9852676  62.4368782  58.5363693  71.7423630  62.7687607
  59.8639755  71.3414001  62.1624031  42.2194710  21.4246807  65.1509628
  41.3505173  21.6418953  65.4885635  42.7025871  22.2503490  65.1841354
  61.1415520   8.5389738  53.7243805  60.3261681   9.0253773  53.8460045
  60.8742714   7.6198487  53.7232971  84.4092636  14.2085657   6.4690061
  83.7317429  13.9119110   7.0766158  85.2332611  14.0149441   6.9159660
  54.2660103  35.8833275  44.2474098  54.1171188  35.5333862  45.1258202
  53.6622658  35.3935623  43.6889687  48.8568649  44.8710670  32.9596596
  49.4025154  44.0931511  32.8441277  49.1909142  45.2816391  33.7572060
  84.9614258  27.3118973   7.3276739  85.5130081  26.5959129   7.0124683
  85.4347305  28.1060028   7.0794535  59.0450058  68.4525833   7.3011708
  59.4942131  69.0648575   6.7184463  59.5944023  67.6687851   7.2945695
  12.8251724  57.4875259  67.8366547  12.5940514  58.1310196  67.1667862
  12.0459881  57.4266815  68.3892899  49.2814064  18.8354950  63.0690498
  49.3519135  19.6100178  63.6270599  49.3114357  18.0978260  63.6782913
  55.4427872  53.4142609  27.1787186  55.1114616  54.2911072  27.3726063
  55.4375877  53.3621750  26.2229500  44.2923965  26.4196682  70.0544357
  44.8126793  25.6733799  70.3520813  43.3967323  26.0848942  70.0104218
  50.8714256  67.2230606  42.0844002  51.3570251  66.4322815  42.3191261
  50.4685974  67.0153503  41.2412987  12.3039961  50.9227028  40.8849258
  11.7909260  51.5997925  41.3259926  11.7542105  50.1402588  40.9267502
  43.4194183  38.1335564  20.9938297  43.5241165  38.8007011  20.3154583
  43.2643127  37.3223114  20.5100307  74.5416946  35.5874825  37.4035263
  74.5033188  34.6439705  37.2468681  75.3947525  35.7275314  37.8145256
  34.0872383  43.1764870  10.3012466  33.8334656  43.3589249   9.3965101
  34.0579147  42.2222443  10.3704510  68.0394211  22.4880161   4.2673988
  68.5932388  22.0922241   4.9403553  68.6049728  22.5497513   3.4976094
  56.1747131  18.6543789  75.0080795  57.0540619  19.0319271  74.9872589
  56.1772881  18.0835247  75.7764282  81.3794785  46.1399307  62.9602852
  82.1906662  45.6462936  63.0808372  81.6332474  46.8900604  62.4225693
  69.4945297   1.1903330  42.5598869  69.6900330   0.2813681  42.7874680
  70.0258179   1.7082419  43.1646461  77.3050156  47.6103477  30.5723610
  77.7102432  47.8574715  29.7411270  76.4942780  47.1677132  30.3213406
  78.1791153  56.8039093  69.5661469  78.9815140  56.3573532  69.2960129
  77.9953690  57.4174614  68.8547974  60.3820610   5.0363846  72.2476273
  60.8321724   5.2571902  71.4322281  60.1875877   5.8825755  72.6505814
  38.8935623  41.0001221  49.5740623  39.5094566  41.7015495  49.3621559
  39.3251266  40.5046158  50.2700920  24.1132393  67.4004211  79.5256958
  23.7792625  66.6110611  79.0995407  24.1643047  67.1686325  80.4530029
  33.9427299  41.5302773   7.6599092  34.2487869  40.8598404   8.2707062
  34.7176819  42.0628052   7.4807773  13.1066332  12.6386747   9.9330797
  12.4050016  12.0031586   9.7914295  13.3154402  12.5613928  10.8640251
  73.1552582   4.4515386  80.6815491  72.4937439   4.0551624  80.1145172
  73.8934174   4.6310744  80.0992050  18.0304565  17.3943291  11.0683355
  17.6287594  16.5817699  10.7607307  18.9144516  17.1394348  11.3325624
  11.6645813  26.3041496  25.5208187  11.7100391  25.8993549  26.3870220
  10.7513790  26.1978264  25.2543831  19.5523052  56.0713425  81.0461655
  18.8713455  55.9955101  81.7145767  19.1891613  56.6793327  80.4021835
  31.0388279  64.4949265  14.1912498  31.3387012  63.9544678  14.9221449
  30.1331959  64.2208710  14.0464907  50.0618401  49.0649452  32.8242722
  50.5945053  49.7007713  32.3465424  49.1597710  49.2862701  32.5929337
  33.7036171  42.9335938  84.8735352  34.1274757  43.2230759  85.6814804
  34.3592682  43.0829086  84.1923141  81.5129852  24.7594757  28.0051460
  81.9020004  25.2892094  28.7010498  81.5994263  25.2972412  27.2180214
  69.3364944  39.2883263  47.9644089  68.7575455  38.6184196  47.6007156
  70.1522217  39.1924477  47.4728546  50.1189728  47.0206718   7.4305549
  50.4304123  46.6084251   6.6247678  49.9918633  47.9398613   7.1956816
  79.7781067  49.6954727  68.2190781  78.9025879  49.7552452  67.8368225
  79.6271515  49.4086685  69.1197357  80.2202377  21.8770943   6.6099348
  79.5792313  21.4300537   6.0572219  80.2796860  21.3334255   7.3955064
  67.1121292  35.1385117  25.4906521  67.3149567  34.2639465  25.1586456
  67.9152222  35.4207230  25.9284019  62.0769615  55.5837402  88.0239487
  62.0509872  55.2886162  88.9341507  61.3599701  56.2142525  87.9560471
  77.3352737  35.1012726   3.1636751  78.1154785  35.6068916   2.9359319
  76.7253494  35.2649994   2.4443572  34.8454170  26.9743080   7.4684286
  35.6489868  27.4516335   7.6749921  34.2688904  27.6325226   7.0803509
  22.6971455  67.4013596  50.4165611  21.9727993  66.9244308  50.8216476
  22.7567577  67.0402832  49.5320816  76.5472870  61.8892288  25.3870869
  77.1249390  62.1731606  26.0955582  77.1332703  61.7421913  24.6446323
  26.5845509  32.8145714  85.6672897  25.6279278  32.7948265  85.6940536
  26.8459015  31.8992043  85.7674484   8.6585817  19.3135033   2.3774533
   9.1092663  18.7325497   2.9903231   7.7661748  18.9700527   2.3340580
  22.2765980   0.5075474   1.5449315  23.1612110   0.8540906   1.6615386
  22.3810120  -0.2104813   0.9206205  54.7426758  61.0809517  12.7158871
  54.0766907  60.3935242  12.7277136  55.5122528  60.6757584  13.1156445
   2.3195248  38.2635765  41.0978966   2.4686499  37.4354477  41.5541763
   3.1887515  38.5338364  40.8018608  55.8885918  29.7649097   3.8473957
  56.8222313  29.9093456   4.0013013  55.7429047  28.8525887   4.0977497
  12.1543436  44.9067421  23.4842052  12.0461397  45.5759277  24.1600113
  11.2834358  44.8131371  23.0982132  45.6841125  59.4128571  36.2149544
  46.1143761  59.9143295  36.9075089  46.0667992  59.7474594  35.4038887
  43.7147064   4.9897318   5.6201320  43.5170555   5.5460696   4.8667035
  44.5928040   5.2571559   5.8915362  -0.3437923   8.8065443  15.6372318
   0.2699690   9.1640739  14.9955921   0.1609571   8.7555361  16.4489326
  24.4256878  66.9056396  19.8851738  23.9446487  67.6540070  20.2384109
  24.6549778  67.1675491  18.9935112  47.1712112  46.6785164  31.6967239
  46.7120857  46.1327019  31.0583477  47.8210640  46.0945549  32.0877647
  24.2569084  41.2660942  78.9943542  24.4029446  42.1836395  78.7640915
  25.0646667  40.9975243  79.4321136  56.6641426  63.7880630   9.2775412
  57.4300957  64.0917206   8.7903662  56.8662148  63.9893036  10.1912708
   2.0970991  20.9068851   4.2440171   1.6621501  20.8384514   5.0939398
   2.9124548  20.4172497   4.3521090  67.4998932  38.0778961  57.6147919
  67.2454147  38.3641319  58.4920273  67.2816086  38.8181648  57.0485840
  24.5935421  52.4234314  79.9605255  25.5255451  52.2193680  80.0377121
  24.5238914  52.9205170  79.1454849  61.5784988  70.1659164  31.2655563
  61.9819717  70.8726730  30.7616329  62.3098907  69.5997696  31.5120735
  25.9575996  16.2806072  86.2681351  26.1046143  15.3951216  86.6006012
  25.9555817  16.1817131  85.3160553  42.2921104  58.6207848  87.4888000
  42.8263016  59.0126152  88.1797028  42.2359886  57.6949883  87.7254105
  75.9503708  55.7973557  70.9068069  76.2108002  54.8891945  70.7530060
  76.7316818  56.3092690  70.6976776  36.8147621  68.0923691  37.0939522
  37.3574677  67.6062088  36.4731903  36.9287071  69.0094757  36.8446388
  22.2417660  64.1185303  58.4974976  21.7458229  63.9058495  59.2880898
  21.9822655  65.0152740  58.2859612  52.8114815  30.2174644  15.5081511
  52.5617867  30.7761841  16.2441635  52.5698967  29.3337631  15.7855358
  27.8329296  49.7789650  30.8170624  27.0132122  49.9846115  30.3676128
  27.7562294  50.2141457  31.6661606  61.4937859  65.8153992  62.7774963
  61.4301834  66.0256805  63.7091446  60.9546928  66.4777222  62.3451233
   4.1197085  49.7542610  61.0065346   4.2019444  49.0455704  60.3683853
   3.9350283  50.5313377  60.4790154  68.6382065  10.7862692  61.8845825
  68.3354721  10.4443760  61.0433388  67.8349304  10.9982872  62.3600121
  45.4816322  12.5409327  63.2256737  45.4049301  13.1757898  62.5134201
  44.7320671  12.7245626  63.7919464  20.4790916  69.0593643  37.9366074
  19.9999561  68.4231796  37.4056358  20.3529625  69.8929825  37.4833908
  64.8237915  10.1737757  78.2478561  65.3689804   9.5764971  78.7599716
  64.4132156  10.7418089  78.8997726  54.4204216  38.4259796  53.3098145
  54.4527512  37.9115601  54.1163864  54.3257980  37.7751846  52.6142960
  45.2859840  50.2974014  11.2615366  44.6037254  50.6794815  11.8135948
  44.9109535  49.4722137  10.9538870  28.3147488  45.9545975  77.5589066
  27.5714169  46.3837128  77.9826431  29.0403023  46.0715752  78.1721954
  74.8825378  37.9857674  87.5641708  75.7741013  37.7655602  87.2942657
  74.5796127  38.6093750  86.9041824  73.5295639   4.0446234  26.4524441
  72.8327713   4.5874486  26.8213043  74.2455139   4.1120191  27.0841866
  53.4209366  10.7800074   3.0635040  53.7198105   9.9170084   2.7769072
  53.6661034  11.3678617   2.3489752   4.6648583  53.9178467  87.4049225
   5.2378082  53.9020309  86.6382980   5.1803699  53.5049973  88.0977707
  14.3054590  22.3041687  86.6078110  13.6710739  21.9644279  85.9766541
  15.1056509  22.4315434  86.0982056  43.2317429  71.0584412  65.7608185
  43.8297348  71.5854721  65.2308350  42.8134117  71.6883240  66.3477478
  50.0320740  50.0248604  18.0736732  50.0682487  49.8376274  17.1356621
  50.6766777  49.4327545  18.4611359  85.6119919  21.6945152  41.4571037
  86.0408554  22.3115826  42.0500069  85.4823685  22.1900368  40.6484718
  19.6367588  37.3713341   4.3694739  19.4362240  37.2903404   5.3019218
  18.8702087  37.0067444   3.9270811  21.4866104  56.9218216  37.5569382
  20.7208576  56.4488525  37.8827515  21.4089317  56.8758698  36.6040039
   3.9117000  57.8588867  41.1829987   3.9376700  58.1344376  42.0993118
   4.0927134  58.6575928  40.6874847   0.4077547   9.9448118  34.9276352
  -0.1287112  10.7350311  34.8644753   0.2392574   9.4750156  34.1108551
   2.9304709  39.1766586  89.2375946   2.9801178  38.2597504  88.9673233
   3.6568637  39.6007080  88.7806854  53.9122047  15.2715092  45.5815201
  54.0892982  15.7857370  44.7938385  53.4213829  15.8651495  46.1497765
  20.5959721  56.3618965  32.0866623  19.9631100  55.6518402  31.9792500
  20.1612034  57.1287155  31.7135696  50.1924210   8.4007959  17.5231953
  49.5533638   8.1743250  16.8475094  51.0212250   8.0513830  17.1957378
  73.4165726  45.5174980  11.0111923  73.6201477  46.3472404  10.5795536
  73.2120514  44.9180374  10.2935219  76.5504684  55.4725380  65.0596848
  75.9330978  55.1367912  65.7095718  77.4122238  55.3252449  65.4494553
  61.6899643  63.9566002   7.8201098  62.0334892  64.8289642   8.0129852
  62.0455627  63.4005013   8.5133171   9.8265352  46.5698586  59.5100327
  10.0505085  46.7088928  60.4302139  10.3144817  45.7850189  59.2607040
  86.2500458  35.6945724  49.3463440  85.5907135  36.1482849  49.8713760
  86.8311386  35.2890511  49.9898605  25.2777710  45.3624687   6.9133716
  25.6468887  46.2207603   6.7052464  24.4489594  45.5578117   7.3505735
  68.6026840  41.6073570  13.7625685  67.9520569  40.9934769  13.4218826
  68.6111832  42.3239555  13.1280260  60.2518501  52.6393509  16.0884171
  60.9713058  53.2698631  16.0557384  60.0664291  52.4397621  15.1708040
  74.3062973  58.2625923  40.1694183  74.2739182  58.2989502  39.2134552
  73.5074234  58.7070045  40.4531975  38.2493744  59.1852684  50.7361450
  38.8059921  59.9582367  50.8306313  37.4270668  59.5240784  50.3822441
  66.2224503  38.7514153   5.2954741  66.9272308  39.0944595   4.7460818
  65.5236053  38.5320129   4.6792679  75.8154144  50.7813110  60.2278976
  75.3023148  49.9749374  60.1756783  75.8588181  50.9773903  61.1637955
  52.3582382  21.7639580  52.8208122  52.2965927  21.0089931  53.4060135
  51.6266937  22.3257275  53.0767212  39.3950920  34.7197113  63.7172089
  39.2009964  33.8018875  63.5270500  40.3491936  34.7533913  63.7864151
  71.6539459   6.7539129  66.1046982  71.5477524   6.5383024  65.1781616
  71.5015564   7.6978197  66.1499481  39.7178726  30.7471600  17.1630249
  40.3134193  31.4123249  16.8179016  39.3384094  31.1479969  17.9450531
  40.1044693  25.8866825  76.0640564  40.6704559  26.6509151  75.9552612
  40.7030067  25.1763058  76.2950363   4.7873087  40.5527916  77.0592346
   5.4219356  40.7902679  77.7353134   4.1569676  39.9904022  77.5093613
  46.5634041  68.1121445  43.9661751  46.1417198  67.2529907  43.9827652
  46.9612923  68.2004242  44.8322754  65.5660477  56.3184776  17.9402924
  64.6784515  56.5353966  17.6550636  65.8757095  57.1092796  18.3818512
  46.2430305  17.0122318  77.2443161  46.9168243  16.3581886  77.0586700
  45.4185524  16.5720425  77.0376663  18.9119339   2.2085807  74.6561584
  18.9562454   1.2771661  74.8723373  19.5597343   2.6185701  75.2293015
  72.9218140  19.4325027  81.6233215  73.4368820  18.6258411  81.6385498
  72.6706696  19.5390282  80.7058182  19.5730476  18.0628738  19.4305687
  19.9076290  18.9404907  19.6151657  19.4544277  17.6654129  20.2932320
  78.6455688  52.1411552  30.5936203  78.2532654  53.0138435  30.6209545
  78.1100616  51.6574173  29.9647598  41.3208389  34.1697464  55.2392235
  41.8208160  33.4995499  55.7051506  40.4261894  34.0707932  55.5648689
   1.4768281  50.5691071  76.4938202   2.3863628  50.8124428  76.3212891
   1.5237346  49.6588135  76.7860413  65.9302521  26.4038162  85.7353821
  65.2968445  25.6866264  85.7095871  65.6847992  26.9124718  86.5082016
  71.8301544  15.5052414  19.0499306  72.2921295  15.1397562  18.2954540
  72.5147934  15.9284534  19.5679970  80.4306488  25.6030846  69.6425629
  80.8197861  24.7408295  69.7885666  79.5939789  25.5699139  70.1063766
  23.0363216  15.3754759  22.0694313  23.7328491  15.1638451  22.6909580
  23.2364960  16.2653980  21.7792568  80.6593475  53.7911339  61.5703239
  80.0925446  53.2747650  62.1433296  80.0698013  54.1408958  60.9022446
  49.8650475  28.8351269  58.0352783  50.4233742  28.3930721  57.3956757
  50.4253654  29.5118904  58.4151001   9.3803854  52.2407990  26.8471775
   8.7717142  52.9645004  26.6988297   9.3797445  52.1180649  27.7964764
   5.0258646  17.2226143  19.3629875   5.8629861  16.9336548  18.9997215
   4.4549508  17.3201256  18.6008968  19.3335171  51.6490974   8.1678581
  19.1425056  51.9327164   7.2738180  20.2885342  51.5949211   8.2030659
  68.9102631   2.1268139  85.0454712  68.3889771   1.4036707  85.3941193
  68.8386307   2.0373106  84.0951614  67.9941635  65.7680893  63.9628410
  67.4180832  65.0255280  63.7812538  68.0681534  65.7860947  64.9170074
  28.5762157  17.1196213   1.1234059  28.7068539  18.0631123   1.2182204
  28.2823944  17.0081730   0.2192598  14.3534174  67.7328262   2.7144139
  14.8048840  68.3304443   3.3104572  14.5681629  66.8596649   3.0425863
  53.5068054  63.6403961  29.4696102  54.0792618  63.1998863  30.0976849
  53.7399864  64.5659943  29.5412388  15.3402481  35.0429802  60.4758644
  14.5282841  35.0824509  60.9812241  15.3333216  35.8418961  59.9486847
  52.5032043  49.5800629  76.1137772  52.7612038  48.6896057  76.3520126
  52.9429436  49.7416077  75.2790527  82.4217377  15.6606274  37.3098717
  81.5962906  15.9516077  36.9223061  83.0065231  15.5360384  36.5623817
  59.4186630  50.5316048  48.5082321  59.2094383  49.6780243  48.1289406
  58.7355042  50.6767845  49.1627922  58.8192749  36.0666122  84.7848663
  59.6755371  36.2767372  84.4121704  58.5500145  36.8682404  85.2333374
   4.5905595  21.2278767  65.3425293   4.3653874  22.1568756  65.2926254
   4.0943022  20.8226109  64.6313858  29.8309479  38.2308540  31.6801605
  30.6941357  37.9291267  31.9631786  29.8982563  39.1856804  31.6827641
  72.7492142  41.5155144  58.3066101  72.2693405  40.8391876  58.7846603
  72.9827652  41.1015129  57.4757729  77.2767639  18.8884087  17.5365620
  77.3955917  19.7345371  17.9680481  77.1671829  19.1050148  16.6106548
  33.4891319  69.0519638  88.8264160  33.8578453  68.1827927  88.9839630
  32.5442734  68.9063034  88.7789307  59.3531075  10.4574289  53.8658180
  59.6745949  11.2200117  53.3848343  59.1399689  10.7952919  54.7356758
  62.1108704  65.8420105  25.6936741  62.3760529  66.5041809  25.0553608
  62.7163811  65.9589767  26.4257317   6.9591980  22.9561691  12.9478264
   7.8742547  22.9033985  13.2237215   6.7760916  23.8946533  12.9036684
  59.0404320  46.8783646   7.4844084  58.1545792  47.2353668   7.5480185
  58.9111252  45.9405899   7.3426528  83.5035629  19.7630463  27.1081848
  83.4476089  19.2871170  26.2795773  82.9464340  19.2665691  27.7076473
  65.3239365  44.4859657  42.1730461  66.0578308  45.1004257  42.1645470
  65.3412247  44.1043472  43.0507126   9.1296406  20.3759670  11.9611158
   9.1678782  21.0275745  12.6612425   8.8126841  20.8612213  11.1993437
  23.4717388   8.9766998  64.1370163  23.0326881   8.6554947  64.9245987
  23.2275524   9.9008608  64.0867004  49.7124519  69.2458878  62.9316635
  50.3963203  69.0584946  63.5746574  49.6372375  70.2001266  62.9332161
  12.7679253  55.5889969  40.2834892  12.7661905  55.3409615  41.2079926
  13.1569796  56.4634743  40.2708511  25.2858925  16.8684158  41.1935272
  25.5449333  16.7913055  40.2752762  25.5133095  16.0220337  41.5784302
  76.7808304   3.7814145   9.0410643  76.9210205   2.9843979   8.5298471
  75.9878769   3.6048744   9.5473070  39.3093033   3.2237504   3.5160880
  38.8964996   3.7466924   4.2033701  39.9626770   2.6966662   3.9759994
  81.1470718  44.2909813   7.5320930  81.1253281  43.8263168   8.3686600
  82.0660782  44.2622261   7.2659569  82.0189819  44.3532600  73.1337280
  82.6487503  45.0265274  72.8761673  81.2920609  44.4578476  72.5198288
  45.8683052  39.0261269  85.3397598  46.2053947  39.1589050  84.4537735
  44.9297981  39.1999435  85.2675018  36.5148468  11.2742252   5.4361672
  37.0287170  11.1822786   6.2384858  37.0540276  11.8245687   4.8681545
  55.4369545  12.3469915  53.8170471  56.2054214  11.7775621  53.7790527
  55.3667107  12.7136164  52.9356346  38.1273384  46.8396225  79.3618851
  38.3753548  46.4671631  80.2080460  37.9589348  47.7635345  79.5469818
  15.8143301   1.6502258  86.6815414  15.3180590   1.0313118  86.1459122
  16.6896420   1.2674240  86.7408905  46.7429810   8.4920874  85.9320297
  46.0916634   7.8194270  85.7331696  47.2003670   8.1614819  86.7051544
  47.9607086  25.9480476  20.1718922  47.8066940  26.8927498  20.1648159
  47.8381042  25.6785583  19.2616310  85.4813614  64.1144333  72.4543152
  86.0458069  63.5624466  72.9955521  85.7112122  63.8825417  71.5545197
  63.3321342  37.2363663  78.0015030  63.5778198  37.3650475  77.0853653
  62.3920593  37.4151154  78.0247498  10.9986277  71.2210007  61.9739952
  10.5910616  71.9155579  62.4914055  10.3412123  70.5258255  61.9462318
  72.5034561  57.6779289  55.0535774  73.2321854  57.0574875  55.0382195
  72.2054367  57.7198944  54.1449203  35.9773026  50.2773323  48.2054176
  35.4412727  49.4969215  48.0644875  35.4298515  50.8501358  48.7424736
  35.9686584  68.8834305  24.7125912  35.4909248  69.0037460  25.5332794
  36.8729134  68.7239532  24.9829979  36.8190804  38.2871742  69.9479065
  37.7154007  37.9793701  70.0824432  36.7764359  39.1161613  70.4245529
  67.2913971   5.8569016  46.4698410  67.7498550   5.4665031  45.7257729
  67.2056198   6.7820544  46.2396965  62.6407166   1.3894423  88.7330780
  62.4158592   2.2153239  89.1615524  61.8007584   0.9474905  88.6090775
  75.8187332  54.6683769  24.3314018  75.9890060  55.6102219  24.3444462
  75.0551910  54.5708771  23.7624283  62.9721680   4.6458306  28.0332756
  62.5462418   4.5219469  27.1850586  62.5288124   5.4031310  28.4155846
   1.0031062  49.8781166  86.1693954   0.3756996  50.5989113  86.2245941
   0.7022755  49.2480469  86.8241806  45.1641464  54.2499352  25.5915585
  44.8582268  53.4968262  25.0861149  45.5624771  53.8677292  26.3735332
   9.4839544  23.7272778  80.2081985   9.2185144  23.4118366  79.3443298
   9.7107630  24.6466198  80.0681992  78.0838623  66.3191681  12.8403053
  78.3178329  66.4663925  13.7567196  77.5260773  65.5414658  12.8574800
  61.9818687  37.4661064  59.9373512  61.6062241  38.3451843  59.9858131
  61.4290390  36.9373550  60.5127029  38.3197632  39.9700394  38.7144089
  37.4334946  39.7858009  38.4032478  38.2900887  39.7751846  39.6510963
  35.9700470  26.9785080  74.1187210  35.6738815  26.2141380  74.6129456
  36.7694893  26.6857872  73.6811829  49.9604149  70.0611801  37.4691391
  50.7866020  70.4383469  37.7714500  49.8746376  69.2455750  37.9627647
  80.1488037  56.3795586  52.1777573  79.6626587  57.0572662  51.7080688
  80.9384155  56.8227654  52.4880943  -0.0537114   2.5714886  18.3858433
   0.1936920   2.0765855  19.1669292   0.3173025   3.4425423  18.5267200
  75.3828735  31.5268440  17.7085686  75.8838806  32.1740494  17.2122307
  74.4836121  31.8542538  17.6896763  77.6876068  20.4054947  32.0579834
  76.9213867  20.7761803  32.4958496  77.5356445  19.4604931  32.0684853
  19.3908596  53.3601875  19.8837376  18.7688808  52.6739197  20.1254196
  19.0619221  54.1460609  20.3201256  35.1878929  52.6962509  55.6111450
  34.2648354  52.6266289  55.8547554  35.5751686  53.2439461  56.2939911
  44.8417892  62.6038513  36.6208191  44.1032524  62.0388451  36.3937454
  45.2547951  62.1697578  37.3672943   1.9220407  52.1996193  12.0789413
   1.3877621  52.8133278  11.5748186   2.8242993  52.4640579  11.8994017
  13.0133324   1.0049703  63.5954247  13.4426851   0.8317122  62.7576485
  12.1112175   0.7116554  63.4674110  49.2414970  33.4217110  82.8009720
  50.0848885  33.3526726  83.2483597  49.3780136  32.9797134  81.9629745
  11.1795511   5.2075596  81.1514664  11.0837803   5.1165328  82.0995026
  12.0436831   5.6024103  81.0348511  33.3713303  44.2906570  44.4710922
  32.6052322  43.8027000  44.1690674  33.9658279  44.2914734  43.7208900
  24.2674694  54.4705772  44.9460068  24.6972237  54.8271332  45.7234421
  24.9876518  54.1825905  44.3850861  40.5825462  47.2880096  80.6852188
  41.5190735  47.1113472  80.7743225  40.2518234  47.2855759  81.5834656
   6.5315862  66.1730576  28.7298756   6.8134704  65.3439941  29.1164265
   6.2548637  65.9420624  27.8431416  22.1068478  59.0731049  81.8493652
  22.2993107  58.5517807  81.0699997  22.2564106  58.4743004  82.5810089
   3.7031534  49.2372360  17.6988964   4.3330355  49.9554329  17.7594872
   2.9675715  49.5171852  18.2436695  39.0824280  20.0435696  78.0337296
  38.5290146  19.6762848  77.3444824  38.4778824  20.5348511  78.5899658
   1.0646803  11.2370586  63.2029419   1.4672073  11.5254822  64.0221024
   0.5154782  11.9733438  62.9336967  36.6460228  67.0215759  30.3799801
  36.3725281  67.2190704  31.2757626  36.5360641  66.0741348  30.2993641
   2.6609135  30.0244484  78.6289978   1.8636832  30.0233898  78.0992355
   2.9501517  30.9368935  78.6246719  15.0572157  53.4187164  41.8083496
  14.1644783  53.2013397  41.5400238  15.2813492  52.7517929  42.4573517
  85.3002548  63.5083046  75.6739120  86.2521744  63.6040993  75.6437378
  85.0206146  64.1109161  76.3630371  54.7542191  19.7189064  23.4049072
  55.5033913  19.2785892  23.0035477  54.9225807  19.6683674  24.3458290
  50.3557701  56.9802933  67.8114624  50.7412071  56.2570686  67.3168716
  49.9057846  56.5573349  68.5428009  80.4661407  24.4415131  52.9871788
  79.9666214  25.1986332  52.6814270  81.0507812  24.7951431  53.6575279
  20.1281853  36.2722473  62.4698219  20.8608818  36.5900688  61.9422035
  19.3567104  36.6850090  62.0816383   6.3019924  28.2983036   1.3565493
   5.5064864  28.7514572   1.0771664   6.5401654  27.7497158   0.6091825
  69.3396454  28.3327503  15.2391701  69.3893356  27.7600918  16.0045624
  68.7241211  29.0201244  15.4938822  16.7376461  48.1815071  18.6352158
  15.8333321  47.9709549  18.8678436  16.6612835  48.8790627  17.9842014
  31.7407684  27.1974945  83.4779282  31.6009388  27.2603321  82.5330811
  31.1425171  26.5068722  83.7631760   7.3382339  63.8717842  30.4821186
   6.9809031  64.2922745  31.2642536   7.5040236  62.9680862  30.7505856
  50.8411331  30.2700653  28.8954487  51.6168060  30.6243992  28.4606953
  50.9651184  29.3212528  28.8706875  28.5197029  40.0771179  27.6742592
  28.5721779  39.3572197  28.3029308  27.6616821  40.4709396  27.8321724
  85.4942474  57.9032936   8.3531828  86.1020508  57.1763496   8.2176714
  84.9282990  57.8893623   7.5813365  25.9308681  48.1886330  74.4050140
  25.4098129  47.8720818  75.1429367  26.7044144  48.5817261  74.8091660
  79.4984207  34.9674377  56.5693817  78.7194519  34.7458954  57.0796356
  79.9386520  35.6428299  57.0853958  54.9473457  42.4644432  20.0524216
  54.4656219  42.8382111  19.3145370  55.8609886  42.4650421  19.7669621
  35.2555275  31.0659847  57.9969406  35.0384369  30.4624691  58.7074852
  35.2917709  30.5135174  57.2161102  23.0076485  27.9721184  86.8538589
  23.1130600  28.4495544  86.0309525  22.2639694  28.3954277  87.2827911
  16.0517807  26.7624645   2.2518206  16.1563530  27.5731678   2.7498746
  16.7298565  26.8063869   1.5776424  86.2831116  39.8532562  34.2945976
  85.7116776  40.4907112  33.8664017  87.0487671  39.7960091  33.7230034
  82.3431549  51.1817741  46.7116661  82.6108627  50.9328384  47.5963135
  82.4091721  52.1366386  46.7012291  26.2161980  61.6379509  50.6966476
  25.7522011  60.8227501  50.5058937  25.5233326  62.2918282  50.7894554
   9.0732689  22.8146725   3.5176563   9.0318089  22.4775105   4.4125495
   9.7914906  22.3291893   3.1118305  -0.1078865  45.3533630  53.2929077
  -0.5475948  46.2001266  53.3695831   0.7047765  45.4598427  53.7873497
   5.8526940  18.9341831   2.3763604   5.6650038  17.9974098   2.4351759
   5.3639321  19.3224087   3.1020498  32.4331131   2.5120339  73.0066528
  32.5338593   2.8880138  72.1321640  32.9717674   3.0678287  73.5698318
  60.8889351  27.0843182  28.5959644  60.1738129  26.4582233  28.4826717
  61.0306664  27.4468460  27.7214813  44.2220726  41.4047012  50.5958481
  44.8171692  41.8665123  50.0052338  44.4955750  40.4889030  50.5435181
  49.2876587  51.5006638  74.7364502  49.3131294  52.2745895  74.1737595
  48.6292267  50.9339218  74.3345795  32.6842308  46.7427216  42.6138535
  32.9881821  47.0627518  43.4632225  33.3737984  46.1465416  42.3218002
  64.6610336  40.9220314  27.6339531  64.3911972  41.1296577  28.5285549
  64.5699997  41.7478333  27.1585636  16.2949371  53.6032791  24.1001816
  16.2774143  52.6641808  23.9157352  16.0040035  54.0128593  23.2854214
  50.4619484  58.8134041  14.0071335  49.7822952  58.4514008  13.4385786
  50.0710716  58.8083038  14.8808727  23.2133865  12.2866268  45.9333267
  22.4394417  12.2105227  46.4914055  23.4327087  11.3836699  45.7035484
  22.5669708   8.7395649  79.9999466  23.2683773   8.6538458  80.6456299
  22.6240311   7.9400358  79.4767532  81.1142883  49.5381927  34.0143509
  80.4456711  50.0161552  33.5237122  80.9419556  48.6170883  33.8191681
  43.4096909  65.6308594  51.5725288  43.3259048  65.8779907  50.6515846
  43.6980591  66.4318237  52.0101700  81.3860550  64.1429672  78.6282806
  82.0282288  64.0425644  79.3309555  81.8591843  63.8945694  77.8341293
  62.8588562  65.3996048  68.2491913  63.4371681  65.1342392  67.5340881
  63.3957558  65.9801865  68.7885361   1.3679086  14.4276791  14.1399298
   2.1283753  14.9806728  14.3191519   1.4055511  13.7444162  14.8092327
  55.4764328  30.2791729  18.4665279  54.8071518  30.7399940  18.9724312
  55.7877045  29.5897808  19.0531101  81.6731873  33.6035347  48.7067642
  81.9173584  34.0469017  47.8943367  81.9786377  32.7039452  48.5898247
  54.2546921  61.7284775  64.8058472  53.9446640  61.1588478  65.5098648
  53.4933472  62.2611237  64.5758972   6.5949359  36.0614891  15.2326841
   6.8382468  35.7298927  14.3683500   5.6431661  36.1556244  15.1938925
  53.1601715  56.7766953   6.0505538  53.7545090  57.5266075   6.0256038
  52.3593140  57.0917511   5.6315093   0.5459025  37.0624390  54.5496750
   1.3247734  36.6909218  54.9638824   0.8880912  37.7110329  53.9344788
  12.6989851  29.8360386  66.0397034  13.4472790  29.3657417  65.6721268
  12.1480827  30.0380478  65.2834473  67.8483276   8.0434055  34.4966545
  67.6122208   7.6160693  33.6733246  68.2083740   7.3400526  35.0369225
   5.6673708  13.2655821  53.9185104   6.2742863  12.9804411  53.2354431
   5.7477713  12.6012287  54.6029091  83.1441345  64.0696335  56.0460663
  83.1814575  64.8835373  56.5484657  82.4070816  64.1911926  55.4475632
  70.5763702  13.3072214  14.2051678  69.8165817  13.4202957  14.7762833
  71.2656326  12.9830828  14.7848883  63.8361893  61.8878479  77.1157303
  63.9729118  62.7686920  76.7669373  63.3712502  61.4240036  76.4193726
  58.0562210  67.9593964  84.0985107  58.4009590  67.4365082  84.8223648
  58.4924622  68.8068848  84.1862183  71.3168793  29.4461384  55.2145500
  72.1764297  29.0306683  55.2836914  70.8971252  29.2696552  56.0565071
  60.5347710  56.1498718  60.2268410  61.4797211  56.2040405  60.0841293
  60.4183846  55.3673286  60.7656479  85.0393906  52.3422356  30.6124287
  85.6438904  52.2499962  29.8760166  84.6461868  53.2066994  30.4927082
  80.1582260   4.4208589  78.2852020  79.9758377   5.3588586  78.2293091
  80.7078781   4.2379179  77.5232010  65.7272873  11.4421253   9.1795816
  65.7564926  11.8627405   8.3202438  66.5958405  11.5960932   9.5512514
   4.3927841  33.6863861  65.7831955   4.6060662  32.9982185  65.1529846
   5.0227633  34.3831902  65.5992966  49.9963951  20.2373276  30.9501152
  50.0097275  20.8725739  30.2342110  50.6786346  19.6056614  30.7225609
  10.0098944  62.2032623  25.4154091   9.9364882  61.3874588  25.9106941
  10.8848143  62.1706772  25.0285168  37.2232208  56.1986084   3.5134969
  37.3704147  56.1797676   2.5678697  37.9625473  55.7140350   3.8806758
  76.3253632  50.4680595  88.0223846  76.4117279  50.1653595  88.9263458
  75.5523071  51.0324402  88.0316086  43.1167488  10.5973024  76.1077118
  42.7274094   9.8291645  75.6898422  43.6112785  11.0253143  75.4087982
  62.5348587  54.5641060   5.7479987  61.6182022  54.6397171   5.4829388
  62.8990517  55.4372826   5.6025391  15.1460924  30.0120869  75.5145874
  15.0461349  30.7650623  76.0970535  16.0584335  30.0507374  75.2275848
  57.0856476  63.9304161  40.9484634  56.4658623  63.4179306  41.4675560
  57.1773453  63.4396515  40.1317787  31.9394264   4.5368209  13.2050600
  32.6262932   3.8730044  13.2666454  31.2552071   4.2293739  13.7996626
  64.3465576  25.0720024  11.5678596  64.6019821  24.1845570  11.8197165
  63.4451294  25.1588726  11.8778772  79.4692764   2.9790113  87.2761612
  79.6745071   3.9074516  87.1661148  79.9776535   2.7104061  88.0414276
   5.9698162  61.3163338  71.9049225   5.3560743  60.6573715  71.5803909
   6.5699754  61.4651260  71.1742401   1.6008929   1.8339677  74.2595520
   0.7661168   2.0838039  73.8633652   2.2627254   2.1642678  73.6520081
  15.8253021  31.4817429  61.2717972  16.6677666  31.8527660  61.0094452
  15.9895096  30.5414371  61.3431587  57.5491982   1.7901881  63.6092682
  58.1054192   2.4754753  63.9797173  57.0394859   2.2353096  62.9322929
  41.2236786  61.4074135  66.3230133  40.8050156  62.0026169  65.7011719
  41.2651291  61.9047508  67.1398163  75.4606781  44.5391197  34.9707260
  75.9619751  43.9550514  35.5397606  75.8848877  44.4630508  34.1160393
  38.2730980  27.4997387  70.8718643  38.3724976  26.6502018  71.3015594
  38.8186722  28.0940189  71.3870468  33.6072197   5.6515737  70.4666214
  32.7656708   5.6729732  70.9222260  33.8064194   6.5706568  70.2881927
  83.1906433  67.3722382  29.0940609  82.3246689  67.2823639  29.4918594
  83.0817184  68.0584335  28.4356461  11.0164061  69.6205368  19.7137985
  11.5371103  68.8277588  19.5849361  10.7156382  69.5647430  20.6208038
  43.6304474  48.5237656  37.8143501  44.0609207  47.6725807  37.8943939
  43.0469933  48.4272575  37.0616875  47.6361771   3.8505740  33.9930038
  48.0074654   2.9885321  33.8052216  48.2326546   4.2332730  34.6364212
  77.2770386  21.3277302  24.6962605  77.1909637  20.8109837  25.4973831
  77.5492859  22.1942749  24.9982834  43.5692749  62.9667702  64.2183380
  44.1984901  62.2465210  64.1788788  43.8841400  63.5210266  64.9324036
  76.9367447  66.8789520  70.3556671  77.7532501  66.6566620  70.8030319
  77.2022858  67.4731903  69.6538162  73.0975494  64.2962189   0.4287761
  72.7990570  63.8252182  -0.3492283  73.3476868  65.1611481   0.1038619
  74.3752060   9.4083710  87.1186295  75.0638046  10.0049438  86.8250961
  73.5602188   9.8330441  86.8508987  41.6443977  69.1340485   3.6908839
  42.4052887  69.2300415   4.2636547  41.8669815  68.4002991   3.1179044
  60.0072861  18.2039528   6.6508379  59.4189224  18.1231251   7.4015222
  59.4239235  18.3165131   5.9003353  36.2463264  62.5061913  85.9949036
  36.7778854  63.2433777  85.6945114  36.2449417  61.8957634  85.2576065
  11.9273157  65.5235672  24.8033772  12.1457205  66.3456116  25.2424412
  12.7717276  65.0950470  24.6634769  43.0057716  36.0213547  72.3267975
  43.5589561  35.7516823  73.0599365  43.2875366  35.4683571  71.5980759
  81.3326416  47.7782707  42.3340988  80.6412125  48.4278069  42.4616051
  81.5432510  47.8324890  41.4019318  42.0862846  59.1362343  51.3946037
  42.6664810  58.8948936  50.6725502  41.5680809  58.3484154  51.5590439
  69.5357437  46.0877762  48.8604393  70.3346405  45.8349190  49.3231049
  69.6245422  47.0315132  48.7273636  16.4522839  40.4759407   3.9111648
  16.2872219  41.2606163   3.3884072  17.3432217  40.5912933   4.2415547
  68.8918991  42.7901535  30.0726433  68.5623550  42.6843948  29.1802044
  68.1817780  42.4710999  30.6295681  10.6184187  23.0917797   0.0241568
  10.6248703  22.6363087   0.8660215   9.8918486  23.7111778   0.0925120
  15.4346790   8.1497803  10.3973560  15.7900057   7.9169397  11.2551203
  15.6453514   9.0778522  10.2947330  16.6230602   9.9012289  66.2560120
  17.5370941   9.6683092  66.4188614  16.1206017   9.1841726  66.6427917
  20.0592632  21.6295204   7.4575157  19.4086990  21.0490475   7.8525453
  20.5032864  22.0340252   8.2028008  55.9768333   9.8994541  21.6536884
  56.3595657  10.5958004  21.1199780  56.4273415   9.9677916  22.4954758
  83.9862289  46.8042374  58.2456284  84.6453629  47.4849243  58.1098404
  84.4021454  46.0018005  57.9304581  84.2128906  39.1160889   4.0772243
  84.9029465  39.3529625   3.4575925  84.6808777  38.7576218   4.8313613
  27.7526188  68.1213455  69.2922974  28.3786125  68.7683487  68.9670944
  27.7193222  67.4544830  68.6064301   7.6040258  12.4892130  71.0153885
   8.0027647  13.3283949  70.7851410   7.1882772  12.1915493  70.2061996
  30.8814106  70.6915665  10.5637226  30.2638359  71.3111496  10.1751890
  31.4708424  71.2362213  11.0854130  10.4795256  54.0991402  68.1227417
  10.8801098  53.4429245  67.5525284  10.3779116  54.8707237  67.5654602
  45.8393555  15.7368822  33.2943153  46.6010780  16.2572784  33.0389671
  45.2972603  16.3395863  33.8033409   2.3450592  21.5238762  81.9409409
   1.4877796  21.2396183  82.2579575   2.3072903  21.3883762  80.9941330
  69.0431442  53.3428345  36.9413986  68.8833847  54.1627388  36.4739952
  68.2043228  52.8827057  36.9114609  61.5790787  43.9191780  58.5217819
  61.6541100  43.2569008  57.8347664  60.6644478  43.8728676  58.8002396
   8.4649401  48.4097595  57.7140045   9.1185694  47.8291626  58.1037598
   7.9922595  47.8555832  57.0929604  35.0187073  38.4342041  88.4853516
  35.4390984  39.2794495  88.3270340  34.5076790  38.5666924  89.2838058
  79.6660385  54.9395218  27.4062748  78.7917480  55.2876320  27.5814056
  80.1644745  55.1333847  28.2001362  34.3585205  48.0844955  47.4640961
  34.1907272  47.4094086  48.1216164  33.7676697  47.8683357  46.7427101
   7.4211721  38.1800842  55.6887169   7.1250405  37.5435715  55.0380325
   6.6145482  38.5160522  56.0795021  71.8244858  28.3340721  14.1250420
  72.5047760  28.5782528  14.7525816  71.0353088  28.2284336  14.6563349
  12.8235407  56.3578644  29.4387608  13.5684481  56.5470924  28.8682022
  13.1908293  56.3655777  30.3226566  26.3837700  16.3853111  12.1535130
  26.7214928  16.2217960  11.2729235  25.9729633  17.2479668  12.0961256
  47.6413040  43.3189240  44.8336334  48.4055786  43.4563370  45.3933067
  47.9407272  42.7008553  44.1668701  72.7312241  11.3456268  44.0389862
  71.9879532  11.1984978  44.6239090  72.6114731  12.2400818  43.7198601
  62.6576347  33.1272736  51.8314667  62.3703194  32.2312546  51.6558838
  62.9274483  33.1166687  52.7497940  20.7781506  50.8905373  19.8283138
  21.3170319  51.6602554  20.0109844  20.8599033  50.3491249  20.6134396
  48.5897102   9.5218296  59.4867630  49.1567612   9.5692921  58.7170677
  47.7012444   9.5330944  59.1307678  57.3744659   2.1573327  44.8937035
  57.9301758   1.5352870  44.4241562  56.5404968   2.1351020  44.4244118
  73.6317444   4.9408813  66.5657425  72.9463272   5.6069984  66.6179199
  73.1597900   4.1086822  66.5963058  28.7996731  52.4995117  10.7548494
  27.9761829  52.5171509  11.2424803  28.9245281  51.5777779  10.5288954
  29.3728561  64.2055359  63.3551407  28.4518147  63.9459038  63.3326912
  29.4356937  64.8010635  64.1018906  20.4497299  44.4100304  76.5138321
  20.0393410  44.3104858  77.3728485  20.0618572  45.2077560  76.1540833
  60.7560043  67.9132690  47.5202560  61.0553551  68.5039444  48.2114258
  59.8082085  68.0431824  47.4880295  31.9628162  62.8414955  79.4248352
  31.1576042  63.1412888  79.0029449  32.5546417  63.5919495  79.3719559
  65.4044647  52.1515656  34.4274750  65.9991531  52.0599442  35.1719093
  65.9627533  52.4525604  33.7105713  67.3492661  32.2614174  24.9870033
  67.7256622  32.2939072  25.8664932  66.4784241  31.8845901  25.1129456
  14.5517588  41.5522728  46.9570732  15.3639240  42.0275154  46.7816696
  14.2339554  41.2936897  46.0919914   1.5322310  26.7050781  46.0481262
   0.7300862  26.4313641  45.6032944   2.1021085  27.0158672  45.3446503
  34.1041451  50.9035606  32.6354904  34.5166664  51.3490562  31.8954926
  34.2751999  51.4745865  33.3844261  43.3234940  63.5058250  68.8964767
  42.8769836  64.1941528  68.4034653  42.6527596  62.8372345  69.0354996
  64.7293396  22.2141323  80.4565048  65.2282181  21.4289284  80.6819229
  65.0298004  22.8758450  81.0794754  29.4644203  65.1366043   1.8473607
  29.2590714  66.0309677   1.5750057  29.9161205  64.7547913   1.0947539
   5.9570847  57.5321693  54.8729591   5.2462511  58.1720657  54.9113960
   6.1665187  57.4624901  53.9415550  69.3452682  27.2203293  61.9628563
  68.7045670  27.8050594  62.3675995  70.1044159  27.2573032  62.5447235
  84.3182449   3.9079411  59.6377144  84.9473724   3.8475640  60.3565865
  83.7970734   3.1081202  59.7077293  73.7951202   1.1454895  28.5702286
  74.3635025   0.3753231  28.5665092  73.7852631   1.4402868  27.6596088
  43.0949936  24.2514153   6.1358399  42.1576195  24.0695515   6.0688672
  43.5163765  23.4786282   5.7597146  34.3679581  59.7087822  12.1089697
  33.4861336  59.4785309  11.8163891  34.8518448  59.8783684  11.3006830
  44.4356003  18.9010468   5.0657802  44.6300049  18.5653267   5.9408402
  44.5288239  18.1409760   4.4914699  82.2060547  24.0425415  49.1514549
  83.0664368  23.9727345  49.5650902  82.1160431  23.2334957  48.6478920
  63.0943069  18.0474815  73.6534500  63.2708130  18.0227814  72.7129898
  63.1642570  18.9733543  73.8860397  42.8963585  52.9326935  34.1601257
  42.5830002  52.8096848  35.0561790  42.1443062  52.7113609  33.6108856
  43.2908554  60.8853073  31.3779011  43.7877808  60.7244873  30.5757561
  43.2873802  60.0419540  31.8306408  68.4202423  31.3841095  10.6180372
  68.3774261  31.1144924  11.5354824  69.0327759  30.7683067  10.2157621
  77.7062683  31.5849056  88.4123993  76.8717346  31.1256313  88.3183212
  78.3299713  30.9008770  88.6559677   5.5889564  30.2030582  79.3844147
   6.2882938  29.8638630  78.8257446   4.8430367  30.3124676  78.7946091
   0.2348915   1.8839271  51.6527634   0.8858479   2.5058255  51.3276024
  -0.5854570   2.3771045  51.6587791  85.4802246  23.4376678  34.4911499
  84.5262146  23.4291668  34.5687714  85.6972580  24.3511772  34.3050613
  55.8560448  38.9791870  28.5550003  55.3294601  38.1798744  28.5485516
  55.9808311  39.1763115  29.4833336  82.5644836  23.7763672  84.3143539
  82.7519836  24.4014320  85.0146179  83.1806946  24.0045147  83.6183243
  70.8247681  56.2054901  40.7233505  71.7652893  56.2359161  40.8986778
  70.4194946  56.5016975  41.5383606  55.2007980   9.8151855   0.2558118
  54.4240112  10.3743086   0.2706719  54.9687271   9.0984316  -0.3346454
  17.0641956   7.9869871  17.1165657  17.0013218   7.1237397  17.5253239
  16.2274857   8.0999613  16.6655827  80.0403442  33.9626694  74.0514374
  79.2311096  34.4596825  73.9316864  80.5029373  34.4232635  74.7515030
  18.7554016  24.3962803  28.5437107  18.6483536  23.4487476  28.4603138
  18.1558189  24.6440277  29.2475243  75.4894485  13.6602335  48.4171715
  76.3808975  13.7623119  48.7505264  75.0891037  13.0133457  48.9981155
  40.1546097  51.8054466   3.6893644  40.9014587  51.2331848   3.5133917
  39.5113564  51.5724220   3.0199184  79.4004059  28.0490837   6.7017846
  78.5814438  27.6013069   6.9139647  79.8258972  27.4792767   6.0610723
  33.6387558  63.7635880  83.8989105  34.1128807  63.1440735  83.3442612
  33.8006783  63.4583740  84.7915726  30.9439392  45.2442207  88.0807190
  31.4616852  45.3059845  88.8834381  30.1342640  44.8108902  88.3506851
  68.8893967  67.4754944  36.6007652  68.8873749  67.7882462  37.5054245
  68.8860245  68.2731094  36.0715866  38.6303940  -0.0569389  12.9096174
  39.0765877   0.6826681  12.4971552  38.6636925   0.1355681  13.8466682
  54.7912598  40.8689384  78.9796143  55.1922188  40.0144958  79.1389542
  55.4225655  41.4984703  79.3280029   7.9022388  36.7503738  63.6401138
   8.8306112  36.5388260  63.5421104   7.8918304  37.6765366  63.8816528
  73.0143433  22.2922306  86.7191238  73.5599747  21.5154819  86.5959167
  73.5741959  23.0224819  86.4554291  83.0439301  58.9639854   2.8136306
  82.4664078  59.4222298   2.2031248  83.7660446  58.6492500   2.2698221
   4.3184576  40.2931099  25.4085083   3.8946397  40.9770241  24.8899784
   3.8177752  40.2658081  26.2238636  30.2596149  24.7055550  69.7760468
  30.2482033  25.3898544  70.4452515  29.7498894  23.9901466  70.1563110
  66.0786667  19.4278145   5.5883198  65.3749771  18.9829578   6.0607147
  65.8979416  20.3597107   5.7113676  14.8670778  24.2587910  73.5518265
  14.6314459  25.0264854  73.0309067  14.0638723  24.0314693  74.0202484
   7.2685404  57.0128212  21.1873951   6.8666558  56.9281540  22.0520058
   6.9176798  57.8326035  20.8394260  36.8635330  45.6162186  82.9154587
  36.9186020  46.4950676  83.2907257  35.9513130  45.5308456  82.6383362
  49.8979530  21.3770981  20.3373203  49.1221313  20.8252239  20.2384834
  50.1327477  21.6227074  19.4424572   6.9027934  54.7539368  72.3612900
   6.0225759  54.5332527  72.6658401   7.3661556  55.0339775  73.1506577
  63.3048782  25.2449188  28.2525158  64.0681839  25.6874828  27.8813934
  62.8448944  25.9286366  28.7395229   0.4310355  29.2404671  63.3197975
   0.2466741  29.9933300  63.8814354  -0.0078650  29.4445267  62.4939880
  13.2381802  48.4577370  27.3641453  13.6868000  48.7861214  28.1433334
  13.7940702  47.7444077  27.0504913  17.2954235  51.6345215  89.4330292
  17.4289494  51.0802269  88.6641617  16.6839619  52.3094749  89.1384277
  42.3329353  17.1190434  71.3553238  41.6763840  17.6254139  71.8336105
  42.4567337  17.5998135  70.5369339  64.0714417  62.9733200  58.4565849
  64.7724152  62.5297050  58.9341507  64.5213394  63.4502487  57.7591858
  24.5045586  42.0731430  65.4961777  23.5513344  42.0127296  65.5590057
  24.8274364  41.4321365  66.1294937  71.1736298  53.0224991   1.6268914
  70.4440308  53.4224625   2.1001225  70.7573090  52.5083885   0.9350849
  55.2903824  33.0879555  15.2996445  55.4727592  32.1586800  15.4389677
  55.5698967  33.2545586  14.3994503  13.3250103  37.8989525   9.4055624
  13.7231140  38.7693977   9.4139900  13.5171490  37.5561447   8.5327520
   3.8033347   6.0126963  49.1310730   3.7488186   6.0224099  48.1754761
   4.6173248   5.5457563  49.3198013  52.3178215  10.6861238  75.2285767
  52.3990021  11.1306143  76.0724182  53.1051865  10.1454144  75.1659546
  56.7879715  54.4101715  55.7955399  56.7981262  54.6467247  54.8680878
  57.4755974  53.7499046  55.8818550  33.0233269  25.3063717  13.7804575
  33.8652992  24.9210262  14.0229893  32.8484573  24.9668217  12.9027567
  25.8365498  48.8048248  57.5505295  25.2058811  49.2339516  56.9723053
  26.6330128  49.3292160  57.4674911  75.8353653  45.1158485  15.2811480
  75.9053574  44.4607697  15.9755564  75.7907104  45.9522324  15.7445107
  50.1166306  36.8771896   3.2264352  51.0201721  37.1931725   3.2257209
  49.9940758  36.5040588   4.0993538  82.8625107  20.2977161   0.1846151
  82.7084045  19.3897972  -0.0764640  83.2105484  20.2353687   1.0741175
  57.0860786  38.4331017  19.5238419  57.1969147  37.5350647  19.2116241
  57.5698967  38.4611244  20.3492928  81.1018295  19.1067810  55.4274864
  81.3319092  18.1817894  55.3398170  80.5929794  19.3026257  54.6407509
  49.3381004  22.4009342  17.1409378  50.1691322  21.9278793  17.1837711
  48.6795998  21.7509670  17.3861980  68.8136215  33.6985397  75.3869553
  68.6241150  32.7674446  75.5026245  68.0309219  34.0515137  74.9638519
  70.3959351  35.1357193  24.2432537  70.3265533  35.9073868  23.6811619
  70.1155014  35.4416924  25.1057911  12.5248556  20.1693554  79.9073257
  13.0377188  19.3612804  79.8926239  12.9657688  20.7211533  80.5533447
  85.2380600  25.1525192  16.6213932  85.5558243  25.3163128  15.7334576
  84.8162460  25.9719868  16.8798008   7.9199862  32.1472816  76.1921997
   8.8638229  32.2611008  76.0806274   7.6293416  32.9561501  76.6134949
  21.7788677  70.5073547  30.9124126  22.5909290  70.5144348  31.4191036
  21.8054142  69.6816483  30.4289436  54.8312302  22.0253887   9.3241768
  53.8965607  22.0876789   9.5210114  55.1101646  22.9321690   9.1969900
  53.2537727  66.0802612  58.7035332  53.1235924  65.5030365  59.4559288
  52.9281006  66.9316406  58.9956360  54.0024033  12.0075092  71.0528946
  54.7063293  11.9397221  71.6979675  54.0775146  11.2082691  70.5315475
  74.0832977  48.8196144  34.7545395  74.6016693  48.2208061  35.2920876
  74.5449829  48.8499184  33.9165916  32.4931831  37.7844963  32.2490807
  33.0256996  38.4601936  32.6687202  32.4281960  38.0636139  31.3357887
   2.0438440   6.1539483  35.0210457   1.3089181   6.7339616  34.8217964
   1.7832316   5.3054137  34.6628532  34.2290993  66.2354584  65.1447296
  33.3812370  66.5654144  64.8472519  34.8041687  66.3342590  64.3859329
  42.3274117  52.5545502  68.3125000  42.8215370  53.1406937  68.8856583
  41.5727425  53.0728416  68.0330734  50.4141846  62.1153030  36.0227394
  49.5575256  62.5135765  36.1768150  50.3471985  61.2442551  36.4139137
   5.3785934  40.1489754  36.7772255   4.4465861  40.1856995  36.5621758
   5.7673225  40.8697739  36.2816734   1.0927894  53.1683769  20.6124287
   0.5738666  53.8327255  20.1590061   1.8177462  53.6562309  21.0031605
   6.3193436   2.8225064  78.8900452   5.5266986   2.3901596  78.5722046
   7.0369596   2.3299139  78.4917831   1.8456386  34.7813721  40.5194817
   2.3339319  35.1046982  41.2766228   2.3009391  35.1534386  39.7641678
  56.1110268  24.5872898  48.4507713  55.8966293  25.3006248  49.0519562
  56.9840965  24.8040047  48.1236382  51.3723717  41.6844521  66.5176086
  52.1042137  41.2198601  66.1116638  51.2684097  42.4758186  65.9892502
  61.2169037  52.5697784  28.0338993  60.5075569  53.1203575  28.3654461
  60.8488121  52.1460495  27.2585335  31.7927265   0.0217112  37.4451942
  31.6715450   0.9696898  37.4988937  30.9628143  -0.3066221  37.0992546
  49.2798920  49.9792671   3.4323866  49.3086319  49.9668808   2.4756985
  48.7513084  49.2162209   3.6660261  34.0739212  48.4202995   6.7167225
  33.2461548  48.3222618   7.1872792  34.6898384  47.8676720   7.1978450
  85.6963272   9.2718706  63.5481491  86.3737259   9.9138784  63.3355827
  86.0955734   8.7147331  64.2163010  70.4074631  25.6052170   3.0050774
  70.3988037  25.0304260   3.7704351  70.0876541  25.0559139   2.2893815
  30.8370838  63.9331932  51.3031731  29.9494762  64.1643448  51.0293999
  31.3830051  64.1388626  50.5442924   5.0117536   6.5728831  34.7705116
   5.1916351   7.1305361  34.0136108   4.0871038   6.3413463  34.6830711
  55.3809128  45.1815109  13.0854769  54.4444427  45.3794174  13.0758429
  55.6107483  45.0657578  12.1635189  73.8585434  53.1598434  12.7764025
  74.7730789  53.1054192  13.0537033  73.7039795  52.3445053  12.2993670
  18.5750713  39.3089333  12.8173389  18.4874992  39.3934135  11.8679047
  19.3228970  39.8637009  13.0391960  60.9227715  52.4626770  44.8234634
  61.8415375  52.7309761  44.8125229  60.4407005  53.2484970  44.5659218
  62.5940628  65.5791626  38.4291115  62.2312431  65.4974213  37.5471153
  62.9542885  66.4654999  38.4587173  10.5116215   4.0395823  22.9606056
   9.6966190   4.4247994  23.2824917  10.2308407   3.2956059  22.4277897
  26.9168110  53.4452934  81.8746948  26.4491997  54.2334976  82.1509323
  26.5969181  52.7593040  82.4606323  66.6133347  24.9944153  78.6399841
  66.0045776  24.2565460  78.6053772  66.1671524  25.6479759  79.1785049
  26.4235897  69.5331192  76.3244934  26.0528965  68.6788940  76.1028671
  27.1566486  69.3324280  76.9063721  75.2956314  31.8873940  68.5968704
  75.6647034  31.2989407  69.2554550  75.0731659  32.6814346  69.0829163
   4.1605377  45.2160034  47.0479622   3.3879998  45.7582436  47.2073212
   4.1546111  44.5756683  47.7594185  62.5214653  54.2291946  15.1834040
  62.6907005  54.3890381  14.2549429  63.3854599  54.0586433  15.5584517
  64.4582138  33.6908302  30.5011768  64.8155441  33.4560394  31.3575783
  64.8288727  33.0434875  29.9013462  13.7052240  27.8015823  72.5257492
  12.8099756  27.4647350  72.4897537  13.6274357  28.6403599  72.9803162
  59.9962196  23.7902641  24.0547752  60.3937836  23.7087708  24.9216843
  59.4485512  23.0100174  23.9681320  68.6689301  34.8797150  14.4806652
  68.4635162  34.1863403  15.1077776  69.6081467  34.7874336  14.3206959
  61.8434868  54.6789093  75.8797226  62.3986473  54.0774727  76.3760071
  61.3687515  55.1732597  76.5479126  33.0061836  32.4908829  80.8472061
  33.3130722  32.6088257  79.9482422  33.4333534  31.6868172  81.1425629
  22.2003803  38.4682236   5.4359193  22.4509678  37.5626335   5.2533045
  21.2478561  38.4767876   5.3418112  84.1286163   8.2807617  82.3914337
  84.2924118   8.2142496  81.4506989  83.9841690   7.3776488  82.6738434
  19.9804268   6.3184109  12.8036747  20.5029240   7.1203699  12.8132057
  19.1845684   6.5453415  13.2846556  24.1162815  66.4865570  88.0505524
  24.0931282  67.3850632  87.7213364  24.9397221  66.4302444  88.5353317
  77.0111771  68.5438156  22.3748932  77.6606750  69.0955505  21.9390297
  76.3758698  68.3351135  21.6900120  15.4779949  58.9568253  39.3718224
  14.8840685  58.6235924  40.0444603  15.6028357  58.2185707  38.7754784
  58.7563629  34.4488525  82.4961700  58.5600586  34.8549881  83.3404160
  58.4140930  33.5582848  82.5734482  54.8069916   6.8140655   6.2297359
  54.8193321   7.7710266   6.2122860  54.2705574   6.5676713   5.4762378
  52.8996887  58.0545654  60.2008476  52.7871819  58.8883858  59.7444267
  53.4820518  58.2587204  60.9325638  19.1479855  41.8712158  23.7486477
  18.2001266  41.9944305  23.6975307  19.4504395  41.9623909  22.8450756
  84.7245560  19.9515915  29.8113613  85.4034119  20.3618565  29.2755718
  84.6319962  20.5323009  30.5666370  81.0400085  37.4652634  87.7853394
  80.2092819  37.9407845  87.7838364  81.6850204  38.1108742  88.0740814
  25.3192139  67.8832932  10.4615765  25.9222221  68.4966278  10.0415335
  24.4815102  68.3460312  10.4804583  29.8831596   2.6043408  10.8501139
  29.7444973   1.9323177  10.1827383  30.5199909   2.2174315  11.4509287
  63.6150436  68.6698303  31.9786491  63.0834236  67.8817444  32.0906258
  64.2329788  68.6477203  32.7093353  13.3514357  54.8379898  36.4303360
  14.3065071  54.8789444  36.3814354  13.0854158  55.7264557  36.6671753
   8.8536882  12.3550205  12.3613281   8.4512167  11.7825966  11.7081976
   8.7066212  11.9079247  13.1948204  31.6572189  44.9554939  84.7461700
  32.3246155  44.2823257  84.8790741  31.9611931  45.6999435  85.2654266
  69.8895416  50.1039886   0.5142951  70.5357056  49.4047241   0.6129636
  69.0482635  49.6490173   0.4757793  49.3042641   9.9252386   7.0900311
  48.7275162  10.3807812   6.4767818  49.9908524  10.5613070   7.2906513
  60.8856354   0.5135385  60.4785919  61.5733757   0.4344365  59.8175392
  61.1534805   1.2598792  61.0147514  12.5836039  42.3881912   1.0706242
  12.1098213  41.5655174   1.1929790  12.4711142  42.5936165   0.1425197
  76.9600906  39.4406624  64.2698669  77.5874710  39.3328743  64.9847107
  76.1031876  39.3729324  64.6910019  38.4647331  49.3954659  54.1734009
  38.8933907  49.8886719  53.4739494  38.0918770  50.0661469  54.7455864
  83.1251068  68.5879211   5.0292296  82.7793427  68.9294586   4.2045894
  83.2003098  69.3569336   5.5942082  53.1764183  34.5988579  13.9017067
  53.6051483  34.3349724  14.7158241  52.6332970  33.8477859  13.6626692
  55.4813957  67.8532181  70.7565918  55.3944359  68.1595840  69.8539200
  56.3716927  68.0988083  71.0081635  12.3422260  53.5233574  73.1374969
  11.9084368  53.6031837  72.2879715  13.1083727  54.0931435  73.0696869
  27.2840500   1.5438701   5.2004871  28.0068111   0.9675561   5.4488997
  27.4995041   2.3852813   5.6027784  23.1506424   0.2853340  21.0056419
  23.5567150   0.6794090  21.7776794  23.8504353  -0.2289724  20.6031342
  79.1057281  60.9356003  77.2071304  78.7259750  61.1672897  78.0546722
  78.3628235  60.9363785  76.6035461  84.9325638   2.6333306  82.5336227
  84.6674500   3.3680384  81.9803162  85.1306992   1.9284599  81.9170761
  85.9228668  33.5570793  33.0239410  85.8977890  34.4754028  33.2927933
  85.0596237  33.3952904  32.6433182   3.9391313   3.4761226  58.7603722
   3.6717172   4.2666039  59.2292671   3.1164749   3.0438399  58.5310249
  62.9080544  62.9791222  64.4289780  62.0374413  62.8172264  64.7923660
  63.2694588  63.6773186  64.9749985   0.9202125  30.9737015  39.4062080
   1.5816165  30.2936115  39.5336990   0.3598969  30.6349888  38.7079582
  83.1057510  35.5500946  53.6628838  83.2743607  35.7703056  52.7467461
  83.9742050  35.5105553  54.0634575  75.0519714   6.6805024  21.2730770
  75.7905045   6.5840278  21.8743229  74.8746490   5.7911057  20.9668732
  10.9363785  30.7981396  13.9850807  10.9775333  30.0766792  13.3573599
  10.0855646  30.6962318  14.4116516  62.7964859  16.3691082  48.5638123
  62.8963661  17.0448322  47.8932533  63.2127609  16.7402802  49.3417435
  63.7576256  43.7021751  19.3048286  64.5631638  44.2191315  19.2947102
  63.4986572  43.6442223  18.3851509  29.5874348  49.7345963  43.2747498
  29.2142105  49.2308884  43.9980888  30.4203148  50.0613022  43.6150551
  55.6128273   0.8203269  75.1151581  55.2554626   1.5321785  74.5843201
  56.0650940   0.2570134  74.4871750  82.1791229  40.7922440  48.9392929
  81.2619247  40.9189568  49.1820259  82.3393784  41.4462128  48.2589417
  14.4860401   3.1351054  70.8101044  14.8110437   4.0125299  70.6082840
  13.6755667   3.0582240  70.3066635  36.5130081  45.3140450  44.4944611
  36.9521065  44.8708420  43.7685165  36.3082809  44.6137047  45.1140099
  46.6541023   3.4729877   3.8326976  47.2790222   4.1980410   3.8345406
  47.1216583   2.7548864   3.4061396  85.1962128  67.8384476  66.1522598
  84.8797073  68.5215149  65.5610962  85.6209869  68.3162079  66.8646774
  66.0876694  14.4266987  44.8556747  65.9232712  14.9891481  45.6125450
  67.0037003  14.5895519  44.6307182  83.4124069  39.7441597  60.8941498
  82.7303009  40.2375183  61.3497391  82.9399490  39.0484886  60.4369164
  85.2212524   4.9681215   1.1249956  85.0132675   5.8889647   1.2831746
  84.3757477   4.5603433   0.9377492  43.7870331  57.4330482  84.2369385
  43.9737854  56.5209160  84.0147476  44.6424637  57.8623924  84.2251968
  39.3660660  47.5477791  33.7888641  39.5112610  47.0584297  34.5986061
  38.8709679  48.3203354  34.0613861  79.6518784  61.7205925  45.4272232
  79.0912476  60.9488373  45.5066986  80.5419312  61.3805313  45.5189095
  45.0924225  21.4399395   7.9692392  45.3473206  22.0186119   8.6878462
  45.8346443  21.4666729   7.3654003  80.2429352  26.3667679  37.7854805
  80.9365463  27.0244102  37.8368492  79.4317093  26.8666515  37.8764076
   3.1458032  58.4177170  64.3694458   3.5244920  58.5009155  65.2446060
   3.7809622  57.8926010  63.8825645   4.4729362  71.2558823  79.9983978
   3.8993955  70.7980118  80.6129227   5.0511317  70.5738144  79.6567688
  70.3937759  19.5396576  19.0433807  70.5628357  19.0172729  19.8274498
  69.5598602  19.9748192  19.2207184  49.2840157  10.9549294  65.6992874
  48.9474487  10.7980127  64.8170547  49.1753159  10.1172953  66.1496048
  59.4682236  27.1785374  49.1312943  58.6622314  26.6630077  49.1602669
  59.8429146  26.9891014  48.2710876   9.2635841  42.4911804  88.0611725
  10.2194796  42.5222054  88.0220184   8.9760838  43.0906944  87.3725815
  66.9989243  41.3182335  41.6265297  67.2003174  40.3976402  41.4586411
  66.1878052  41.2972145  42.1343498  47.3401108  42.0393486  85.1651611
  48.1703377  41.6703758  85.4665070  46.9356651  42.3964119  85.9558258
  46.3856430  38.3542862  81.5890503  47.2740898  37.9981270  81.5956726
  46.5027657  39.2928848  81.7358475  81.2608414   7.2125592  39.9261780
  80.4596634   6.7827449  39.6268463  81.7732010   7.3462319  39.1287766
  16.3427124   5.7848225  54.0469055  17.1030731   5.9747825  54.5964508
  16.2595615   6.5514288  53.4797783  13.3842945  51.7918091  63.2630196
  13.1925669  52.4235649  62.5699425  13.7823410  52.3139000  63.9595909
  16.7307186  59.9286575  80.4679642  16.7723751  59.6722107  81.3892288
  17.2194004  60.7506371  80.4258270   9.2236214  34.2719574  32.4292755
   8.6742344  33.7470551  33.0114098  10.0117645  34.4521370  32.9417152
  68.4055634  20.2258434  78.5889359  68.7821198  19.3469334  78.6331558
  68.8885117  20.6581650  77.8845978  20.4277611  41.6164894   8.7564240
  21.0315475  41.6905479   8.0173779  20.7855339  42.2083015   9.4182320
  48.0352898  68.9266815  79.3184204  47.9754639  69.8757095  79.4280014
  48.9750519  68.7486343  79.2813263  15.4061832  35.7556190   4.5166793
  15.9883900  36.3403969   4.0316014  14.5742426  35.8009720   4.0454583
  84.1873016  43.2567406  87.2411041  83.6707687  43.5314865  87.9986877
  84.7263565  44.0189209  87.0296021  32.8306084  46.6325035  86.7599182
  33.6353378  46.6615410  87.2774124  32.2244797  46.1135101  87.2885895
   1.3569702  19.9975605  43.9604034   1.8413429  20.2254562  43.1668816
   0.4895760  19.7420197  43.6464653  30.4004498  52.1368103  17.3766651
  29.9429455  51.4528427  16.8876743  30.3714180  52.9020195  16.8023472
  18.5545387   9.9871750  13.3406477  19.0189342  10.0791016  14.1725845
  18.5087051   9.0422201  13.1950722  68.9792023  68.2644424  86.2088928
  69.8919220  68.0199738  86.3619080  69.0019989  68.7846298  85.4057007
  61.8381157  34.1480064  60.7699699  62.2105789  33.6334152  61.4860039
  62.4468651  34.0214767  60.0422020  76.3851395  59.2472420  70.4578781
  75.7132568  59.8531799  70.1454010  76.8465424  58.9719772  69.6656952
  30.1543140  43.9014359  49.8184242  30.4811745  43.7509537  48.9314346
  30.0359192  44.8497505  49.8723793  72.8846130  27.9419117   5.0043054
  73.3587112  28.5696125   5.5496964  72.3925858  27.4070396   5.6272478
  55.0613441  69.3905487   4.2549210  54.3503380  69.0568771   3.7077746
  55.6506233  69.8287430   3.6409471  30.7645130  43.6160431  75.2507553
  31.5623627  43.1806793  74.9505386  30.0793953  42.9548378  75.1524963
  51.1019592  25.1923733  33.2141190  51.4558258  24.8549938  34.0370331
  50.6288376  24.4515362  32.8352432   2.8155441  18.9048080  88.8281097
   3.7470467  19.0972176  88.7208099   2.7459717  17.9630032  88.6719284
  32.9729347  13.1852636  68.1214447  32.5903740  13.9512339  68.5494232
  32.7023125  13.2620058  67.2065125  24.4823303  47.8527832  65.8555527
  24.9054337  47.2906952  65.2064972  25.1969070  48.3709259  66.2258682
  35.9042358  21.9000244  88.3238297  36.1102905  22.3643627  89.1351089
  35.5854073  21.0446548  88.6117935  45.4815292  45.2799072  74.0004272
  45.5101509  45.4259644  73.0548706  45.2846603  46.1407013  74.3698959
  12.4166946  37.1425972  22.0135517  12.4820623  38.0869560  22.1554871
  13.3203573  36.8303490  22.0596600  20.6075935  32.9949760  27.6760254
  20.2542515  33.8842506  27.6521702  21.0841293  32.9043808  26.8508339
  26.9457378  52.5345421  24.8884640  26.8054695  53.0691109  25.6699963
  26.0984573  52.5344620  24.4431038  71.3255463  27.4618530  63.7391129
  71.2199402  27.5568962  64.6857071  72.2608337  27.2983913  63.6176682
  50.3687096  38.6317215  34.7131462  49.7123451  38.1850319  35.2478294
  49.9021378  39.3764496  34.3337784  64.2277451   2.8540630  14.3741646
  63.4957581   2.4674516  14.8547478  64.8488770   2.1341362  14.2640238
  48.5045471  27.5276680  23.4504414  48.3719444  28.4283676  23.7460632
  49.4512405  27.3957577  23.5014706  69.9885406  18.9558029  72.4060211
  69.6480560  19.5084820  71.7025681  69.2117767  18.5434036  72.7838974
  19.1850395  42.4310760  20.9998512  19.7147923  43.2130203  20.8444309
  19.1098785  42.0178413  20.1397228  18.3080177   5.4603605  60.2869797
  17.9108124   6.2042494  59.8341103  19.2414284   5.5282550  60.0860634
  41.5233421  43.2819786  87.1417160  41.2266083  42.3735161  87.1953812
  41.3045311  43.6562195  87.9951248  47.7035408  67.7248001  31.2708607
  48.3886147  67.0901947  31.4810600  47.1872482  67.3015137  30.5849266
  73.2569351  53.7786293  23.1706333  73.5336227  52.9359207  23.5305119
  72.6760712  54.1447716  23.8375473  73.4015961  17.8434696  84.6544495
  73.5031815  18.4531937  83.9235992  74.0888824  17.1910610  84.5193863
  31.7563686  63.7729492  67.7830200  30.8099022  63.8160973  67.6467438
  32.1174507  63.6214371  66.9095764  13.6790066  17.1091595  84.6696625
  13.9828634  17.1725655  83.7641830  12.7413111  17.2952061  84.6212158
  50.0151024  35.7673759  32.4508171  50.4947777  35.3873482  31.7147999
  50.3595047  35.3145218  33.2205811  69.7023773  34.7391777  54.5953293
  70.0486069  34.3768272  55.4108391  70.2802124  34.3932076  53.9151535
  58.3149376  53.4280777  39.7413445  57.5667648  53.2327385  40.3055382
  57.9260635  53.6408043  38.8929596  26.0698795  24.5709686  76.6152420
  25.1696529  24.2465668  76.5909729  26.0544147  25.3610134  76.0750351
  37.8131371  63.4889297  78.2260132  36.8959694  63.7036324  78.0558929
  37.8383560  62.5320702  78.2300797  24.7975864  60.7381935  64.3999176
  24.5183735  60.0617714  63.7828827  24.2233829  60.6234283  65.1571121
  69.4861679  10.8422480  17.2667065  69.0885849   9.9884243  17.0959778
  69.3285446  10.9979525  18.1979122  76.2006989  19.2753258   8.0308685
  76.8538971  19.3190289   7.3325481  75.3603134  19.2688713   7.5726781
  14.5161247  32.5423126  78.1064911  15.3752680  32.8402214  78.4054108
  14.3347502  33.0736885  77.3312607   6.4229236  42.4663887  13.8001728
   5.5104833  42.6680832  14.0075455   6.6440210  41.7359352  14.3779125
  71.3720322  28.2220802  73.9848785  71.3594437  29.1621323  73.8049393
  72.1848679  27.9125843  73.5851898  66.0023041  53.3873596  12.5685511
  66.9076767  53.3998260  12.2581081  65.8382874  52.4711494  12.7919111
  71.0333328  66.1706390  32.4028435  70.5173950  65.3738251  32.2798615
  71.0285645  66.3154068  33.3490219  12.1926050  71.3082657  85.3080292
  11.7998896  70.6667175  84.7160721  13.1279402  71.2787857  85.1067505
  75.6080780  60.0147667  79.2655182  74.7508926  60.3407745  79.5396957
  75.4122620  59.3616829  78.5936737  79.3595886  42.0639229  54.4117966
  79.5676651  41.5287476  55.1776466  80.2034607  42.4169617  54.1298714
   9.3238888  59.9832954  71.6498032   9.6222153  59.7380028  70.7739868
   8.9240608  59.1865692  71.9985199  72.9861221  67.2338028  14.3994274
  73.0160294  67.4064407  15.3404551  72.7577286  68.0770798  14.0083513
  22.9336739   2.7488377  87.4953766  23.0282726   2.9737420  86.5698013
  22.6937275   3.5730648  87.9188232  25.3500195  14.7834024  62.8814011
  26.1217957  14.2773924  62.6273384  24.6501389  14.4512949  62.3191719
  65.6776428  36.2458916  78.3951111  66.2319946  37.0230637  78.3248596
  64.8480148  36.5065079  77.9950790  45.9539833   5.9005761  48.5884361
  46.2105141   4.9786429  48.5669289  45.4234352   5.9831367  49.3808594
  19.4351521  70.0427780  44.5853615  20.0837955  69.4184494  44.2602425
  19.6231689  70.8524780  44.1107445  42.8507576   3.1493316  86.6274872
  43.3728409   2.8533053  85.8818130  42.0455780   3.4885476  86.2365341
  59.4243851  68.0055161  88.5139847  58.9785233  67.7379990  87.7103195
  60.3337708  68.1432571  88.2488861  55.6143646  22.2875900  65.2748108
  55.4630241  23.0744572  65.7984238  55.9307747  22.6168804  64.4335709
   1.8447787  23.3172379  88.7572021   2.5832040  22.8397331  89.1352921
   1.7469894  22.9503937  87.8785172  49.5013809  32.8875389   1.5448236
  49.4651756  32.6965714   0.6075655  50.4331856  33.0054054   1.7294208
  68.7259750   1.6718030  61.7661095  69.1383286   2.5308802  61.6756592
  69.1694717   1.2707518  62.5135689  76.3793182  66.3897095  42.3668060
  76.0766983  65.5043411  42.5687370  75.8019943  66.9614105  42.8728523
  74.0045853   9.8298988  55.6612282  74.0009155   9.1238651  55.0149078
  74.6484222   9.5540485  56.3136215  18.7607384  43.8610344  82.7548218
  19.1887741  44.6035156  82.3285141  18.4153786  44.2205391  83.5719604
  23.9134922  50.0969086  70.6119003  24.6887226  49.9029999  71.1388245
  23.5897865  50.9281693  70.9589539  15.2584553  20.8656902  79.8575745
  15.8350534  20.7899113  79.0972977  14.7044811  21.6218166  79.6636200
  46.2084351  31.3514576  21.3971119  47.1101990  31.0523834  21.5137749
  46.1624451  32.1712646  21.8890820  60.1699944  41.2423210  45.6022682
  59.2818489  40.9709549  45.8341980  60.1383781  42.1989479  45.6119804
  24.4817543  64.0975266  28.4135036  24.5503178  64.9978638  28.0958176
  23.5934563  64.0343704  28.7644596  20.0053368  67.8682556  30.6211796
  20.6372986  67.3499069  31.1193447  19.2092171  67.3368301  30.6179485
  17.1679535  44.5131989  21.5909672  17.7206860  43.7318230  21.5778961
  16.5138893  44.3326340  22.2661171  72.3217468  36.9384956  39.0453148
  71.7698135  37.2371330  38.3225365  72.8895340  36.2743263  38.6545067
  41.0596008  68.3513412  73.9196701  41.8033295  68.4270554  74.5174713
  40.7617111  67.4473648  74.0212708  72.7108154  26.1279125  57.3838081
  73.1912079  25.2999916  57.3852119  71.8735275  25.9196968  57.7983360
  31.4365063  43.7117500  30.7479572  31.0519428  43.5063629  29.8958073
  31.3076897  44.6549721  30.8477879  68.7707214  70.2731247  50.7651482
  68.0506821  70.8473129  51.0261002  69.5614929  70.7601318  50.9969521
   6.8848596   9.8302345  21.7830296   7.1480751  10.1976728  20.9392662
   5.9463134   9.6664505  21.6906357  49.9994316  68.5156326  77.3799820
  50.1632156  68.1172256  76.5251923  50.8695564  68.6269531  77.7630310
  21.1611519   6.0922036  59.6404877  21.2997284   6.9570389  59.2543678
  21.2334614   5.4862733  58.9030266  29.9029789  65.3746414  70.6258392
  29.8255329  66.2927322  70.8853455  30.8389359  65.2477798  70.4705276
  51.8746986  67.1415634  88.6194687  52.0499763  66.5022202  89.3099442
  50.9197807  67.1815491  88.5668716  45.3122177  23.9564419  61.9953690
  44.4683228  23.7338924  61.6022415  45.1424103  24.7589054  62.4887772
  86.2424088  68.3723221  72.4722672  86.6842422  68.9769440  73.0684509
  85.9628601  67.6468506  73.0306320   9.1289558  39.2858543  63.9254837
   9.6843138  38.9968567  64.6495667   9.7137165  39.7937851  63.3630867
  82.1176300  14.0582800  76.3239822  82.8505554  14.5403862  76.7068939
  81.7448273  13.5676937  77.0564957   0.5632437  25.1382523  78.0319214
   1.0747333  24.4545975  77.5992279   0.8880924  25.9556370  77.6543121
  70.2421036   2.9431686  22.2482548  70.4209366   2.7159905  23.1607475
  70.5165100   3.8569088  22.1707191  79.4366150  58.1588287  46.7363396
  79.9626083  57.3829079  46.5426636  78.8504486  58.2446098  45.9844894
  33.9743996  32.3955727  76.3391266  33.8647957  32.4380226  75.3891678
  34.7103043  32.9798317  76.5216599  76.1126785   8.8501215  57.5775757
  75.2704773   8.3994589  57.6395493  76.7544708   8.1463671  57.4823647
  58.6870804  46.5553284  10.2775154  59.4737816  46.1940346  10.6859274
  58.9211235  46.6565666   9.3549070  16.5926685  65.9209518  37.9911232
  16.6453876  66.4221725  38.8048973  17.3034115  65.2831116  38.0562134
  40.4891357  54.0725327  24.1081429  41.2227402  54.3895988  24.6349525
  40.1849480  53.2898521  24.5676174  80.5262680   3.4114265  29.4590092
  80.9661636   4.2495584  29.6013260  80.2514801   3.1337285  30.3328552
  76.3945160  60.0467720  41.1453056  76.0045776  59.2441063  40.7990303
  76.0355682  60.7437172  40.5960693  63.2532959  20.2358856  88.3533478
  62.6809807  20.4488831  87.6162491  63.4032288  21.0742702  88.7902298
  77.1853638   1.4157896  68.8200760  78.0439453   1.0015310  68.7337418
  77.1031265   1.9617342  68.0381470  72.8600388  21.2149429  57.7256584
  72.9781952  21.7764549  56.9595146  72.0523758  21.5301151  58.1313324
  85.0752258  39.9193344  18.1573372  84.6968002  39.1050034  17.8258400
  85.3559875  39.7079506  19.0476856  45.2694473   0.2803499  60.9198685
  44.7340431   0.1035244  60.1463623  46.1389732   0.4746070  60.5699883
  13.8418121  70.8006897  17.5352745  14.3506737  70.9337463  18.3350163
  13.7700129  71.6735611  17.1490612  59.9387970  64.8654480  40.5894356
  60.2456284  63.9984741  40.3240204  58.9871063  64.8214188  40.4968147
  33.6224594  65.9119415  59.7356682  34.2565460  65.3468094  60.1770248
  34.1009483  66.2708740  58.9883804  52.7146530  54.6350632  60.0205269
  53.2859612  54.7038574  59.2556038  51.9456596  55.1576157  59.7928886
  82.0485001  62.2499695  32.6058273  82.7767181  61.7049675  32.9039993
  81.3107910  61.6445236  32.5319939  60.2606239  30.7006721  33.9588699
  60.9005165  29.9942837  33.8706512  59.8743553  30.5672188  34.8244438
  68.6258087  50.2031250   8.2689543  68.8740005  50.7509537   9.0136118
  68.1605835  49.4636765   8.6601315  56.0327454   4.5841212  53.0089645
  56.1603088   4.1657572  52.1575394  56.1449547   5.5188107  52.8357697
  82.1965866  43.8293381   0.1035173  81.3652802  44.2891693   0.2206421
  82.0469742  42.9635391   0.4833055  13.5621634   0.0957516  69.9442139
  14.0475883  -0.0943405  70.7469940  12.6887283   0.3454151  70.2458954
  68.0803528  47.5010033  29.5166645  68.4440918  48.0109863  30.2404327
  67.2306519  47.9055862  29.3418484  83.9670029   2.6068928  86.9309921
  84.9163132   2.6496608  86.8160400  83.8472595   2.3876536  87.8550186
   2.7173011   8.2505894  37.8893890   2.4888446   7.4734216  37.3794403
   3.1545424   7.9060960  38.6680908  80.4444427  43.6783600  26.7359200
  81.1399689  43.9485092  27.3355045  80.6814499  42.7868881  26.4802971
  67.1328583  70.9949341  28.5050316  66.9057846  71.5723114  27.7761230
  66.7059708  70.1644211  28.2946777  53.1105919  35.0236168  76.7031784
  52.7939873  34.9150238  75.8064041  52.9875641  34.1642189  77.1063309
  29.5445766  54.9844437  15.1076088  30.1062946  55.6259041  14.6725979
  29.5611687  55.2382965  16.0303841  48.4232101  42.5964508  20.4135380
  48.5928535  43.2936821  21.0470409  47.9058800  41.9532013  20.8981342
  37.7509842  64.1717606  84.1482391  37.2922859  64.1429367  83.3085938
  38.5171852  64.7214432  83.9838333  37.6831131  21.4203644  80.1053162
  37.0979118  20.6710835  80.2164383  37.3195877  22.0952740  80.6785278
  17.6172886  53.6535759  54.5200882  17.5172501  54.5568275  54.2194977
  16.7936611  53.2287903  54.2804489   7.9149532  30.8746777  17.8352604
   7.7104611  30.1276627  18.3977394   7.5234404  30.6526604  16.9904766
  44.4534836  54.0946426  22.0751514  44.4412079  53.6688766  22.9323597
  43.7512665  53.6668282  21.5851536  62.9981461  70.3312454  56.2720108
  63.1843719  71.2055740  56.6142197  62.2265282  70.0426254  56.7593842
  46.3709068  21.9811172  68.8785248  47.3141212  21.8724251  68.7570190
  46.1975517  22.8839760  68.6120148  64.6282578  43.4801064  75.2409668
  64.8688812  43.6228523  76.1563644  64.5209885  44.3606949  74.8814011
  76.3441772  49.8084526  69.2199707  75.7810287  49.8977013  69.9888229
  77.2246628  49.9966812  69.5448532  54.7502403  65.9728470  29.3878975
  54.5671806  66.8072357  28.9560184  55.4996529  65.6158218  28.9113064
  73.7674942  71.1433945  75.5260086  74.1373978  70.8545761  74.6917496
  72.8520813  71.3398666  75.3269119  36.9496727   5.6993170  64.7909622
  36.7415047   4.8448157  65.1687546  37.4876022   6.1302285  65.4551773
  76.0706787  38.9251289  50.3371620  76.8333588  39.2409363  50.8217316
  76.3676071  38.8763237  49.4284935  54.1118546  25.7184963  69.3400726
  54.3504753  26.4930096  69.8494110  53.4041634  25.3117409  69.8400269
  11.5573721   9.7632322   2.3568573  10.6985960   9.7351036   1.9350221
  11.5511417  10.5783243   2.8586724  49.1875610   2.7426970  19.0828323
  48.9583359   1.8135501  19.0635052  48.8579330   3.0880194  18.2531757
  74.8723450   2.8017216  45.4167099  73.9778976   2.5277553  45.6195526
  75.3812790   1.9912641  45.4360199  68.7260284  67.7523575  16.8553391
  68.7864380  68.6513367  16.5322056  67.9290619  67.7414169  17.3853931
  63.2807159   4.3747816  44.9267006  62.8196793   4.4573631  44.0919228
  64.2019119   4.5126648  44.7062149  20.4682503  12.4656162  76.2933197
  21.0342178  12.0414915  76.9383240  20.7855530  12.1454182  75.4489059
  77.0460968  37.4444389  85.9747772  76.5865479  37.9932480  85.3392792
  77.0120544  36.5642891  85.6000748  22.6606655  51.7343788  35.4724236
  22.0947590  51.2684860  36.0879936  23.1515102  51.0431213  35.0280533
  35.1907387  51.2172050  80.3528748  35.5893440  51.6845474  81.0869980
  34.3535995  50.9034195  80.6948776  77.9449692  71.3587952  24.1562691
  77.7334442  71.7445755  25.0063667  77.1025085  71.0633011  23.8110542
  32.3848457  20.4916325  74.9491501  32.2283325  19.9684067  74.1630402
  31.6238194  21.0692368  75.0078583  36.1622925  43.3943863  38.8945732
  35.6670456  44.2111130  38.8319550  35.7144775  42.8944550  39.5770378
  84.0310364  21.1232586   4.0889831  84.3621368  20.5849838   3.3700504
  83.4064484  20.5579605   4.5434699   0.4822392  36.3279724  35.9202995
   1.2523100  36.8831444  35.7978020   0.8385723  35.4772072  36.1761475
  70.5201950  38.4415741  13.7052126  71.4125977  38.4574165  14.0510378
  69.9636688  38.3772545  14.4813395  43.1544037  38.8807106  12.0623236
  43.2152061  38.1224098  12.6432838  42.2154617  39.0519104  11.9894314
  43.1399536  70.7745590   0.4254026  43.0050316  70.1910095  -0.3212517
  42.5940628  71.5374146   0.2348862  -0.0404955  24.1382370  31.3832207
   0.8922651  23.9237099  31.3961639  -0.1295227  24.8575497  32.0084381
  20.9063435  28.5904732  10.5508814  20.7369843  28.2845192  11.4419155
  20.1641617  28.2657623  10.0410194  21.3883018  46.9459038  41.7303085
  22.0289478  47.3658981  42.3042526  21.8311348  46.8807983  40.8842049
  34.1384735  26.8853855   4.4139533  34.1806107  27.1523476   3.4957008
  34.0810547  27.7079258   4.9001250  52.3710480  48.6099892  31.4147549
  52.8973236  48.3896751  30.6461678  51.5787392  48.0809250  31.3221817
  72.7668686  44.3300476  39.4171982  72.2229614  44.8429222  40.0149956
  72.1445160  43.7874069  38.9329987  21.1568947  68.5746307   8.7467299
  21.9208431  68.3602829   8.2113132  21.2306709  69.5160522   8.9032946
  82.7610931  64.3831177  71.8544998  82.4074326  65.0940704  72.3890076
  83.7000046  64.3877563  72.0406418   4.5106463  13.5195303  47.2903786
   3.6738868  13.4488239  47.7497978   5.0738220  12.8742447  47.7177811
  30.5078945  58.0205650   0.3791008  30.4456844  58.5986786  -0.3812599
  29.6019173  57.7778091   0.5701684  28.0475597  66.2254639  11.2007170
  27.5849667  66.7973862  11.8132067  28.9057121  66.6352844  11.0918617
   3.9148810  59.2763100  26.1465092   4.6630373  59.7384796  25.7684975
   4.2145572  58.3721123  26.2406139  54.2543297  36.3748436  51.3797722
  53.3732872  36.0066109  51.3134003  54.8013878  35.7812500  50.8653755
  52.0335503  70.0343933  88.0403366  51.8498802  69.1089096  88.2014847
  51.4944954  70.5003815  88.6794815  19.8531666  17.0067310   1.3058974
  19.7270794  17.7399693   0.7036566  20.7785854  17.0508137   1.5464997
   6.3496814  50.1311226  48.4030418   6.4383259  51.0738144  48.5434113
   5.5829039  50.0443573  47.8366852  16.8681393  61.2011948  69.2270126
  17.3142548  60.9572411  70.0379944  17.5760078  61.3572922  68.6018829
  75.7812500  42.2133636   5.2248311  75.6208038  42.6594658   6.0563827
  75.5151062  41.3077240   5.3836255  36.4426537  32.8756256   2.7742620
  35.8714180  32.5654182   2.0716274  36.1729202  32.3719254   3.5422201
   7.6101885  29.5804100  57.8075066   7.8916140  29.7684708  56.9121475
   8.0766439  28.7780190  58.0416412   5.4449735  53.5217247  76.5247498
   4.7713065  54.0668182  76.1182098   5.5461407  53.8829536  77.4053802
   1.0419183   5.1645055  18.9667511   0.3773773   5.8343439  19.1277885
   1.8363898   5.5132403  19.3710175  66.9728470  23.6260796  74.2912064
  67.8754120  23.7505417  73.9977570  66.8614655  22.6760540  74.3269653
  31.4956627  39.0910072   6.7037110  32.0602036  38.3246498   6.8048148
  32.0940056  39.8368149   6.7482896  81.6502762  40.4303017  74.7124176
  81.2609100  39.8120689  75.3308105  82.2973709  39.9134750  74.2324219
  58.0712585  45.9520569  63.5931969  57.8903580  45.1539268  63.0967140
  57.2988091  46.5002365  63.4551849   2.3090127  21.3929787  10.6763716
   2.3736410  20.4577961  10.4827490   3.2162533  21.6785107  10.7841568
  77.3646851  45.0764313  46.5051041  78.1650848  45.5685425  46.6879044
  77.1335297  45.3195343  45.6086121  51.3943863  52.5748520  22.8862190
  51.4001808  52.1257095  22.0409584  51.9773445  53.3240509  22.7633476
   7.6158719  32.2690582  70.9598236   6.6631622  32.2550507  71.0513687
   7.7645969  32.4081802  70.0245361  35.8579674  42.2127457  62.5298691
  36.2114830  42.4541473  61.6737213  35.6030273  41.2951546  62.4336586
  75.5463181  71.0428848  54.1954880  75.5124435  70.6514893  53.3226204
  76.3193283  70.6524429  54.6032181   1.9155250  30.1817703  48.3016319
   1.8983345  30.5493603  49.1852684   1.1397697  29.6225948  48.2597046
  66.4673004   4.1540051  16.4332714  65.8632660   3.5529404  16.8692684
  66.3482513   3.9780595  15.4999437  72.6020584  32.3483429  47.6111794
  72.9900360  33.1043739  48.0517731  73.0866776  31.5970821  47.9531975
  70.0219574  47.7176514  32.0857887  69.6151733  47.2591362  32.8209877
  70.0659332  47.0622559  31.3895416  33.4246063   5.4192734  88.9352875
  32.8032837   5.4776354  88.2094879  33.4599457   6.3067136  89.2922668
  74.8721542  65.0606842  22.1603031  75.5754852  65.4458923  22.6829529
  74.8604660  64.1386108  22.4169750  62.5296364  50.5144157  88.8346100
  62.2435493  51.2035141  89.4342194  62.2189445  50.8002434  87.9755402
  36.5504951  46.6644096  71.7583847  36.7124710  46.1026993  71.0004425
  35.6862335  47.0424538  71.5960007  61.1660767  61.7423477  48.9488144
  60.6841202  62.1028976  49.6930923  61.5382805  62.5078468  48.5109711
  50.3267441  50.4846191  64.9379807  50.4605560  51.1364098  64.2498703
  50.6263962  50.9161110  65.7381363  46.5965042  64.1351089  43.2698898
  47.4233704  64.3083878  43.7198906  46.1559410  64.9844666  43.2428856
  33.7128334  51.9649544  75.7805023  32.7666626  51.9361267  75.6385193
  34.0806808  51.4787560  75.0425797  10.1250076  40.2545471  42.1753426
   9.6590080  39.9350662  41.4026794  11.0508251  40.1390228  41.9614563
  33.5326271  27.7801704   0.6018619  32.7294693  27.8934689   0.0935960
  33.3917923  28.3020687   1.3918103  54.6089516  27.4930992  17.9853497
  55.3367462  27.5334587  18.6057682  53.8660278  27.1896038  18.5070667
  11.4926310  53.8119125  29.7721443  10.5746040  53.8796501  29.5097141
  11.8834143  54.6397171  29.4923897   0.6728221  46.1306953  65.6726379
   1.3966302  45.6587677  65.2607880   0.7363667  45.9042282  66.6004868
  21.9433937   3.1624002  13.2123823  21.9091759   3.0727434  12.2600050
  21.3030758   3.8453710  13.4118176   7.4996238  46.3357697   4.3080139
   8.2731113  45.7967796   4.4736633   6.8240461  45.9663887   4.8766842
  82.7365036  69.2791290  49.6810379  83.2936783  69.2706909  50.4593163
  82.9866104  70.0775452  49.2160645  32.3336182  56.5088310  64.2369995
  32.9778862  56.4312248  64.9406509  32.3093987  55.6393433  63.8374557
   1.5593401  23.6259022   4.7147312   2.3881347  23.8398342   4.2862864
   1.3716210  22.7287807   4.4387507  45.8893890  33.1112518   0.4196941
  46.4482727  33.3259926   1.1665322  46.4456367  32.5811691  -0.1511236
  65.5379333  25.4979687  45.1925507  64.8233109  25.1673355  44.6482811
  65.8431549  26.2822857  44.7365685  23.7609558  42.5883026  70.0495529
  22.9922733  43.1198387  70.2565002  23.9640751  42.1326637  70.8664780
  49.2570763  35.1583900  29.0847778  50.0089951  35.0657158  28.4997463
  48.6854744  35.7860451  28.6425667  79.5171814   1.4143128  31.9723244
  79.8137131   2.0728443  32.6005249  78.6121902   1.2322254  32.2254448
  24.6802578  14.5744944  83.5293655  24.5058041  13.8846350  84.1695938
  24.0129337  15.2380247  83.7044067  13.6567459  62.3487473  12.4449034
  14.2575417  61.9800644  13.0924740  13.6369953  61.7010193  11.7404232
  69.2848053  36.2836418  26.3589993  69.7536316  36.3811378  27.1878109
  69.1364441  37.1810074  26.0607433  50.2917557  18.4489479  72.5240707
  50.3644524  17.8237743  73.2452545  51.1776161  18.7954712  72.4172745
  85.2788239   4.9418998  11.4495277  85.2958755   5.3067822  10.5647669
  84.6522064   5.4895716  11.9224367  57.3112907  51.9570847  63.7432022
  57.4881287  51.2014275  63.1828957  56.5218048  51.7163010  64.2279358
  86.5383301  43.1399689  48.0174484  85.7083359  43.5963326  48.1555672
  87.1943893  43.8367004  47.9979019  37.4646111  42.2911987  21.7905121
  38.0608673  41.8294258  22.3799801  37.1227417  41.6088181  21.2128315
  45.8630829  69.5928574  63.5773010  45.1581078  69.5968018  62.9298248
  46.3881721  68.8240356  63.3549843   1.3269918  56.7986336  70.1336441
   0.8043191  57.5938606  70.0304108   0.7103515  56.1488228  70.4708939
  80.9071579  31.7445126  79.6627274  81.4181824  31.5947533  80.4581223
  81.2384872  32.5736237  79.3177261  27.9944077  60.3153801  24.7564182
  28.0310841  61.2404594  24.5132828  27.1626129  60.0062180  24.3975754
  25.0314083  61.5163193  27.7403755  24.2248707  61.3177376  27.2646694
  24.9507561  62.4413338  27.9729118  31.8987885  33.4168930  87.6288681
  32.7218056  33.3311691  87.1477051  31.9461823  34.2837906  88.0319519
  26.5840549  53.6492653  27.4935818  27.0930004  53.1190720  28.1068497
  25.7129917  53.7006760  27.8870754   4.8159943  39.8747787  55.3717194
   4.9711924  39.8173904  54.4289284   4.0301981  40.4153404  55.4526329
  53.7632675  16.5257397  26.8131104  53.6435242  17.4091549  27.1616421
  53.4221077  16.5723419  25.9199867  73.7313538  23.9137611  22.9947777
  73.8855591  24.3866997  23.8125706  73.7094727  24.5961800  22.3239136
  20.8953018   4.8312159  53.6790695  20.7803631   5.2460833  52.8241386
  21.7625332   4.4284511  53.6351891  42.0298920  63.5949783  61.8144264
  42.7303505  63.5319862  62.4637527  41.5282631  62.7871590  61.9241142
  35.8853951  18.9102554  69.2131348  36.7082176  18.5334854  68.9012985
  35.6160164  19.5077991  68.5155640  48.3938789  52.0979843  34.0338631
  47.9356232  51.4123306  34.5197792  48.9205627  52.5483170  34.6941910
  75.3905640  41.9577751  30.3277874  75.6155548  42.8879929  30.3453102
  74.6570740  41.8772354  30.9374943  70.7224503  36.6468697  11.4410906
  70.9790878  35.7259521  11.4888344  70.6336670  36.9184380  12.3546543
  30.9870377   1.1113260  60.8454094  31.8008423   0.6752360  61.0979576
  31.2050152   1.5758730  60.0373802   7.1754436  49.4459038  65.8390732
   8.1196938  49.5267105  65.9735870   7.0222936  48.5031357  65.7761307
  28.8991947  27.7987175  10.0364628  29.3276043  28.2214050  10.7807961
  28.8220730  26.8801746  10.2944613  60.2104836  17.3173161  43.2397804
  59.6293678  16.5768299  43.0659447  60.8689537  16.9690514  43.8409119
  17.6456470  69.6330643  18.1280193  17.8544846  69.7563171  17.2020454
  18.4492798  69.8738785  18.5889053  48.4152031  26.3341713  67.5251236
  49.2196312  26.8159981  67.7173920  47.7117043  26.9421558  67.7524567
   5.9617581  10.7267342  60.1583786   5.5696316  10.3249588  59.3831100
   5.8264556  10.0846605  60.8552780  60.4353447  39.8595619  19.2802811
  59.7926750  40.0044746  18.5858688  60.8324776  40.7188492  19.4222050
  54.8194427   5.3395867  15.4783983  55.1207848   5.9353948  16.1642838
  55.6016922   5.1593695  14.9570141   9.1633291  33.9588623  36.5531731
   8.6317539  33.4978294  37.2021027   9.5617933  33.2622833  36.0314064
  17.5057240  41.2131462  31.4916897  17.0408077  41.1126480  32.3223419
  17.7104549  40.3178444  31.2219601  44.7155991  69.6090012  77.4374237
  44.5168228  68.8885651  78.0354919  45.5920334  69.4113159  77.1072464
  58.5791550  55.0401344   0.1539795  59.2284851  54.9624786   0.8529593
  57.9518776  54.3390732   0.3308207  82.6770706  30.5661697  39.5475540
  82.7595673  31.4657803  39.8639793  83.5181046  30.1602859  39.7577057
  29.7301350  11.0759277   1.5660826  29.8817768  11.7532578   0.9069464
  29.6672649  11.5554018   2.3921475  83.9209061  61.2952652  68.7851181
  83.3438339  60.5316811  68.7976379  84.1762161  61.3875084  67.8672180
  22.5253696  50.1613960  87.4194336  22.0418606  49.6013680  86.8121262
  22.9173317  49.5530052  88.0458984  52.7625809  41.9165688  69.1770096
  52.2980042  42.3210754  68.4443588  53.1479111  42.6528168  69.6520844
  22.5866241  69.4623947  88.5886688  23.2852650  70.0571823  88.3159790
  22.7543526  69.3059921  89.5179901  36.9562912  40.5180588  16.7687645
  37.1117172  39.6386871  16.4241199  37.4081612  40.5279465  17.6125336
  46.1012993  18.2548885  10.4699373  45.5502739  18.8202991  11.0111532
  46.9877243  18.3943081  10.8031721  69.6701736  70.5288391  27.4992828
  68.8108597  70.5456085  27.9206219  70.0324326  71.4002686  27.6592979
  34.0944061  60.1829872  71.5482635  34.2055588  59.5844574  72.2869339
  33.4760475  60.8416138  71.8646164  30.5874805  63.9557915  74.5899277
  30.4447937  64.5674667  75.3122330  29.9910126  63.2291451  74.7700577
  54.1775093  52.4775085  66.9155121  54.4244728  53.2450104  66.3995895
  54.1424255  52.7963295  67.8173752  17.1771183  50.5950699  62.7136841
  16.7792816  50.9763794  63.4963493  16.4624367  50.5521889  62.0783730
  84.5514679  31.3049030  63.2689667  83.9336624  31.5757656  62.5898628
  84.0292130  31.2773018  64.0706635  77.8625870   7.6120863   2.6353378
  78.2322845   8.1359816   3.3460326  77.5724869   6.8043180   3.0591128
  13.6576595  24.5640583  67.9782410  14.1968794  25.3343830  67.7991409
  12.7581968  24.8906403  67.9549255  28.5153580  37.9213791  29.2720413
  28.9641819  38.0865479  30.1012020  28.8863029  37.0963326  28.9591007
  14.5254583  58.7496834  26.1113071  13.6881065  58.9678574  25.7020702
  14.9218082  58.1101494  25.5195866   4.3292475  45.9035835  52.6714439
   4.8018632  46.2692604  53.4192047   4.8178453  45.1128998  52.4426994
  56.7080688  34.4896126   9.5277176  56.5809135  35.3161201   9.9934950
  57.4941673  34.1112251   9.9215431  78.2381516  71.0138474  85.4435425
  79.0627518  71.3179932  85.0643768  77.7669296  71.8164444  85.6671982
  21.3551121  39.4042702  10.8960381  21.3052845  39.5951843   9.9593945
  20.7830639  40.0544624  11.3037653  32.9135933  35.5571404   9.5311642
  32.0184822  35.3111572   9.2977152  32.8580666  35.8190536  10.4501581
  14.2852840  53.0091019   8.7524137  13.4544840  52.5361557   8.7041855
  14.0928631  53.7770004   9.2905035  31.3822021   0.9241205  12.5127792
  30.8966656   0.8923831  13.3370838  32.2957649   1.0329720  12.7769556
   1.0527893  28.9933357   4.8001237   1.7401574  29.6486950   4.6807032
   1.4137409  28.3819084   5.4420753  63.7828598   1.9322697  85.8800278
  62.8803139   2.2127268  86.0316467  64.2563400   2.2157209  86.6621399
  69.5057373  62.0301208  46.5411148  68.7386780  62.3079910  46.0404778
  69.5418243  62.6368980  47.2805405  67.2693329  29.8493156  15.8144760
  66.7485352  30.6163063  16.0526447  66.6347733  29.2331791  15.4484940
  43.6955490   1.6992450  55.5250931  43.8982124   0.9563258  56.0936279
  42.7630234   1.6048295  55.3308830  57.2571716  51.6923866  27.7744236
  56.5186539  52.2811928  27.6190815  57.5323257  51.8846321  28.6708412
   3.7526131  45.4262314  21.7089672   2.8861010  45.0200272  21.6893368
   4.3078747  44.8304558  21.2060070  30.5679169   8.1817083  10.8482504
  31.2361584   7.4969878  10.8192244  30.4087200   8.4000940   9.9299936
  67.9648056  62.7088394  14.0874195  67.1429901  63.1675262  13.9128952
  68.6450424  63.3528214  13.8904314  68.0461426  48.1691399  89.0088806
  67.1433945  47.8998108  88.8393173  68.4512634  48.2079086  88.1425018
  55.4725685  20.3581753  68.8264465  56.1719093  20.8341770  68.3785934
  54.7052193  20.9240341  68.7415314  73.2879486  47.7255402  16.2219238
  72.7634125  47.2771492  16.8852825  72.9187393  47.4349670  15.3879671
  22.0045033  14.0161037   3.5935161  22.6520481  13.4258432   3.2081470
  22.2957535  14.8912182   3.3374295  15.0089178  68.8827896  15.7230415
  14.6290770  69.3468323  16.4691105  15.7721605  68.4322433  16.0845661
  77.5533752  25.9318333  63.8852844  77.6419144  26.8189793  63.5369072
  78.0879822  25.9318466  64.6792755  10.0189734  18.8022823  51.1976357
  10.9632282  18.7147903  51.0674019   9.6309662  18.2787590  50.4964905
  11.8365574  46.0338097  19.9945259  11.5289612  45.1358032  20.1178265
  11.8183098  46.1651993  19.0465622  10.0720778  64.9205093  81.8986206
  10.2949467  65.7536163  82.3139496  10.7190514  64.3025894  82.2389526
  50.2624016  21.9197903  68.1485062  50.8510170  21.1815529  67.9911194
  50.0768394  22.2682896  67.2765274  86.3996582  39.4261360  72.1306076
  87.2753220  39.0628929  71.9982986  86.1598206  39.7895851  71.2781906
   6.1278610  46.2506790  38.0608368   5.4550953  45.6257553  38.3311806
   6.4960589  46.5764542  38.8821373  50.0444984  10.3015366  34.6124687
  49.9580307  11.2547083  34.5976601  49.1498260   9.9816561  34.7285309
   8.6588573  13.1786947  17.6140976   8.5117016  12.5534115  18.3237457
   9.6030083  13.3358116  17.6252575  69.1393204   6.1516171  25.2891235
  68.4226074   5.9179473  24.6992397  69.8347549   6.4626665  24.7096043
  10.4569359   8.2110958  70.4908981   9.5394516   7.9632149  70.3768387
  10.4547281   9.1670036  70.4412308  72.5108871  52.6369133  15.7424498
  73.3751755  52.2533646  15.8911991  72.5504532  52.9771576  14.8486376
   2.1025517   4.6094890  62.3764153   2.4330809   5.1408286  61.6520805
   2.8232436   4.0154357  62.5860214  21.8042831  50.3170547  68.2679825
  21.6890793  49.3868370  68.4620361  20.9153595  50.6454697  68.1331024
  13.0639515   1.7060295  66.3204651  12.3682585   1.9476153  66.9319229
  12.6138077   1.5715973  65.4864807   5.2635202  43.3243637   1.3751545
   5.7781038  44.0398750   1.0016803   5.8202419  42.5520058   1.2763838
  47.4703751   1.5214939   1.9870518  46.6917953   0.9681867   2.0494964
  48.1994934   0.9037189   1.9325167  47.0923996   9.4916945  55.8923302
  47.9089470   9.1183558  55.5605087  46.4112282   9.1048698  55.3422394
  75.0235062  63.0753860  57.1429138  75.7706223  62.9573784  56.5562935
  75.1047592  62.3656235  57.7799911  73.6687317  58.3034363  25.7562943
  73.9952316  59.1666985  26.0100822  73.2589111  57.9595184  26.5500183
  59.3603058  26.8949623  61.0962219  59.5411415  27.2490406  61.9669456
  58.5718498  26.3647728  61.2122765  71.0381165  14.2681837  83.7016830
  70.9197311  15.2122717  83.5972061  70.8205566  13.9031515  82.8439789
  25.2287502  55.2258682  74.7749481  24.6120396  54.6221581  75.1889877
  24.7222958  55.6463928  74.0800400  14.9284687   9.7599401  88.4819412
  14.2510242  10.3819094  88.7473755  15.4627323   9.6383028  89.2667999
  49.0317497  51.5991592  81.8670807  49.2277336  52.5360641  81.8723297
  48.3247681  51.4987755  82.5045242   7.5249166  31.2733555  60.0727959
   8.1667061  31.8733387  59.6928482   7.3173304  30.6644478  59.3640137
  86.5167542  43.4378510  28.8949242  86.3392639  42.5346260  28.6324139
  85.8036499  43.9446831  28.5065441  40.0577164  61.2247124  20.3428955
  40.3856773  61.1249924  21.2366142  39.1176453  61.0585480  20.4127979
  48.6192322  14.1343222  51.9359207  49.3130074  14.7744532  52.0944786
  48.0802460  14.5299921  51.2509613  72.9594498  32.4541931  27.3301105
  73.7594070  32.5161819  26.8081360  72.7701492  33.3568077  27.5863972
  62.9469337  11.5817108  85.4398880  62.2683678  11.8342743  86.0659790
  62.4657097  11.1967363  84.7074585  59.5980949  35.8362732  48.6707726
  59.4497681  36.6157494  48.1353760  58.7347260  35.4299889  48.7466660
  76.6876144  42.7708054  47.8002396  77.0002289  43.6026039  47.4444122
  75.7336731  42.8489265  47.7890892  86.4442215  44.4151917  85.5722427
  86.2536850  43.4995270  85.3685532  85.9858856  44.9117508  84.8943176
  67.4337540  26.7150288  24.4716396  67.6296310  25.8927231  24.0225525
  66.7939377  27.1494637  23.9076004  61.9067612  47.3296890  61.4096947
  61.4065971  48.1123848  61.6408958  61.6741753  46.6894951  62.0822144
  67.5329742  37.2965546  47.3677368  66.6103745  37.3858147  47.6066360
  67.5380554  37.3398399  46.4115295  71.3396149  41.4508171  67.5808792
  70.3974457  41.6196785  67.5740967  71.4134598  40.5120659  67.7527008
  57.5707932  31.7581787  55.2684631  57.6233139  32.4757652  55.8997650
  58.4797592  31.4893456  55.1352654  48.0980949  58.4232368  66.7961426
  48.2632484  58.5885315  65.8679047  48.9629784  58.2441788  67.1651230
  38.4266472  64.5522308   6.3080621  37.6285896  64.0490723   6.4698253
  38.8902016  64.0557861   5.6336007  54.3135262  10.5674839  63.4200401
  53.8383751  10.0190306  62.7958107  53.6289825  11.0438757  63.8898087
  38.8968506  14.5556164  83.8497620  39.7510567  14.1279278  83.7893372
  38.8153915  15.0446424  83.0309525  19.5304337   7.1786366  15.6328859
  18.6312160   7.3568945  15.9083166  19.7114677   6.2980213  15.9614820
  65.8123245  41.6788940  64.4004974  65.3553085  41.3731384  65.1840134
  65.1667099  41.5954437  63.6987495  52.3971291  45.6406898  53.7375832
  51.7713547  45.5912094  53.0149536  53.2548180  45.6321754  53.3126945
   1.5142741  47.4332237  25.7887058   0.9383384  47.7961426  26.4616222
   2.2990937  47.9800186  25.8248177   5.4781499  55.4716644  52.7009201
   5.0879364  55.0318336  53.4562454   6.3205557  55.0341377  52.5778198
  69.3759613  55.0585480  73.6959839  70.1206207  54.7890968  73.1582870
  69.6841812  54.9629173  74.5971451  66.6964417  47.5236435  83.7000046
  66.4080811  46.8971977  84.3638153  66.0086975  47.5011063  83.0346146
  63.4520073  31.8784618  56.5758591  62.9888077  31.1462917  56.1689148
  63.6202316  32.4856644  55.8552780  10.4678173  52.1090508  56.7488899
  10.2354832  51.4281540  56.1175117  10.7084389  51.6289253  57.5412369
  14.7275438  14.8317833  70.8258362  14.5964508  15.2355042  69.9678955
  14.4858837  15.5147991  71.4513931   2.3973165  20.8404026   6.9612889
   2.6573591  19.9199028   6.9971814   3.0583394  21.2965107   7.4821019
  63.3627396  17.9182262  70.8574066  64.1211014  18.4763947  71.0293655
  63.4415588  17.6854000  69.9323120  85.6580429  41.0123062  61.9591141
  84.9297867  40.4659691  61.6634903  86.0310440  41.3705673  61.1536636
  17.4381351  62.3797455  27.7637539  16.6857109  61.8508415  28.0289936
  17.0987129  62.9502525  27.0741558  56.1477776  45.8797302  59.6950417
  57.0958138  45.7533646  59.6564178  56.0384750  46.7930031  59.9600258
  74.2784195  17.3812923  43.4936142  74.8868408  18.0395699  43.8293610
  73.9072723  16.9762573  44.2774658  78.4875946  10.6548834  44.4661102
  78.6422882   9.7347069  44.2526245  77.8533020  10.9490690  43.8123856
  60.0626488  28.9308777  59.1555862  60.0440979  29.8410397  59.4513779
  59.7204628  28.4311275  59.8967934  12.6602249  67.2125092  19.4614449
  13.5291958  67.5124054  19.1946449  12.8099108  66.7457657  20.2836266
  50.7936935  41.9086800  19.3244572  50.6613503  42.8049431  19.0155392
  50.0442505  41.7389374  19.8952026   7.4801602  57.8940392  72.3384171
   7.7913427  57.1911125  71.7680740   6.6126485  57.6058159  72.6222916
  75.3689423  41.4626465  84.5862198  76.2675095  41.1340599  84.6150742
  75.0516586  41.3716049  85.4847031  50.3228874   9.9175653  53.4683342
  51.0600700  10.4614964  53.7457047  50.6702309   9.3933048  52.7467155
  68.5201645  34.9499969  86.6469116  68.4701767  35.7920036  86.1944122
  69.0727310  34.4079247  86.0838394  77.3544006  30.0095196  52.2055206
  77.6834106  29.2445545  52.6775475  76.7782745  29.6463757  51.5328865
  83.8403549  34.7359962  36.2253151  83.2768402  34.9716797  36.9622955
  83.2410202  34.6476555  35.4842186  45.3797455  26.5471916  66.1000519
  45.9179459  27.3381062  66.0679779  44.4918671  26.8679218  66.2582703
  48.0368309  42.1890907   4.3311744  47.9638863  42.6644783   3.5035763
  47.4814110  41.4183083   4.2144008  44.4060135  47.6845894  19.4062748
  44.8095360  48.4719582  19.7715893  43.9195976  47.3035240  20.1373138
  57.2095718  25.2189884  58.7925568  56.3589745  24.7911930  58.8910828
  57.7881279  24.7414761  59.3871040  21.6935196  35.1326180  18.2516460
  21.3092785  35.9051018  18.6662045  20.9661865  34.5150566  18.1752434
  54.3281975  23.8556156  52.4538536  53.7357368  24.4489136  52.9156113
  53.9271507  22.9920788  52.5523224  46.3964233  39.6654129  88.0951996
  46.1516876  39.2386246  87.2741089  47.3204536  39.4453392  88.2133865
  24.9634094  17.2423153  78.2640915  24.9879875  16.9934750  79.1880569
  25.0110664  18.1982937  78.2721634  49.0029144  38.4001007  43.7814407
  49.6950035  38.7111664  44.3649559  49.2273369  37.4855270  43.6099167
   1.3161565  51.4916573  63.7776756   1.2798356  52.2652550  64.3402176
   1.9427456  50.9108582  64.2092896  70.9445114  22.6526566  58.9085579
  70.2574387  23.2698135  58.6570168  71.0523071  22.7850628  59.8504066
  28.0925961  25.0522747  85.5303497  27.7996178  24.1412582  85.5092392
  27.7101536  25.4083385  86.3323364  35.5030479   9.2794456  13.3442602
  35.8777885  10.0554762  13.7608871  36.2572136   8.8140783  12.9824553
  36.9781075  68.8364487  79.0494385  37.1871490  69.6899414  78.6698685
  36.0372658  68.7343903  78.9058075  51.2883797  70.7898788  17.4412422
  50.5494576  71.3109741  17.7553978  50.8864479  70.0912552  16.9249096
  40.6688499  69.9133606  84.2727890  39.8418083  69.8912354  84.7541885
  41.3303146  69.6740112  84.9219437   9.6195250  26.3373413  14.7999086
   8.6964207  26.1291122  14.9439602   9.7772818  26.1058044  13.8846292
  65.3859940   4.3112183  62.6300545  64.8362198   5.0881352  62.7319603
  65.0855484   3.7137029  63.3148460   3.5567987  45.5061874  72.5657806
   3.2154040  45.9301567  73.3531418   4.1273518  44.8120575  72.8957596
  54.2145805  43.8021774  17.8117847  53.5325050  44.3370743  17.4057140
  55.0286751  44.1081238  17.4119396  84.2586288  70.5488052  10.5209055
  83.8305359  71.3122711  10.1334896  85.1481857  70.5682373  10.1680050
  46.6902199  45.2252693  29.0180130  46.3707085  44.5566139  28.4121704
  46.9963608  45.9342613  28.4524708  45.8152199  51.2296333  63.0670929
  45.8419304  51.4267578  64.0033951  45.0901413  50.6118660  62.9729843
  46.5738029  58.3465424  32.1325226  46.1816750  57.5392647  32.4653397
  46.2384758  58.4252243  31.2394390  40.2700996  52.0139771  20.2144852
  39.9172287  52.8826294  20.4072399  39.7311134  51.4161530  20.7324944
  41.6853371  44.5845184  81.5110397  40.9599609  43.9939461  81.7142258
  41.6574059  44.6794701  80.5589676  50.4795341   0.7838793  60.6835403
  49.7128525   0.4115826  60.2478523  50.4138374   0.4767893  61.5877609
  85.3817902  65.5920792  68.1516418  85.4085922  66.3818741  67.6115189
  85.6924591  65.8786011  69.0104904  28.7512817  56.7092209  66.0647964
  29.2977715  56.1463394  66.6131973  27.8538761  56.4860573  66.3119659
   4.7836981  53.0225525  19.1577549   4.4874687  52.2734070  19.6747246
   4.1546698  53.0810661  18.4386349  48.7254906  27.2835331  80.4294510
  48.2875099  26.4374084  80.3373718  48.2276421  27.7382469  81.1088791
  14.1920557  59.6319618  61.8678017  14.3618975  59.7772141  62.7985458
  13.2407761  59.5434952  61.8088760  71.9511948  13.0047789   1.4920309
  71.5073776  13.8517056   1.5364404  72.6689529  13.1426220   0.8739245
  77.5961609   3.8449452  41.6554604  77.6206741   3.1995685  40.9489746
  78.1298752   4.5718226  41.3344803  63.5558929  40.9193230   5.4550376
  63.4957428  40.3348656   4.6993766  63.0873566  41.7090836   5.1848912
  59.7366676  31.6558704   2.5214937  60.5997200  31.9150906   2.8442597
  59.4944725  30.9042473   3.0624523  37.6680603  40.3040657  76.3294220
  37.2858238  39.4398804  76.4821014  37.8991241  40.6213913  77.2024307
  75.1820450  66.0808411  55.9498062  75.7437668  65.9026566  56.7040977
  75.2012863  65.2708130  55.4401855  26.1578426  26.1944752  68.1837006
  25.6388378  26.0803509  67.3875580  27.0663910  26.1567211  67.8847961
  33.6436844  48.1051445  79.5848770  33.3402252  49.0112114  79.5284500
  33.6900673  47.9261360  80.5240402  82.4906921  38.1338768  14.0388956
  82.4969711  38.0192146  13.0886087  83.0378036  37.4215164  14.3697205
  51.1665230  46.2853050  59.7981339  52.0007210  46.1180534  59.3595352
  51.2331619  47.1903915  60.1024551  26.6141834  65.8094940   8.9123278
  25.7458839  65.9682770   9.2825632  27.2213669  66.1218567   9.5831394
  66.5472794   0.6044554   7.8912902  66.3809967   0.0957629   7.0976815
  67.3681107   1.0637562   7.7137837  34.1495399   0.5977677  24.7948246
  34.9509468   0.4100586  24.3062134  33.4671936   0.6483515  24.1254387
  61.2872162  44.5289040  35.2875290  62.0554962  45.0373573  35.5472450
  60.9633522  44.1499672  36.1046906  56.9933548  53.7386093  37.2495956
  56.2590637  54.2385254  36.8930397  57.4709167  53.4317589  36.4788742
  79.1457367  52.3757172  65.8609009  78.2572708  52.1249771  66.1138763
  79.1704941  53.3248558  65.9823456  21.2642517  49.2427597  32.0924263
  20.5747852  49.2949829  31.4305058  22.0596867  49.5088882  31.6312447
  49.7371368  68.1279907  12.1075010  50.0524216  68.9948654  12.3631477
  50.4802094  67.7259521  11.6575632  42.3631134  61.0685959   4.7429557
  42.7235184  60.4246941   4.1332598  41.6236725  61.4550247   4.2737718
  82.6907883  69.9121399  31.7308083  83.5288315  70.3397217  31.5545139
  82.0335083  70.5442505  31.4398594  37.7853088  43.6008034  63.5281448
  37.1082878  42.9419746  63.3738136  38.5100136  43.1125488  63.9188423
  36.4630432  64.6361694  32.8297043  36.1463013  64.7633133  31.9354210
  35.6907082  64.3535004  33.3194275  64.7810898  40.2424240  53.2877846
  64.8423767  39.4159431  53.7667427  65.6202164  40.3188515  52.8336296
  27.4967384  46.4157524  83.5398483  26.6844482  45.9117928  83.5892715
  27.2725239  47.2685776  83.9122009  51.6401405  38.3732185  69.5472183
  51.5772667  37.8737869  70.3613663  52.2838402  39.0564651  69.7344589
  60.4912910  68.0569458  61.3691711  60.0921745  68.4847717  62.1267357
  60.2269211  68.5953445  60.6232033  32.4688377   8.9107523  14.6301765
  32.7089195   9.7573242  14.2534704  31.5336094   8.8232155  14.4460087
  55.3438835  11.8704882  74.9663467  54.7360497  12.3418579  75.5360641
  54.9392624  11.0118809  74.8426285  80.9342728  16.2522545  42.0577660
  80.1178131  16.7500153  42.1008568  80.9569092  15.9060240  41.1656647
  54.0400925  41.9364510  45.1510811  53.9398193  42.5698318  45.8617210
  54.0019531  41.0833282  45.5834618   2.9193089  41.9442749  61.9019623
   2.3983040  42.2809944  61.1729851   3.0262096  41.0126877  61.7097511
  64.2770081  38.2482681  57.2524338  64.5596085  38.4079933  58.1529121
  63.3857498  38.5954819  57.2159576  27.2161350  48.4055481  66.4739761
  27.0440731  49.0309258  65.7700348  28.1620331  48.4547195  66.6121368
  48.5557594  65.4490967  26.4072304  49.5014610  65.3769379  26.5363541
  48.3658066  64.8479233  25.6869888  84.1380234  38.9349174  25.8166122
  83.9982910  39.0484314  26.7567291  84.8282776  38.2746201  25.7550716
  21.8842335  39.3427582  84.4380875  21.3374233  39.8259811  83.8186340
  22.7424603  39.2989922  84.0164719  81.9950790  32.9053497  89.0235672
  81.2921753  32.7146950  88.4024353  82.1652069  33.8408012  88.9130020
  41.3389664  41.1182671  83.5777130  40.7175865  41.6982002  84.0179367
  42.1980438  41.4169502  83.8760529  78.0648193  17.9617348  76.6395340
  77.7097321  18.6568718  76.0855255  78.3328247  18.4087105  77.4424133
  74.2677383  68.0391922  78.4471436  74.9337845  67.8834610  79.1167374
  74.0511627  67.1670914  78.1173477  32.1416092  17.2685566  70.7670746
  31.7600651  16.6382465  70.1560364  33.0859451  17.1289024  70.6966705
  24.5984631  68.3464966  63.9033546  24.8241138  68.6325226  63.0181999
  23.6436062  68.2798157  63.8973961   7.2282391  23.3313351  55.7562790
   7.6089211  22.8923168  56.5169220   6.2851133  23.3181763  55.9192924
  62.1925049  22.9422016  29.1840954  62.7589531  23.7130489  29.1500282
  61.3270607  23.2902393  29.3988113  59.7470474  40.6743622  42.5966682
  58.9760475  40.1106567  42.6601181  59.4422531  41.5314674  42.8944969
  49.3054657  15.7925968  31.1593533  50.2343941  15.8417692  31.3849735
  48.8650894  16.2910500  31.8477154  85.5132599  15.2623596  86.0016479
  85.6121674  15.9125566  86.6971283  84.6616898  14.8590441  86.1701736
  29.4695835  36.0460358  66.6201324  28.8594627  36.1690178  65.8929062
  29.6471691  36.9319191  66.9362106  61.4902039  26.6447392  66.0769424
  61.7932205  25.7861748  65.7815094  61.9292450  26.7776337  66.9170685
  63.8475075   1.0222319  83.4698334  63.8597641   1.4087577  84.3454361
  64.3651047   1.6241622  82.9350357  59.1200562  69.3207550  27.8590374
  58.6485710  70.1527176  27.9011364  59.3257637  69.2087326  26.9309387
  11.3052855  61.7865601  64.7818375  10.5168915  62.2867165  64.9928131
  11.9213934  62.4394722  64.4496460  73.8844986  12.6942854  26.1111336
  73.9187012  11.7900553  25.7989979  74.6746368  13.1006327  25.7550640
  58.0468292  61.4411621  34.5620041  58.8237534  61.9300461  34.2906914
  57.8834839  60.8321342  33.8418427  15.9599056  34.8568916  22.9622955
  16.1640148  34.3933792  22.1500587  15.6662397  35.7221107  22.6770115
  63.9097748  34.2379875  83.0953293  63.4116058  34.4929962  83.8718796
  64.7957916  34.0788727  83.4207382  63.4665833  36.4703636  35.1824760
  64.1919556  36.6685028  35.7747650  63.8167572  36.6435089  34.3086205
  57.7499619   7.5637970  46.4654922  58.2987251   7.7527456  47.2266693
  56.9357109   7.2231498  46.8358841  15.1213226  16.0385952  17.7634048
  14.3806353  15.5437088  18.1136932  15.7207270  16.1290760  18.5041885
   7.0717611  18.0566521  80.6378250   7.5080886  17.2496204  80.9108658
   7.5159602  18.3067913  79.8276672  13.7359056  43.6219139  69.7982712
  14.4138260  42.9603424  69.6605072  14.2180519  44.4440422  69.8869781
  43.5516548  39.5637817  47.1017609  42.9707031  40.3194847  47.1891670
  43.4403381  39.2797699  46.1944695  21.9750862   1.6736989  58.7329483
  22.8367081   1.2743723  58.6130447  21.4503975   0.9904278  59.1501694
  37.6336250  70.2393799  29.3295670  37.7300224  69.5094604  29.9412518
  37.6149292  71.0176849  29.8864555  71.1535950   5.0751877  27.0977020
  70.6170578   5.7273340  27.5483303  70.8931580   5.1440558  26.1791916
  52.9955330  27.1236000  42.1389008  53.6309166  26.6291504  41.6211739
  52.5258560  26.4577713  42.6412048  17.7905846   9.2043638  31.2217731
  17.3122177   8.5174208  30.7575493  18.0081959   9.8444748  30.5441780
  57.0371971  15.2507458  19.0210247  56.9241791  15.9846601  18.4170151
  56.8692703  14.4737167  18.4878674  56.2446442  67.6055756  58.4173889
  55.4739838  68.0701523  58.7437057  56.0371361  66.6796265  58.5430222
  74.6828842  62.6499023  65.3824692  75.0663528  61.8871574  64.9495621
  75.0389786  63.3998871  64.9060745  59.0728226  66.5500107  58.0141640
  58.4305115  67.1527176  58.3888779  58.5550995  65.8002243  57.7208824
  81.2665405   9.6196461  80.2967911  82.2097702   9.7609854  80.3778915
  81.0726013   8.9285259  80.9300079  49.4899864   2.5157301  44.0458450
  50.4201050   2.2987783  43.9822769  49.2002182   2.5964253  43.1371346
  34.2806358  63.6632195  50.7606392  34.4840393  64.5799637  50.5750809
  34.3414917  63.2275620  49.9104996  64.3594131  66.7282104  20.2473984
  63.6776352  66.0859222  20.0502338  63.9578514  67.3145752  20.8886070
  57.1014977  57.8514671   2.9138610  56.7928772  57.0437469   3.3244414
  56.4292374  58.4993896   3.1247985  47.1706924  63.1004066   7.3782167
  47.3925667  62.6859360   8.2120123  47.5560036  62.5269852   6.7156806
  22.6602173  11.1027737  81.3434753  23.5613308  11.1613922  81.6609497
  22.6383686  10.2934866  80.8327789  31.8094501   3.5026655  40.0220184
  31.9997063   2.8690035  39.3302765  32.1344681   3.0890555  40.8217201
  14.6250563   5.1096659  16.7708187  14.6105633   5.1117196  17.7279072
  13.9574947   5.7480884  16.5198002  53.6368446  55.9094620  74.0200424
  54.1309547  56.6084595  73.5916901  54.2875748  55.4428978  74.5445404
  45.6690941  53.5018349  33.9236069  45.9988327  53.5703697  34.8196030
  44.7242622  53.3861160  34.0242958  22.6005192  39.1874237  77.1432190
  22.4827309  39.4664459  76.2351913  22.9040890  39.9732056  77.5977783
  71.4095993  59.6056023   0.3957227  72.1045609  59.5914955   1.0538030
  71.2919083  58.6874733   0.1519522  60.2356644  51.9546280  38.2073860
  60.2718773  52.4311523  39.0367508  61.0803719  52.1305847  37.7929764
  22.2539368  16.3283405   8.5684929  22.5654869  17.0116119   9.1620483
  21.3670292  16.1339493   8.8715448   4.0727210  58.3286552  33.3951492
   4.4357023  58.3207207  32.5094795   3.3266125  57.7304688  33.3535805
  39.9325256  61.6188812  57.2404060  40.5065346  62.3649254  57.4140816
  40.4210510  61.0807076  56.6175537  83.7419434  65.6018524  64.6865387
  83.0715179  65.3607254  65.3257675  84.2191696  66.3213654  65.0998154
  52.6458397  49.1298599  48.3823814  52.7623062  49.5539818  49.2325516
  53.5281448  49.0857582  48.0138474  20.5597477  32.9853401  73.1104126
  20.5568638  32.9962463  72.1532745  21.4647732  32.7799416  73.3448715
  60.0574150  22.3986263  77.3498993  60.9808235  22.6465778  77.3953400
  59.7474327  22.4628544  78.2532349  79.7734222  54.3500023  10.5126629
  80.3259201  55.0938568  10.7527685  78.9086456  54.5728989  10.8572092
   7.3233523  13.4582024  28.6643696   7.5932446  12.6360884  29.0736618
   7.0808067  13.2129202  27.7714863  62.2636490   8.5105314  33.4423943
  61.4723053   8.2670450  33.9227257  62.9082375   7.8481107  33.6912613
  39.5286636  52.1013832  81.1116714  39.4360504  52.7351456  80.4003372
  39.6779556  51.2655029  80.6698074   6.7508726  64.8804855  10.8751917
   6.7785048  65.8089981  10.6442566   7.6537538  64.6647720  11.1086502
  51.6246223  19.9595871  59.2174835  52.0704918  20.5294933  58.5908737
  50.7880325  19.7533989  58.8005409   1.7768197  67.8884048  65.6472549
   2.3218946  68.6433411  65.4254532   0.8821536  68.2286377  65.6402740
  17.6726284  43.9686813  71.1310272  17.3239365  43.2639351  70.5851517
  17.7596874  44.7125854  70.5349960  53.8574371  32.1266136   5.6772475
  54.1034126  32.7184258   6.3882251  54.6714096  31.6795158   5.4453397
  29.2586365  42.6907043  28.5078373  28.5807266  42.7370224  29.1820221
  29.2084675  41.7931633  28.1789989  22.9440784  27.5991707  28.9778023
  22.1926842  28.1669445  28.8067055  23.6843109  28.2002354  29.0615120
  82.0750809  46.6606216  60.0535927  81.2012482  46.7483406  59.6728668
  82.6719360  46.8459969  59.3285828  85.1245422  13.1104784  16.5475540
  85.9733124  12.9628477  16.1303940  84.6726379  13.7185116  15.9624834
  68.7210770  28.5022545  58.3979797  67.9530029  28.5300083  58.9685211
  69.1174774  29.3688908  58.4876404  63.3940201  69.1886902  50.0635796
  64.1245499  69.5233841  49.5434456  62.6219139  69.6200256  49.6974754
  46.8537292  54.4507256  80.9662628  46.8138885  53.6448555  80.4512711
  46.6868820  55.1484413  80.3325577  65.2755203  18.8830967  54.6496658
  65.9260254  18.9798908  53.9541740  64.8090439  19.7188835  54.6593246
  22.6117268   1.4115071  37.8393898  21.6574421   1.4743346  37.8796921
  22.7823772   0.8294092  37.0989380   1.4307897  14.6771507  66.2313080
   0.9448355  15.4951534  66.3359604   0.7685146  14.0366516  65.9717255
  82.1011429  21.1438122  50.6454163  82.4319000  21.3574200  49.7729454
  81.7369385  20.2632847  50.5545349  52.3435707  34.0367126  10.5327873
  51.5703812  34.5342522  10.2665815  52.0985756  33.1216621  10.3953543
  70.7630539  36.9756966  42.1829529  70.8833618  37.7743835  41.6692810
  69.8603973  37.0267944  42.4973183  83.5679550  16.1933117  74.0610428
  82.7381973  15.7296934  73.9479370  84.1557312  15.5423231  74.4444122
  11.0509663  28.8781300  68.4781494  10.2727518  28.3501053  68.2998123
  11.0633507  29.5305767  67.7778702  44.1525879   7.7748384  19.2285328
  43.8467751   7.8037467  20.1351070  43.6521339   8.4597082  18.7849903
  42.4075966  29.8184662  56.2101479  42.1462135  28.8986740  56.1666336
  43.2556610  29.8476715  55.7672424  62.6645203  10.3572159  47.8486252
  62.1720695  11.1019239  47.5034676  62.4124680  10.3101139  48.7708397
  43.9699745   4.5585361  77.8341141  43.7308350   3.7408965  77.3976364
  44.8382072   4.3896642  78.2000122  56.2809944  31.6868935  78.0305328
  57.2291145  31.5891876  77.9424667  56.0586739  32.4073944  77.4408798
  18.5400429  16.8667374  73.0126877  19.4718456  17.0335331  73.1546478
  18.4710464  16.6734123  72.0777512  69.1765976  41.4015999  78.4031448
  69.8426895  40.7354927  78.2332687  68.4183426  40.9078941  78.7154465
  66.5652237  33.0735435   9.5720463  66.8005524  33.5811996  10.3486671
  67.0486450  32.2528419   9.6668320   3.2337084   1.5434017  49.0154648
   3.3827641   2.2682400  48.4083214   2.2814567   1.4531325  49.0515213
  40.7736664  47.7982903  27.4518604  41.6067696  47.3299446  27.5049953
  40.9607620  48.6622620  27.8189831   5.0407519  70.3430252   8.2250471
   4.9828677  71.2653656   8.4743805   4.3220019  69.9218979   8.6965189
  28.4591770  55.5045738  71.4383087  28.8154335  55.6907806  70.5696106
  27.5314713  55.7302895  71.3701477  62.5025253  59.8605194  39.5512085
  62.3563347  58.9148521  39.5750656  61.7991867  60.2252312  40.0883598
  69.8082657   4.9183016  40.0407219  69.4924393   5.4062448  40.8012428
  70.6603851   4.5770106  40.3120995  84.8694763  59.0337067  30.8684216
  84.5278549  58.7506599  31.7166023  85.0710068  59.9616547  30.9889584
  68.3907471  27.6069164  79.4243851  68.4395676  27.4198799  80.3618622
  67.4694519  27.4739494  79.2012863  36.5255280  57.0459518  21.6217022
  35.9419098  56.6266174  22.2539825  37.2959404  57.2922630  22.1335869
  15.6211452  55.7998734  39.4640999  15.2208357  56.0819054  40.2865601
  15.1318369  55.0154305  39.2161903  21.0457115  42.6632805  15.3442183
  20.8821335  43.5909042  15.5144892  21.7046261  42.4134216  15.9920092
  17.2560844  27.7679081  70.0375214  18.0780468  27.3824635  69.7341385
  17.2044830  28.6094151  69.5842743  40.5710182  66.4497604  46.8369446
  39.7366409  66.8531036  47.0764389  40.3653374  65.5214615  46.7264938
  70.3366623   6.4537926  74.5703430  70.4848633   5.9016213  73.8026352
  70.2337799   7.3363495  74.2143402  18.1613922  51.0213089  46.1354828
  18.2964096  51.3922768  45.2634811  18.3506985  51.7432365  46.7348289
  15.2226191  68.5448303  19.1901035  14.9799538  69.1820831  19.8618507
  16.0138397  68.9068604  18.7911892  43.9383507  42.6644936   4.3581748
  43.0771904  42.2591362   4.2565951  44.5566521  41.9396210   4.2659917
  20.6658955  33.6736031  37.6518135  21.1864281  33.5157509  36.8641815
  20.1226215  32.8905525  37.7407799  57.1171455   9.9943495  26.6818104
  56.5023384  10.3665199  27.3140564  57.1331329   9.0591545  26.8852482
  63.0113792  66.3960495  60.3785057  62.3290596  66.8014069  59.8433876
  62.6276703  66.3398514  61.2536278  55.1235619  33.0124435  41.2588997
  55.7740440  32.7575455  40.6045799  54.7522621  33.8280182  40.9224434
  65.7220764  35.5653648  43.0029488  65.8802643  36.4436417  42.6567650
  64.8574524  35.6204643  43.4099121  54.7771263  27.3529282  71.6465759
  54.6451645  28.2171631  72.0363388  55.7279968  27.2570992  71.5927887
  57.5622635  41.8230324  19.3122864  57.2738762  41.0250206  18.8692951
  57.7818756  41.5384827  20.1994362  24.8553104   5.5740633  23.3070488
  24.4498882   4.8989549  23.8511925  24.9105282   6.3405123  23.8777828
  72.0914307  61.6728020  29.8417835  71.7744980  60.9509811  29.2988644
  71.4090958  62.3407173  29.7743683   9.0249577  50.9843750  31.6192055
   8.8780870  51.1828690  30.6944027   9.9550734  50.7645874  31.6722202
  21.3502312   0.3089828   6.0228357  21.5046978   1.2467923   6.1363492
  21.8152847  -0.1003958   6.7524700  40.8712082  41.0891609  15.9033422
  41.6459198  41.0684357  15.3415375  40.1743546  40.7149277  15.3642902
  75.9245071  67.5037079  73.0873566  76.1969223  67.6815872  72.1871414
  76.6007843  66.9201584  73.4313736  68.6568527  67.0937424  71.9473419
  68.8894424  67.5994492  72.7260590  68.3371506  67.7465057  71.3245087
  44.7145233  54.8525734  66.2665176  45.4555588  55.1870079  65.7612991
  45.0972061  54.5779190  67.0997925  60.9303970  54.3460197  62.4662476
  61.5465622  53.7193680  62.8455658  61.1482048  55.1790924  62.8843193
   5.8876920  53.8002129   5.9464078   5.9280128  52.8536987   5.8096018
   5.7291818  53.9000015   6.8851032  28.5205231  13.8084116   0.4872399
  29.2536068  14.0220642  -0.0899706  28.4789925  14.5404005   1.1026255
  71.3483276   7.4501872  31.2007732  72.0696106   7.7335572  30.6389141
  71.7070847   7.4861135  32.0874748  79.3470078  50.0353508  59.9849968
  78.8339920  49.5345535  60.6192284  79.9064560  49.3840790  59.5617943
  36.3790627   5.7937989   9.1386118  35.7068214   5.6004782   9.7920256
  36.7784004   4.9451308   8.9475012  71.2493439  49.6942673  15.0222321
  72.0317535  49.8783798  15.5420046  70.7702866  49.0419579  15.5333405
  83.3823318   2.1871006  62.9988823  83.6314850   1.8624482  63.8641891
  83.9640198   1.7269412  62.3937988  79.4254074  10.4505806  12.1281805
  79.4966660   9.6178865  11.6615162  79.3463058  10.2028685  13.0493832
  76.1718063  52.5242157  27.0011101  76.7547684  52.4071770  26.2509880
  75.2966232  52.5813408  26.6176682  65.9710541   1.7206426  39.2409134
  66.2198944   1.6993411  40.1649551  65.9688644   0.8019315  38.9722176
  32.5876541  34.8335533  77.1425400  33.2522812  35.3291779  76.6641464
  32.8919525  33.9267845  77.1051025  68.7086182  31.0724106  13.3164663
  68.9481735  30.2374687  13.7186079  68.9907074  31.7327671  13.9493856
  22.0619030  69.9548187  53.8179092  21.3495483  69.7813492  53.2025299
  21.6247635  70.0876694  54.6590347   0.4436370  60.2829742  73.8873138
   0.0240131  60.2087135  74.7444153   0.7402679  61.1920128  73.8438187
  46.7384911  62.9057541  83.0615311  45.9109230  62.5404816  82.7485809
  46.9594498  63.5817070  82.4208298  12.4824476  25.8724365  64.7187042
  12.1283731  25.7934856  65.6044998  11.7100658  25.9142990  64.1548767
  85.2193298  47.3728714  85.7903976  84.7747726  46.7486115  85.2169037
  86.1360321  47.0976181  85.7791824  56.3859406  38.2539368  10.2308455
  55.4983940  37.9008904  10.2929497  56.8982391  37.5465240   9.8392477
  70.2075500  36.4455795  72.4495621  70.3286514  36.2371826  71.5232086
  71.0736084  36.3220825  72.8380508  70.2319946  60.1264801  72.3725586
  70.0035782  60.9631538  72.7775650  69.5889893  59.5085678  72.7203522
  11.8625031  57.8231430   4.1978045  11.1205645  57.6603050   3.6153591
  12.4489632  57.0808449   4.0519028  67.6912537  67.8354492  52.0807228
  67.1854935  68.2687912  52.7682190  68.4137573  68.4366837  51.8997955
  82.7099533  36.8381004  79.8517075  83.3962860  36.7819481  80.5165558
  81.9050369  36.9802971  80.3498154  50.4602013  15.9701567  52.1247330
  50.2452660  16.7687950  51.6428490  51.3368340  16.1299534  52.4743156
  64.7065506  41.3496933  56.0252724  65.0262375  42.1298103  55.5720062
  64.8384171  40.6379051  55.3990173   6.6579404  37.2891617  83.5515518
   7.3183541  37.3936005  82.8665924   6.9916253  36.5789299  84.0996933
   3.0736380   0.9123278  24.7548542   2.2120807   1.2411151  25.0114670
   3.0801852   0.0018043  25.0500431  45.6496429  42.5121651  41.0281029
  45.9587860  43.2475929  40.4991341  45.7044106  41.7565765  40.4430199
  32.2495193  20.0474949  85.5576630  32.7449303  20.3657837  84.8030167
  32.6056938  20.5345688  86.3007126  32.7586517  48.5348473  44.9604530
  32.2514915  48.0663567  45.6234283  32.3376694  49.3922691  44.8985023
  68.4502029  38.8004570  26.0140305  67.6386871  38.7517662  26.5193081
  68.3843765  39.6260490  25.5341377  32.5214195  66.7031631  69.6188202
  33.0145035  65.9123306  69.8371887  32.9813995  67.0715866  68.8645554
  78.6420746  64.4064865  88.1653824  78.2725220  63.8597641  88.8587494
  79.4690399  63.9805717  87.9396667  65.5303726  15.8118763  79.8960800
  66.2608795  15.7361021  80.5099640  65.4714890  16.7486324  79.7083282
  76.4496536  23.1769371  48.4284859  75.6830139  23.1834545  47.8553734
  77.1876450  23.3475342  47.8432579  31.4256268  41.6637001  19.2610188
  32.3667603  41.6358566  19.0886059  31.2194386  40.7947922  19.6055737
  52.6726151   3.2264514  47.0647430  52.5373535   3.9159012  46.4146690
  53.0256844   3.6831365  47.8282928  53.0035934  16.2364979  35.4811287
  53.1909027  17.0390091  35.9680786  53.7618484  15.6753206  35.6434860
  70.8081055  31.4057636  16.4853325  70.6656342  30.7641487  15.7894392
  71.0413055  30.8808289  17.2510300  43.6128883  54.0521698  77.3314972
  44.0846558  53.4996681  77.9547272  42.8059158  54.2919464  77.7870560
  44.6072807  42.4669380  53.0346680  44.4006119  42.2061501  52.1371651
  44.0108185  43.1931801  53.2164307   2.6911650  38.8217812   4.4027681
   3.3898396  38.1851044   4.2520003   1.9001099  38.2912788   4.4978004
  64.5638046  60.9289398  23.3302650  64.4806671  61.7495689  22.8445778
  64.9710159  61.1812859  24.1589565  43.8952713  52.6936607  61.6653748
  44.5985146  52.1832962  62.0668869  44.2078094  53.5978699  61.6963196
  68.8751984  26.3645573  26.8367271  69.5495224  25.8046532  26.4519806
  68.4763794  26.8081264  26.0881138  52.9814453  11.5309362  33.0102196
  52.1157494  11.6098547  32.6095085  52.8164062  11.5926609  33.9510612
   1.5676121   8.4000807  17.8501606   2.2296035   7.7260547  18.0040684
   1.8335259   9.1292896  18.4103165   2.1209886  29.0071106  42.3610497
   2.3273766  28.3203144  42.9950447   1.7022743  28.5448303  41.6349602
  60.1241341  46.3028717  49.6354256  59.7689018  46.6306763  50.4616127
  60.5071182  45.4546394  49.8591537  12.8862305  18.6062222  76.2827606
  12.7954931  19.3743343  76.8466721  12.0019922  18.2438698  76.2274933
  36.5163460  64.7417450  68.8239746  35.9130821  65.2072601  69.4032822
  36.0033035  64.5659485  68.0352325  22.5800362  45.7681313  47.5788689
  22.2224846  44.9449615  47.2460289  23.0605354  45.5187454  48.3682709
   6.0108776  63.9526901  56.4721985   6.2810626  63.1451569  56.0350227
   5.3847938  63.6669502  57.1374855  13.4585018  22.1048355  76.1612549
  12.8095131  22.6646023  75.7349854  13.3863440  22.3197880  77.0912094
  66.1774216  58.3654327  73.8491364  65.9833755  59.2273254  73.4807358
  66.9370270  58.0587921  73.3539505  18.1292591  39.7417984  45.0404854
  17.4900875  39.2381973  44.5364265  17.8505650  40.6519318  44.9394073
  52.9086571  50.0664597  37.6488113  53.8229942  50.3417168  37.5820465
  52.4681015  50.8007431  38.0765610   5.9155245  33.3169136  54.3357162
   5.5572166  33.0172157  55.1711960   6.0376282  32.5157776  53.8262978
  76.7558594  17.5880375  21.6550064  76.0457993  17.4150925  22.2731819
  77.1238174  18.4242191  21.9407310  14.4103079  64.7505646  39.0826759
  15.0862780  65.3060379  38.6944160  14.0424099  64.2680740  38.3423500
  68.4478836  30.4439907  33.7739830  68.0430069  30.4432697  34.6413383
  69.3698654  30.6403389  33.9401970  85.3593674  23.1171169  23.7272167
  84.5586472  22.5994129  23.6432266  85.3895187  23.6429920  22.9279804
  29.5778446  63.2500458  25.9129982  29.7321396  62.3156700  26.0521679
  28.8358765  63.4574966  26.4810467  60.2859268  60.6638641  70.9227142
  60.3862343  61.5362358  70.5417404  59.7475204  60.8031960  71.7017822
  31.6730251  67.5655212  82.3839874  30.7644958  67.3118362  82.5466385
  31.7930737  67.4361343  81.4432068  68.8398361  23.7176266  41.8551102
  68.0245285  24.2168007  41.8068047  69.0881500  23.5755253  40.9416656
  84.4241638  15.7050543  68.5014572  83.9687500  15.9121017  69.3175201
  84.7972794  14.8360415  68.6492233  56.0624084  28.1404381  13.0671110
  56.7782555  27.8510132  12.5014019  56.3885460  28.9428501  13.4745407
  21.9698696  35.8119316  10.4235477  21.2466736  35.2061806  10.2614222
  22.0136375  36.3497543   9.6329393  48.4306221  65.0626831  46.8963280
  48.4452477  65.3321609  45.9779587  47.5051765  65.0901489  47.1392899
  82.7021179  10.2527122   1.9373239  82.3970337  10.6929207   2.7306530
  81.9942932   9.6494331   1.7108887  70.0795288  59.2994690  67.1149521
  70.8918991  59.6515312  66.7511749  70.1734619  59.4092789  68.0611877
  35.2807045  44.0349197  17.7870140  35.1966019  44.5714874  16.9988174
  36.2193298  44.0303383  17.9746132  22.7573452  67.8618927  25.0813217
  22.2134495  67.8038330  24.2958031  22.1607113  68.1698837  25.7635250
   3.0312223  52.0727615   8.1506262   2.4510739  51.3114090   8.1515341
   2.4678156  52.8028908   7.8942785  45.0978241   4.8789763   2.0738504
  45.5907059   4.4572401   2.7777243  45.0995445   4.2380443   1.3629109
  22.3262920  50.8699188   8.0686932  22.8253212  50.4477501   7.3694267
  22.5036144  51.8041420   7.9590755  67.2841263  52.6065559  32.1488876
  67.2598114  53.5631447  32.1729507  68.1875992  52.3957901  31.9132004
   6.5461245  11.2931862  55.6586418   7.1708684  11.5955849  56.3177948
   5.9269295  10.7504025  56.1467171  80.9238434   2.5210702  52.4949112
  81.7661285   2.7330782  52.8971901  80.4514694   2.0345254  53.1704636
  64.6884613  48.6172523  17.4887085  64.8025742  48.7726974  18.4262829
  65.5022583  48.1939011  17.2153244  34.1817436   9.0808697  80.4827499
  33.6399040   8.7772207  79.7544403  33.8752708   9.9713058  80.6542969
  30.4008045  68.9980850  16.1543026  29.8218632  69.7585373  16.2070045
  31.2722893  69.3695679  16.0173912  86.0592041   9.2170019  71.7585983
  86.9132080   8.7895470  71.8233414  86.1269608   9.9763727  72.3373871
  25.2759914  50.7338715   0.7255679  26.2319374  50.7643127   0.6871942
  25.0481873  51.2928734   1.4684383  81.7922440  33.6620483  64.5168533
  81.8148956  32.7311630  64.7386093  82.0863724  33.6986694  63.6066971
  44.1306534  51.7610626  43.7684898  43.5837097  51.9077950  44.5402107
  43.5226707  51.8116417  43.0309029   5.5966182  67.5221252  20.8289185
   5.7602386  66.6287460  21.1311150   5.1660619  67.4130783  19.9810028
  36.8193779  66.5906677  58.0037422  35.9266281  66.9352646  58.0256958
  36.7185097  65.6821442  57.7197647  45.6059341  64.5717010  61.9398956
  45.0678024  65.2368851  62.3690529  45.6369629  64.8438721  61.0227280
  38.1608734  28.8600731  76.7219467  37.6120567  28.1192684  76.9793167
  37.5389862  29.5430241  76.4708176  13.6564970  69.9831009  65.2624054
  13.2159853  70.8032455  65.0398178  13.3072510  69.3466644  64.6385422
  56.3857956  54.9799805  52.4970665  56.7805099  55.4841919  51.7855911
  55.7002182  55.5510292  52.8436508  73.7260361  66.0887451   8.3796530
  74.2510223  65.3313217   8.1209507  72.8958206  65.9739151   7.9172759
  49.8664513  62.9013062  11.5249920  50.3558426  62.3943443  12.1728497
  49.6614380  63.7238121  11.9696102  36.8605614  64.0560150  64.7254105
  36.7699509  65.0085449  64.6988449  35.9880295  63.7388306  64.9584732
  40.0565987  48.2169914   7.9770899  40.9045486  48.3443756   7.5516725
  40.2657127  47.7770462   8.8010750  11.8689718  48.9892426  67.9371185
  11.4271555  49.4982986  68.6167450  11.2379522  48.9507561  67.2183990
  45.9833183  29.4149570  77.2337494  45.1263847  29.7895966  77.4375610
  46.6017494  29.9427452  77.7389374  64.3142242  23.9789104  85.9677811
  63.6430664  24.3781509  86.5213013  63.8294525  23.6205502  85.2242661
  28.5821037  49.1604347  54.1446419  28.7661304  49.2968826  53.2152596
  28.9906864  48.3192215  54.3487244  73.6521301  65.8836899  48.9233170
  73.1040192  65.1221542  49.1126976  73.1075516  66.4376068  48.3639870
  37.4732933  19.1904583   5.7195511  37.4063301  19.4293213   4.7950559
  36.7765999  19.6888027   6.1467576  38.9273643   2.0636013  80.0323944
  39.5900726   2.4241705  79.4432983  38.2441368   2.7333050  80.0628738
  51.4532242  61.4650421  13.3429565  50.8659630  60.7429276  13.5663509
  52.1753464  61.3881721  13.9665432  77.7647858  25.5612545  15.5285702
  77.8443298  25.9194717  16.4126434  76.9591980  25.0447712  15.5510035
  54.8223076  41.3212166  40.8314056  54.4428902  42.0317764  41.3484879
  54.5339928  40.5227737  41.2736740  29.0060158   0.9144859  35.3764153
  29.3300495   0.1500770  34.9000626  28.7489605   0.5719712  36.2324753
  22.4510708  71.1383820  82.4050446  22.8084049  71.2848282  81.5292053
  23.1932335  70.8144531  82.9154358  27.9996452  33.4287224  55.9779358
  28.8901176  33.5274582  55.6409760  28.0500278  32.6798973  56.5720329
   2.9108138  45.2895241  31.0991592   2.1342289  44.7678986  31.3017864
   3.3738761  44.7810211  30.4334030   2.5924463  47.6648598  40.1088676
   2.6197338  47.3903008  41.0254402   3.4486549  48.0632515  39.9525871
  78.8934479  32.4323807   7.9508524  78.9756470  31.7932339   7.2430606
  78.0911636  32.9131966   7.7474113  55.0607758  53.1174240   5.5547891
  54.2247581  52.7787476   5.2344704  55.0275650  52.9808350   6.5016112
  15.9733639   3.4433615   0.2831705  15.5871429   2.7309141  -0.2262252
  15.9066029   3.1513326   1.1922876  55.6769638  15.0763845  68.8369217
  56.0288849  15.9474688  69.0202103  56.0073738  14.5297060  69.5498047
   9.7506876  57.4781227  74.8455505   9.1537552  57.2382126  74.1367874
  10.5808210  57.0637817  74.6101151  77.5788879  48.1743736  61.8964767
  76.6877060  48.0879669  61.5580025  77.4687500  48.2511749  62.8442116
  59.7975082  28.0143814  44.2208176  59.5678368  27.1744022  43.8234291
  60.4726028  28.3747520  43.6458282  79.7760696  55.9324417   4.6755047
  80.1296616  56.7770996   4.9543505  80.3912048  55.6230164   4.0105987
  72.8084717  66.5671234  21.6618862  73.4768448  65.9132843  21.8668213
  73.2340317  67.1580811  21.0406818  31.0644264  29.4942589  85.4998322
  31.9077740  29.1037025  85.7288742  30.6324005  28.8320103  84.9603806
  20.8921013  64.1390991  36.3563728  21.4582253  64.4086227  35.6331253
  20.0051575  64.3260117  36.0487633  35.6810226  71.3613281  80.4371567
  36.0020676  71.5930786  81.3086243  36.4609032  71.3777847  79.8824081
  81.9085617  37.4555779  18.3586292  81.3343964  37.5534363  19.1182308
  82.7903824  37.4143944  18.7286663  14.9847097   9.7361774  71.8997421
  14.4198790   8.9889822  71.7025146  15.4650211   9.8944368  71.0870361
   4.5622778  31.1194992  74.8539658   5.5029945  31.2943611  74.8805618
   4.4947681  30.2205429  74.5321732  16.3106709  54.3844833   2.6801202
  16.4117565  55.3356628   2.6444831  16.0929127  54.1329727   1.7825936
  78.8208847  62.3310318  39.6560707  78.3713074  63.0909920  40.0256386
  78.3694687  62.1647453  38.8285370  62.6638641   9.8577051  88.3459702
  63.4459496   9.3693314  88.0889435  62.4424896   9.5165768  89.2124939
  24.3117714  41.1509361  46.6183662  24.5508881  41.6384964  45.8301163
  24.1766071  41.8245468  47.2848625  48.1598511  60.1264381  55.4281845
  47.7342911  60.9619751  55.6205711  48.8563614  60.3490295  54.8104782
  68.1268387  15.5003557  25.5098228  68.7286682  14.7560387  25.5149384
  68.0883026  15.7709055  24.5924625  75.5428085  35.6127930  60.3964195
  75.2522354  35.0438080  61.1091957  76.2335587  36.1496162  60.7848969
  29.3337536  49.4624252  13.6561604  28.6195755  49.2629585  13.0508556
  30.0554409  49.7400208  13.0919428  42.6079750  31.3303661  75.9117737
  42.6233978  30.7282257  75.1678543  41.6779938  31.4477940  76.1056213
  39.3222466  53.3941231  46.5756645  38.7997971  52.5922203  46.5605659
  39.1323433  53.7877083  47.4272881  81.3636093   6.5442653  86.6700592
  81.2795181   7.2896867  87.2646255  82.1656036   6.1034231  86.9505844
  42.4924126  34.8782196  80.7867355  43.3162079  35.1321335  80.3706589
  42.5928078  35.1463127  81.7001266  85.9833145  66.6120605  51.3290520
  85.7276917  65.7029572  51.4853249  85.1764908  67.0424881  51.0461960
  64.9176407   4.2265387  70.6263962  64.6902161   4.2884088  71.5541229
  65.4750443   3.4505961  70.5676651  43.5072327  63.4714127  59.3560143
  43.0563126  63.2681084  60.1755066  43.4399452  62.6680679  58.8399277
  44.7425003   5.8945904  51.4415703  45.5313759   6.4362516  51.4642372
  44.0297356   6.5156736  51.2917252  63.6179390  47.3516006  20.1595306
  62.9847794  47.2070045  19.4563713  63.1174049  47.7934799  20.8454151
  81.7903366  53.2516327  81.1300659  81.4152298  53.9563446  81.6581879
  81.4793091  52.4481812  81.5471497   9.3218107  44.2737541  11.6229773
  10.1397295  44.4771919  12.0766878   8.9644623  45.1275864  11.3790359
  81.1258850  15.3154535  15.1172190  80.3849792  14.7892456  15.4178858
  81.3582077  15.8555946  15.8725357   7.5178242  36.3095322   4.6130924
   8.4246311  36.2103424   4.3231025   7.4585853  35.7714081   5.4024901
  14.7870770  71.2370911  85.0728836  15.1575613  70.3953934  85.3384399
  14.8999300  71.2593231  84.1226196  84.2019653  15.5933647  82.5569305
  83.6177139  16.1504459  82.0425873  84.6721649  16.2015324  83.1272507
  11.7119484  49.6552277  71.2895355  10.9932747  49.6325226  70.6576920
  12.3002987  50.3339615  70.9587860  58.2563286  46.4566574  56.9909172
  57.7584801  47.2624016  56.8525162  59.1182785  46.6405525  56.6174812
  84.3463821  55.6414833  83.6494217  84.2655411  55.2323151  82.7878647
  84.8236923  54.9998474  84.1754608  60.7656021  21.0743313  66.9782333
  61.4929047  21.0908585  67.6003189  60.2100563  21.8086586  67.2396927
  57.0168495  39.6922035  61.5401688  56.9067268  38.8061523  61.1951790
  57.4586678  40.1694832  60.8378639  56.0625687  66.5395813  40.3026657
  55.1330109  66.3223114  40.2323303  56.5118065  65.6979294  40.2248955
   5.4232368  46.2937851  34.3366585   4.8217530  46.0615425  35.0441284
   5.4000883  47.2502403  34.3068962  37.4389114   6.7202072  67.4406281
  36.5807190   6.9918032  67.1150894  37.3740921   6.8107991  68.3913269
   9.5359678  52.2990150  22.7354603   9.6560774  51.8571014  21.8949146
   9.0705976  53.1064911  22.5171871  71.3130722  40.4729538  62.4127045
  70.4030762  40.6617622  62.6418381  71.2948761  40.3168983  61.4684868
  29.0967579   6.0250311  13.7328548  28.6971493   5.2793555  14.1806412
  29.8478642   5.6525865  13.2709503  82.7448578  10.8905640  26.1685696
  83.2746201  10.2475824  25.6972313  82.4936829  10.4464798  26.9784641
  28.4821701  42.1160011  57.8129234  27.7261505  42.3487091  58.3519173
  29.0215168  41.5663147  58.3814163  18.6518440  23.4869480  11.0539408
  17.7991619  23.1071472  11.2658777  19.1049385  23.5428238  11.8952579
  12.6787186  23.7161636  59.6373215  12.1319656  24.2898693  60.1741219
  12.1527920  23.5466576  58.8557205  53.3123016  61.2194405  15.2603683
  54.1441460  61.5273170  14.9005365  53.5625992  60.6075783  15.9526138
  60.9086952  25.0306625  73.6567307  61.6588783  24.8418465  73.0929871
  61.1876488  25.7793751  74.1838455  69.1927643  14.7901268  19.8274879
  68.6002579  15.1659079  19.1763668  70.0348129  15.2121172  19.6568813
  14.1901760  68.8193207  22.2297115  13.9395771  69.1684647  23.0850086
  15.0019369  68.3398666  22.3952274  18.5379047  12.3173027  80.6294632
  18.3141575  12.3427677  79.6991272  17.8583374  11.7709818  81.0243759
  33.6035156  27.4527168  66.3996811  33.8061333  26.5599213  66.6791306
  32.8389015  27.6989174  66.9202423  67.8821182  43.0547638  27.1359062
  68.2549591  43.9034767  27.3744469  67.2686462  43.2529945  26.4283829
  71.5890350  59.5217896  40.7654457  71.5351028  59.0820160  41.6139297
  70.9484100  60.2307587  40.8219872  64.5128555  58.6978416  26.1378155
  64.9582367  57.9510193  26.5379715  64.5651550  59.3894691  26.7974739
  42.3689423  57.1805725   2.1738079  42.5757103  56.2464943   2.1424942
  41.4233475  57.2214813   2.0309691  37.7045288  12.7408676   3.3391426
  37.2109451  12.5775900   2.5354345  38.5756683  12.9980545   3.0371501
  58.4006691  14.1861029  56.5869255  57.5672188  14.3192739  57.0384331
  58.6525230  15.0593424  56.2864990   1.0102829  45.3608055  48.5741920
   0.1236537  45.7201805  48.6053391   1.3069539  45.3759346  49.4841309
  54.5890884  41.1249237  74.7534103  54.7200432  40.4060631  74.1350861
  54.0287933  40.7549667  75.4356308  39.9291039  43.7108727  11.9101086
  40.8276596  43.3954048  12.0065794  39.7253342  44.1151161  12.7534933
  41.2054443  57.2205276  67.8219681  40.5887413  57.8252792  67.4094315
  41.7752151  56.9352150  67.1076889  35.1338768  22.6435452  63.3144035
  36.0861931  22.5472164  63.3073311  34.8218498  21.9008217  63.8313484
  65.3985672  41.4667473  19.6860275  64.6618500  41.7456741  19.1422634
  65.3869324  42.0671730  20.4314022   7.4212399  61.0221863  46.0264320
   7.9067302  61.4198875  45.3036842   6.5364008  60.9003983  45.6822510
  83.3097229  20.3515778  41.3310127  82.7981186  20.4603329  40.5293503
  84.0974274  20.8755493  41.1853828   9.6377668  53.7073593  36.6721115
   8.8634739  54.1835518  36.3722038   9.9628878  53.2618484  35.8897781
  53.0648842  38.4694443  65.9676590  53.2685661  37.6707611  65.4809875
  53.5164604  39.1639061  65.4880447  46.0748634  14.0747643  88.1240616
  46.0980072  14.7157230  87.4135208  45.2148094  14.1945734  88.5267792
  14.2968121   1.2840546  77.2184677  14.1921597   2.1943016  77.4954681
  15.1935978   1.2360888  76.8872452  22.5483017  54.7404976  57.5402985
  22.0786686  54.9777870  58.3399048  22.5531979  53.7833099  57.5405121
  17.8579998  12.8180304   0.7198732  16.9329567  12.6750708   0.5196494
  17.8797798  13.6697483   1.1561463  56.7404900  38.1556473  65.7546463
  56.2591515  37.3788872  66.0395889  56.9069061  38.6435356  66.5611877
  64.8878326  48.8163185   6.8540320  65.4714279  48.1921806   6.4226313
  65.3330460  49.0338669   7.6729913   0.3879272  32.4821358  77.8731613
   0.8709489  32.6660728  77.0674973  -0.3733078  31.9777584  77.5861816
  46.8638573  43.7168236  51.0285492  47.4070663  44.1286697  50.3565826
  47.4696922  43.5320168  51.7462120   0.3960952   1.5125051  36.3243294
   0.6862461   2.3387735  36.7107544  -0.2245482   1.7715322  35.6431999
   1.6437052  30.0054073   8.3508816   0.7611348  30.0940514   7.9910989
   1.5291910  30.1118202   9.2952299  61.5682182  16.5441360  33.5161934
  62.0660439  16.4715233  34.3305244  61.1423264  17.3995953  33.5713005
  53.3845673  65.9674530  70.4295654  53.2183762  65.1081543  70.8171387
  54.2437553  66.2203979  70.7672729  22.5333805  52.2121353  45.8285675
  22.2310600  53.0099831  45.3946571  21.9160156  52.0823746  46.5484657
  71.8267899  27.0699692  19.9407234  72.5985031  26.6298809  20.2971096
  71.3937531  27.4504032  20.7049103   5.9838867  35.8080025  65.3302994
   6.6034203  36.0077515  64.6285095   6.1580019  36.4702187  65.9991684
  13.6544313  24.0546036  22.9999485  13.9808083  24.8876667  23.3401184
  12.7776728  23.9699173  23.3745899   1.0019180   6.1122708  56.1319580
   0.8921706   5.3599310  56.7134857   1.3709916   6.7956295  56.6914558
  38.3135719  20.1310062  71.5338745  37.6934929  19.4230938  71.3589630
  38.5235710  20.4844933  70.6694794  15.4388189  44.9203949  33.9476776
  14.6921616  45.3571777  34.3574982  15.3121357  45.0595436  33.0091553
  45.5462303  24.6145535  85.4722977  46.1848946  24.3112526  86.1175461
  45.0945549  23.8191700  85.1901855  41.2342758  64.9621582  33.3550568
  40.3145828  65.2263641  33.3306274  41.6715240  65.5604706  32.7491913
  28.9562283   8.2275591   2.8106828  29.1529198   8.9171858   2.1766791
  28.7532806   7.4606185   2.2751026  57.7111740  27.8453846   5.8166509
  56.8909225  27.4819450   5.4829912  57.4415321  28.4502525   6.5077815
  48.9131355  10.5942049  86.2475739  48.1254578  10.8866158  86.7061462
  48.5887260  10.2230368  85.4270782  81.1329117  38.6134262  41.1693764
  80.5677795  39.2107582  40.6794281  81.9384613  38.5692139  40.6542435
  51.4808807  71.6388626   7.8486333  51.3860092  70.7795105   8.2594204
  51.9145164  72.1750870   8.5124493  79.7934036  57.0089111   1.8203975
  80.4866409  57.1642036   2.4619079  79.5306244  56.1002274   1.9669493
  71.8844299  70.8509750  71.4926376  72.6499557  71.2102203  71.9411316
  71.1405563  71.3080368  71.8850479  21.5407486  59.4819489   5.7861748
  21.8766708  59.1395912   4.9578147  22.2918968  59.9197311   6.1866169
  18.3954334  69.3729935   4.2488065  17.6091118  69.7492981   3.8534231
  19.1206055  69.8127975   3.8050437  71.5487595   6.3704658  77.1345978
  71.2009277   6.6394448  76.2843628  71.8481445   7.1845913  77.5393143
  35.0164986  68.5079956  27.6547127  35.4266396  67.6524353  27.5281277
  35.6666031  69.0157700  28.1402683  71.2404404  50.1101990  32.7139359
  70.8730927  49.2264290  32.7292252  71.9992828  50.0441628  32.1342583
  81.2652054  44.7914810  81.0289001  80.4902420  45.2291412  81.3812103
  81.2886276  45.0506363  80.1077499  76.7406616  33.2008476  15.7328825
  77.0867157  33.7653999  16.4240837  77.5168610  32.8869591  15.2689657
  75.4184036  57.6586266  63.3681564  74.6362610  57.5982971  63.9166451
  75.7971420  56.7799110  63.3936081  82.6617050  68.2999496  39.9288330
  82.1295624  67.5356140  40.1498451  83.4713516  67.9334259  39.5733566
  63.8123474  12.2993946  18.0456066  63.9577560  12.5094147  18.9680939
  64.3105316  11.4948196  17.9017315  27.7694759   1.7307070   0.1013777
  26.9166889   2.1237485  -0.0843743  28.1695557   2.3183773   0.7423242
  35.2279930  60.1551361  60.9619026  35.7874680  60.5672569  61.6202202
  35.0332184  59.2895203  61.3210754  57.0966835  63.0499115  21.2959480
  57.2311707  62.3338509  20.6751404  56.1803818  62.9685936  21.5605412
  53.8932648  36.6350212  59.7721939  53.5028305  37.4925995  59.9405746
  54.7353020  36.8316536  59.3616524  52.1530304  42.6652260  26.0433960
  51.2976685  43.0947227  26.0322666  52.7133064  43.2335625  25.5148945
   3.0390973  67.3359451  71.5485153   2.1425176  67.0558014  71.3644028
   3.5741148  66.8589706  70.9141006  50.7502327  48.2622795  62.9265900
  50.8721008  48.8774223  63.6497650  50.0164261  47.7123299  63.2010269
  80.9446869  68.5504227  57.6694107  80.6273880  68.5672760  58.5723305
  80.6843719  69.3977737  57.3082085   1.8623145  60.2512436   7.5822186
   1.6690478  59.5643272   6.9442315   1.0109791  60.6424103   7.7782979
  10.1641111  39.2122803  73.1100388  10.7685452  39.6513939  72.5116501
   9.7189379  39.9258156  73.5671082  25.3859406  44.4698715  76.1314926
  24.5660915  44.9630470  76.1022263  25.7644596  44.5825119  75.2595596
  44.2619171  50.7947273  87.9976883  44.5729599  50.0660400  88.5348129
  43.3147430  50.6667023  87.9456787  31.8002987  48.9450073   8.2309427
  31.9397335  48.6008186   9.1131697  30.9753551  48.5507469   7.9476423
  81.7886047  25.1053715  14.0507593  82.4406586  25.2443295  13.3639135
  82.1409988  24.3849869  14.5733442  34.7215805   3.9384573  25.0765572
  34.4427452   3.3208649  25.7526226  34.7616386   3.4152458  24.2760086
  35.8041496  63.9216728  73.5473022  34.9756279  63.6515350  73.9432983
  36.3891640  63.1764870  73.6840134  80.4101944  16.9353867  31.8384533
  79.6289139  17.2957344  31.4189377  81.0759583  16.9419937  31.1507435
  53.1207962  50.4009209   7.6881709  53.4089966  49.5956573   8.1179676
  52.3336029  50.6596489   8.1673603   4.6147881  -0.2060492  40.8076324
   5.0631576   0.0259440  39.9943810   4.2310033   0.6161444  41.1124916
   5.3134265  37.7262383  80.2917328   5.7175007  37.3979683  79.4884872
   5.2357559  36.9549637  80.8532791  81.0759506  27.6614513  21.5870609
  80.8903961  26.8146210  21.9928665  81.2743835  28.2411175  22.3224831
  20.0749626  15.4833937  15.8433485  19.5309658  15.8779545  16.5249786
  19.6756821  14.6282921  15.6833220   5.7234721  50.9879227  17.2663994
   5.6693802  51.2278709  16.3413429   5.6193027  51.8159828  17.7351151
  34.3470688  14.1670227  77.7211990  34.3355370  13.2256737  77.8942871
  34.3290482  14.2352600  76.7666016  82.6024246  56.4746323  48.4762764
  82.8546600  56.7439995  49.3594818  81.9560852  57.1255341  48.2027740
  20.4417286  38.0674362   1.6298131  20.2292118  37.8298607   2.5323801
  21.3976917  38.1130180   1.6128904   3.5428283  33.9644890   1.0963422
   3.2484298  33.3693504   1.7858124   3.6214256  33.4108315   0.3194775
  12.7956915  45.2207756  81.8862457  12.9149799  44.5269547  81.2377014
  12.7245522  46.0228081  81.3686371  28.1566200  41.6987801  47.4487648
  28.6826534  41.8675346  48.2304573  27.6018238  40.9566841  47.6890259
  85.3288956  17.4334049  43.6512146  85.5744858  18.0590668  42.9696960
  84.5116959  17.7789745  44.0103798  43.6254539   4.6611485  69.7863464
  42.7978783   4.5336132  69.3225708  43.5423775   4.1264958  70.5759506
  21.0671177  59.2463150  57.4263191  21.4345970  58.5504341  56.8813934
  20.1905746  59.3916931  57.0702744  56.7471657   8.7323780  81.2360001
  57.3585052   8.6430206  80.5048981  56.4245415   7.8441615  81.3883667
  77.7187881  21.9309597  68.4508820  76.8550568  21.8371964  68.0491257
  78.2905197  22.1962147  67.7304611  64.0745010   7.3062267  77.3920746
  64.7116165   7.9025493  77.7854156  64.1132812   7.4983463  76.4551544
  23.8112831  17.0000496  13.5436783  23.3959332  16.4660778  14.2208729
  24.3514156  16.3830528  13.0499144  52.8047447  71.1960526  60.3271484
  52.9949837  70.8698120  61.2066994  51.9362755  71.5916901  60.4010811
  14.9087725   3.4306316  63.1738625  14.5900784   2.6243515  63.5795441
  14.3768492   4.1228004  63.5665359   5.7595606   5.2298260  20.3406353
   5.7436624   5.6780095  21.1862774   6.6901474   5.1293511  20.1402721
  31.7530460  37.2919388  59.2521477  31.3349056  36.9434433  60.0395126
  32.4846649  36.6973953  59.0863609  57.9453697  15.4716854   5.0097284
  57.9209747  14.6966953   4.4484553  58.8369179  15.4873943   5.3577566
  47.8617249  52.0462456   8.3506441  47.5190811  52.6816406   8.9792156
  48.0276527  51.2601509   8.8709869  47.3421173  51.3505936  79.9026489
  47.7575302  51.6554375  79.0959625  48.0413704  51.3742523  80.5558777
  61.8448296  62.1724472  10.0054836  62.1327286  62.3970337  10.8903046
  61.0392494  61.6720772  10.1355000  43.3590240  17.1128979  76.3444519
  42.4467735  16.8253250  76.3809204  43.7224503  16.6606922  75.5830917
  52.0271568  25.0451870  86.6607590  51.1797104  25.4297829  86.8847046
  51.8201103  24.1509647  86.3892212  41.8982849  39.5907478  29.2048950
  42.1572914  39.7879333  30.1050415  42.7160416  39.6208611  28.7083054
  13.3148985  45.7432251  76.5467377  13.0991535  44.8477402  76.2863693
  13.5649204  45.6711769  77.4678955  48.7628479   4.5883546  84.5329208
  48.6520462   4.3745966  85.4593430  47.8993149   4.8910604  84.2520142
  58.2275238  33.7091408  57.5057182  57.9177132  34.0010338  58.3630676
  59.1403656  33.4613571  57.6525383  17.5760498  56.3035469  55.1256676
  17.4245682  57.1522217  54.7096977  16.7136650  56.0346375  55.4422264
  86.2650604  62.2830200  84.0714264  85.5407867  61.9940300  84.6265411
  85.8600922  62.8766594  83.4391098  19.4261017  24.1305408  68.2377777
  18.8971024  24.4188957  67.4939728  19.0676289  23.2735748  68.4687271
  69.1126175  69.0139923  45.4395905  68.2649918  69.4025650  45.6558571
  69.1395035  68.2014236  45.9447975  58.2841301  34.3601990  13.9418879
  58.1680336  35.2884254  14.1447382  57.6088943  33.9165802  14.4552050
  85.1489868  51.8471565  36.5891380  85.4951019  52.7275276  36.7353706
  84.6161652  51.6675491  37.3637810  73.2357864  46.1179962  27.7863140
  73.8295059  45.3726768  27.8770275  73.7182846  46.7442741  27.2466869
  77.7015381   8.4893179  20.2996769  78.5442810   8.0471296  20.1973267
  77.1127625   7.8097081  20.6278744  75.3287048  28.2654476  45.1344833
  74.8196640  28.9470081  45.5733261  76.1698303  28.2631073  45.5913620
   5.9560490  46.3929176  45.3514557   5.2120867  46.0907555  45.8724632
   6.7188463  45.9919319  45.7680893  32.8259926   6.2085280  10.7481575
  33.2422752   6.9464383  11.1936092  32.2854424   5.7960749  11.4218931
  79.7373657  37.7764549  72.4230957  79.9490051  37.6357956  73.3459549
  78.8059692  37.9971886  72.4219131   9.5146542   4.3457403  40.3493881
   8.6289368   4.6538582  40.5412254   9.3959351   3.4416380  40.0582962
  50.7363701  39.9747429  24.9743290  50.6555939  39.3616867  25.7049942
  50.4660912  40.8178673  25.3380909  77.3586197  58.0514145  44.4620705
  76.6432648  57.7097321  44.9984970  77.3290253  57.5275116  43.6615181
  44.8498497  54.8451347  85.0432205  44.7699928  53.9039650  85.1983185
  44.9826813  54.9217529  84.0983887  43.3600922  11.3242521  65.3307953
  42.7944565  10.9428177  64.6593857  43.9611588  10.6178112  65.5672226
   2.5139670  62.3815422  71.8069534   3.0243862  61.5720100  71.8259201
   2.8610828  62.8660545  71.0579605  28.1530209  40.2133522  77.1470184
  27.9249630  41.1265526  76.9729919  27.7399940  40.0195122  77.9884872
  18.5094128  49.0769272  50.6935005  18.5204220  48.3750687  50.0427322
  18.5449905  48.6233025  51.5356369  25.7662487   5.6204739   1.9850702
  25.5011902   6.5154214   2.1973071  26.0448418   5.6637435   1.0703321
  68.8877869  71.6171570  87.7640305  69.3498917  71.6572876  86.9267197
  69.5592575  71.3605728  88.3961105  53.7731209  11.8081779  46.0687523
  54.2752266  12.5591383  45.7522354  54.4058495  11.2890558  46.5651398
  24.5328655  21.5948734   7.6801023  24.5847530  22.5354958   7.8497138
  24.0956497  21.5283318   6.8311939  52.9953728  70.6861343  45.4025345
  53.8643303  70.2901459  45.4683723  52.4442177  69.9946899  45.0359688
  55.1650429   6.6202035  18.1251125  55.0460052   7.4101696  18.6523838
  54.8267059   5.9126954  18.6739216  84.0722809  12.0061731  75.2482300
  83.5317459  11.2604933  74.9874344  83.5891113  12.7722120  74.9384384
  76.7453156  22.1761932  58.8376617  77.1830978  22.4742146  59.6350060
  76.3771286  21.3239594  59.0708237   0.2743239  31.2582493  71.1142120
   0.7999533  30.9419804  71.8490067   0.8894354  31.3049946  70.3823090
   7.6952291  53.4979935  57.6660995   7.9829326  52.7993813  57.0783920
   8.2322168  53.3872452  58.4507103  61.7733994  54.5970726  24.4946804
  61.6057663  55.5390244  24.4653854  61.8078384  54.3312340  23.5757809
  66.2944336   7.8909502  60.6221809  66.9344101   8.4772053  60.2184906
  65.4554596   8.1563501  60.2454720  55.0938568   5.3723454  36.2385216
  54.3051987   5.8095741  36.5595856  55.4921799   6.0052361  35.6410103
  62.5498734  33.7669411  88.1440659  63.3602066  33.7890053  88.6530914
  62.2138519  34.6620560  88.1897964  73.4740753  12.9487391  71.0572968
  74.3485260  13.1077881  71.4126358  72.9183426  13.5973406  71.4894028
  65.0543747  27.6149139   1.0257944  65.8799591  28.0992641   1.0185050
  64.8446426  27.5130463   1.9541616  78.7874527  37.8070793  42.0749893
  79.5789871  37.9579735  41.5583305  78.6600952  38.6215401  42.5614738
  62.0572357  16.3213024  87.5488434  62.8981972  16.7383060  87.7362442
  61.9052773  16.4954109  86.6199570  79.8830719  18.8862457  18.3427162
  79.8656006  19.0950699  19.2766953  78.9753723  18.6708565  18.1284275
  43.6759377  39.9775810  62.1305656  42.8402328  39.5339546  61.9855499
  44.3152809  39.4444160  61.6581192  68.3224716  58.7250977  78.2881546
  68.6378326  57.9192886  77.8789520  67.5308609  58.9484291  77.7985687
  54.1230316  43.9212761  56.3855247  53.2604599  43.6918144  56.0397720
  54.2960243  43.2601700  57.0557823  18.6226616  31.7425137  86.2407990
  19.3200779  31.5954285  85.6018906  19.0195007  31.5221729  87.0835342
  19.8268108   4.5547476  81.6361313  20.6929855   4.3522844  81.9896622
  19.3996754   5.0633421  82.3254166   1.2083606  62.9118881  74.4275360
   1.6332406  63.4967690  75.0549316   1.8178774  62.8673897  73.6908264
  17.9029770  65.6762466  78.0619278  17.8066750  66.2711487  78.8056030
  18.5817814  66.0783234  77.5199051  36.7349815  67.8461990   8.3186083
  36.1956367  67.4471817   7.6358800  36.1444206  68.4513168   8.7672825
  64.7660294  44.6061821  34.0498199  64.7525558  45.3754768  34.6192360
  65.3768921  44.8369141  33.3499336  12.5118284  46.2190170  68.3585587
  12.3422108  47.1371841  68.1477814  11.7470198  45.9441299  68.8642654
   7.1854200  54.6519394  26.8527603   6.3802099  54.3562737  27.2775555
   6.8994751  54.9826660  26.0012398  70.4794388   0.3244201  57.3837814
  71.1831665   0.5008982  58.0081596  69.7012329   0.2035619  57.9278641
  83.0703964  70.1137924  60.4506874  82.6453018  69.7142868  61.2095833
  82.3738403  70.1901550  59.7986107  70.0448456   3.5992444  72.6030045
  70.9494858   3.6297290  72.2916794  69.5162125   3.6188698  71.8052597
  31.6195641   8.9022846  62.6615372  30.9067211   8.6319342  62.0827484
  31.1868954   9.1284924  63.4848595  63.2122269  33.4635849  46.6760254
  64.0079498  33.3819885  46.1502876  63.5199051  33.4362602  47.5820160
  70.8377228   7.7900620  41.4601555  69.9423294   8.0621748  41.2589951
  70.7342529   7.0395989  42.0452461  16.3342133  39.5247383  71.8355789
  17.1461296  39.8712769  72.2056274  15.7335510  39.4763298  72.5792847
  80.0287704  46.6315269  31.7404861  79.1028748  46.6398888  31.4978466
  80.3611679  47.4795341  31.4461689  31.6906242  36.0065193  56.3413963
  31.9281101  36.3952522  57.1832504  32.4992485  36.0307770  55.8297577
  54.1437912  31.4730034  57.5767136  55.0303955  31.2149105  57.8288078
  54.0102768  31.0663509  56.7205353  65.7280121  27.7574005  37.7179184
  65.9221039  28.6910267  37.6348572  66.0116577  27.3788376  36.8857727
  81.6929092  14.8367939  39.6631927  81.9645996  15.0732365  38.7763405
  82.4014130  14.2829647  39.9911003  28.3754177  46.7986221  27.3644466
  29.2334347  46.3745308  27.3506985  28.5605984  47.7197952  27.1817493
   6.2762175   9.5878611  12.9312248   6.2654772  10.4267359  13.3920994
   6.5437512   9.8081903  12.0389738  60.0499306  38.9543190  74.1685486
  60.4387512  39.1927643  73.3270111  59.1277771  39.1964684  74.0835266
  45.1622696  19.5788078  15.3539820  44.9342499  18.9741096  14.6478806
  46.1179085  19.6272430  15.3285866  15.7084942  63.1469917  45.9461250
  15.1062336  63.2244797  45.2061844  16.1420059  62.3037491  45.8148041
  56.6018181  45.0480423  44.2076378  56.8274956  45.9266243  43.9020271
  56.2212181  45.1865463  45.0749283  63.2839775  61.2545509   7.6111407
  62.7868233  61.3212280   8.4263840  63.0715904  62.0571594   7.1347575
   7.2504745  33.9238510   6.4425640   6.5091128  34.3571854   6.8654537
   7.9713397  34.0208282   7.0648026  34.9292641  67.2404022  43.7728195
  34.9614105  67.3821793  42.8267212  34.7428703  68.1051788  44.1384010
  13.2800512  22.6950588   4.4909644  14.2239113  22.5486164   4.5535321
  13.0508375  22.4058914   3.6077461  57.0000496  23.9811058   9.3583755
  57.0028915  23.7186852   8.4378548  57.8908806  23.8041897   9.6606178
  10.7993727  53.6051102  44.5840721  10.5002384  52.9309349  45.1941872
  11.5935078  53.9568787  44.9863663  76.9865799  53.5520782  62.8578186
  76.2995834  53.6871490  62.2051125  76.6528473  53.9765625  63.6481743
  48.1708145   3.5220480  37.4973717  48.5403252   4.3745537  37.2673149
  48.9093018   2.9162462  37.4351807  54.7443199   4.7969761  57.1497307
  55.0350609   5.6439338  56.8115501  54.9779015   4.8166676  58.0777855
  79.5426941  28.2620735  12.0402327  79.5155640  27.4461651  12.5400209
  78.6728363  28.3309631  11.6467533   6.0475330  38.0694046  46.3435287
   6.0154963  37.1532974  46.0679398   5.1391029  38.3667297  46.2926712
  13.1839962  67.5926437  36.7096596  13.2047329  67.1742020  37.5703011
  12.2556419  67.6176147  36.4777832  51.5096817  32.5312233  45.8622589
  51.5130920  31.7983513  45.2465363  50.6079903  32.5721703  46.1808739
  42.0557518  39.0477905   1.8245980  42.6223793  38.8468513   1.0797576
  41.7814674  38.1921501   2.1545670  83.7134171  39.1397591  73.0390854
  83.2695084  39.1426849  72.1910553  84.6214447  39.3634071  72.8348846
  37.6311340  13.4814472  70.5895538  37.0470123  13.8633099  69.9344101
  38.3441544  13.0969486  70.0796585  79.3264465  58.3192635  85.1671524
  78.8838043  59.0759201  84.7827530  79.1903839  58.4155312  86.1097336
  47.2673302   3.1559038  30.3251896  46.6675568   3.3081477  29.5948982
  46.8233032   3.5362585  31.0830822  34.5575943  29.3881226  61.7694244
  34.6489563  29.3203449  60.8190079  34.3037682  28.5085430  62.0489693
   0.9267311  71.2702103  28.5931644   0.6876241  70.3548126  28.7384796
   0.0914486  71.7376251  28.5854912  75.3157349  39.9601784  53.8297920
  75.8774719  39.2272720  54.0818520  75.9118042  40.7058907  53.7601433
   6.4656978  43.3309593  69.9835587   6.5915699  44.2378807  70.2626266
   6.7417388  42.8082047  70.7363968  64.3937759  66.5924225   7.0030184
  63.9889603  67.4267578   6.7658687  64.1625519  66.0017014   6.2862115
  55.0212021  17.3896255   5.8727164  54.2457085  16.8411770   5.9912400
  55.2188492  17.3262367   4.9382920  15.3157158  33.0487556   2.6807108
  14.9035473  32.4619713   3.3147726  15.1431580  33.9270897   3.0198061
  58.1597290  37.8115730  22.0275440  58.9602509  37.2986145  21.9167709
  57.7546844  37.4556122  22.8184090  39.2697411  22.7238827  85.1353607
  38.7241249  23.4909401  84.9616928  39.7742310  22.9600849  85.9137802
  23.9164505  69.3702011  68.6544189  23.3394566  69.1691437  69.3912277
  24.6411533  69.8591766  69.0442047  43.4213524  22.3022118  68.2024155
  43.8559265  21.5657787  68.6325912  44.1198425  22.9400520  68.0557785
  77.0546570  13.5218782   4.7462296  76.9507675  14.1992130   5.4145532
  76.3793259  12.8758087   4.9529886  49.5446777  15.7034950  11.3671846
  49.2406807  15.8357916  12.2651348  50.2577744  16.3330593  11.2605305
  71.5980225  47.0960159  66.6838837  72.3354416  46.5126076  66.5047836
  71.2702255  46.8126221  67.5373917  23.8932991  30.5571461  11.1829176
  23.1012650  30.5566711  10.6454105  23.7492294  29.8595791  11.8223515
   6.8048239  54.8920708  82.0939865   6.9737945  53.9525490  82.0234299
   5.8599606  54.9757919  81.9657059   7.1194515  70.1181259  85.0208359
   6.9325495  70.1072311  84.0821228   6.3239689  70.4711456  85.4193497
  76.1183777  70.9451218  15.7827749  75.6021042  70.3034668  15.2949572
  76.1851120  71.6966019  15.1936598  28.2545395   2.3487358  71.0626907
  28.3181305   1.7476381  70.3204880  27.8976326   3.1542842  70.6886063
  56.6241150  34.5951042  47.6453247  57.0464592  34.9331322  46.8556442
  55.7046204  34.4924316  47.3999252  51.8613777   8.8348618  81.4630585
  51.9122314   9.4305277  82.2106018  51.0723419   8.3170071  81.6226883
  57.2079659  16.4491138  48.2375717  56.3890610  15.9535227  48.2334709
  57.1025085  17.0917740  47.5360718  32.2664604  49.7443695  57.3446884
  33.1458855  49.4486847  57.5800972  31.9306488  49.0600357  56.7657661
   7.3316569  33.6379242  51.5960579   7.9716210  34.2941856  51.8717384
   7.1980085  33.8104248  50.6640625  28.1763420   1.4877471  31.4225731
  28.5120773   0.6251294  31.1788425  27.6323433   1.7514788  30.6804504
  84.4313736  52.7173729  50.3634987  83.5273972  52.4569321  50.5402412
  84.8188553  52.8407745  51.2300186  57.2089806  58.9110527  33.4950676
  56.8505859  58.4714775  34.2661438  58.0028305  58.4187546  33.2860718
  39.0717316  32.1954041   2.2479546  39.2931442  31.6250343   2.9840837
  38.2308426  32.5833855   2.4900522  67.3190689  41.5904312   0.9681073
  68.1983719  41.2853165   0.7446131  67.3649216  42.5420113   0.8752215
  42.3609047  58.3243141  47.2850189  41.6490135  58.6314125  47.8463898
  42.3996162  58.9652252  46.5751114  11.6653442   3.4315100   5.5346422
  11.9379969   3.0242534   4.7124290  12.4607124   3.4525886   6.0667858
  31.4621029  14.0218782  81.7538528  31.5040226  14.6960402  81.0756302
  30.5258617  13.8716850  81.8847198  85.0292130  43.6443939  50.8222351
  85.4764938  44.4866447  50.7398338  85.6510010  43.0075417  50.4700470
  52.9333267  28.5307636   7.2834706  53.6976967  28.8906841   7.7333865
  52.4316292  29.2992420   7.0114903  24.1194477  70.6568146  72.5404892
  24.5093384  70.5509720  71.6727295  24.8654537  70.6537933  73.1402435
  64.8309937  68.4323502  80.8282852  65.2866440  67.6226959  81.0586853
  63.9174194  68.1695175  80.7163467  48.7046318   5.4662023   3.5287695
  48.4686584   6.3926864   3.5754220  49.5818787   5.4230204   3.9093015
  64.1141434  41.5469780  62.3276634  64.5875320  41.4487877  61.5015335
  63.8735085  42.4729652  62.3572235   1.3953956  31.3970890  10.9689770
   2.3105826  31.3837776  11.2491331   1.1620851  32.3253403  10.9569035
  71.4664688  29.9173965  11.7172518  71.4303665  29.6525135  12.6363630
  72.3416672  30.2897549  11.6095037  64.3695221  42.8898506  86.0649490
  64.0848618  41.9906120  86.2279358  63.5567055  43.3789253  85.9370346
  42.4206161  68.5609894  10.7220087  41.9354744  67.8449783  10.3118896
  41.7995415  68.9488983  11.3384724  81.4323044  47.1977348  70.4749298
  81.5927200  47.8924789  69.8363190  82.1655731  46.5932121  70.3604660
  32.1389885  54.8586884  17.9227448  32.5316811  55.3225555  18.6622391
  31.3283386  54.4904823  18.2741680  84.3970566  64.6784439  42.1688843
  85.0198669  64.4941940  42.8720093  84.9419937  64.9589920  41.4336510
  17.4481220  33.8920784  80.5397644  17.5710640  34.4435272  81.3124313
  17.4254436  34.5077972  79.8072281  34.0286255  11.4655056   7.8758841
  34.3820572  10.6045284   8.0995703  34.4324112  12.0614510   8.5067854
   8.1195145  30.7386284  86.1332092   7.4871254  30.4091549  85.4946442
   8.9382286  30.2958260  85.9099045  69.9282532  34.4043770  50.7351151
  70.1511765  35.3212852  50.8957787  69.6754456  34.3775063  49.8122940
  24.2545433  39.4485931  82.5318832  24.4299030  40.3844376  82.4335175
  24.5580559  39.0604858  81.7112198  60.3518448  49.3666306   7.9362173
  59.9254150  48.5104599   7.9731202  60.4532585  49.5435829   7.0009985
  52.1423874  38.4122696  12.1212673  52.2674255  38.9663277  12.8917332
  51.4743500  37.7801933  12.3866606  62.1874619  65.3032913  35.1587715
  61.2913551  65.1516113  35.4591255  62.4252014  66.1515656  35.5331345
   7.9840908  71.0563507  58.9760094   7.7845407  71.3965149  59.8481903
   8.0294228  70.1074829  59.0935974  32.2205048  11.1022387  75.7447205
  31.8284245  11.8877726  75.3633499  31.7931499  10.3763590  75.2900772
  25.4242954  26.4557629  65.3803787  24.7702351  25.7700825  65.5155869
  24.9519348  27.2725086  65.5417328  51.8732605  26.2960777   3.1182003
  52.1337700  25.9952583   3.9887605  52.6724129  26.6667843   2.7438099
  49.6578331  25.2809563  37.5804787  48.7963142  25.2140198  37.9922256
  49.8481674  26.2190228  37.5744171  19.9370499  64.5430222  27.3224735
  19.2795734  63.8917580  27.5670357  20.1189060  64.3649521  26.3997326
  12.6680479  55.6696358  43.0083923  11.7417889  55.8768539  43.1322365
  12.9446945  55.2990036  43.8464432  23.2126350  65.3657684   4.5825410
  22.6845608  64.6079865   4.8338089  22.5774059  66.0021362   4.2542758
  56.4841537   1.1819327  71.8942795  57.3241653   1.5302255  71.5954361
  56.7136307   0.3967930  72.3914032  20.2656555  45.9126434  45.0849113
  20.3830662  45.2234421  45.7387085  20.9450245  46.5551491  45.2895470
   2.7274988  39.1670303  16.0916729   3.1477401  40.0267448  16.1145401
   2.1113458  39.1820679  16.8240395  85.6659775  56.7869987  47.5996208
  84.8931732  56.3138504  47.9080696  86.2767334  56.0999908  47.3327293
  21.3257065  61.6264458  10.3830957  21.5690289  60.8758469  10.9249678
  20.9972935  62.2749786  11.0058193   5.0175562  61.9319305  21.1049156
   5.4601083  62.7803726  21.0819702   4.3445778  62.0309601  21.7783585
  41.3681984  44.6576996  78.8575897  40.8882790  44.0685005  78.2755585
  40.8317947  45.4497337  78.8919907  85.0887375  21.3507710  66.8022766
  85.1393280  21.3184261  65.8469620  85.7703171  20.7476387  67.0987854
  30.7346630  44.5254898  80.4069748  30.5100365  45.0438652  81.1796646
  31.0368958  45.1692200  79.7662735  80.1159134  18.7517586  29.2856636
  79.6828766  18.6059208  28.4445667  80.7320480  18.0237808  29.3672447
  26.6523418  21.2516747  82.4943314  25.7679768  21.2639084  82.8603592
  26.5363960  21.5076122  81.5792999  76.7658997  53.2208443  69.2253036
  76.8189392  53.1680145  68.2710419  77.5608368  52.7859535  69.5338135
  15.4394112  22.2780857  71.2736740  14.6291428  22.7868500  71.2444305
  15.5864420  22.1151733  72.2053757  44.8282852  64.8115234   1.0355211
  45.6266212  64.4435959   1.4143572  44.1257133  64.2533722   1.3688217
  46.1150169  41.4111748  78.3454437  46.9916191  41.1255150  78.0881424
  46.1482582  42.3661575  78.2894745  73.3422928  29.6663666  64.1989059
  72.6023254  29.8305969  63.6143532  72.9600754  29.6718102  65.0764694
  39.1952896  48.8692894  37.7315979  38.2658691  48.7817154  37.5200729
  39.2062035  49.2424812  38.6129837  51.8624687  24.7172623  10.2004242
  51.0785179  25.1458893   9.8570099  52.5852737  25.1164742   9.7162580
  15.2189102  32.9213524   9.4690828  15.0745916  33.3090515   8.6058941
  15.3806000  31.9947777   9.2914801  85.3707504  52.6801376  74.2152100
  85.9580078  52.9264221  73.5005646  84.8118896  53.4469948  74.3410492
  40.0585480  26.0139179  82.1499786  40.1173248  25.0713158  82.3057938
  39.1902733  26.2562103  82.4718857  55.2799759  13.8257914  81.1074982
  55.1784821  13.2527905  80.3474960  55.2114906  13.2390499  81.8606720
  75.0757904  51.2446175  16.1658363  75.9502640  51.5665436  16.3846684
  75.1631622  50.8989792  15.2775068  50.2844734  53.7567062  44.4805603
  50.6772766  53.7885094  45.3528709  50.7280579  53.0291519  44.0445213
  33.3666687  35.2297554  58.8212280  33.0623817  34.3833313  58.4938087
  34.3048782  35.2366753  58.6316185  68.0062332  68.3328476  22.9330311
  68.7970505  67.8439636  23.1607018  67.9025040  68.1955109  21.9914322
  84.4233627   7.5240321   2.2345784  84.5039139   8.2584009   1.6259363
  84.5389481   7.9164052   3.0999773  43.0929298  34.2994156  86.0274353
  43.4290161  33.9522057  86.8537064  42.3869781  33.7000656  85.7852631
  74.9736481  37.1414146  83.1920166  75.4668961  37.5909882  82.5058517
  74.8802109  37.7936707  83.8863220  48.4963722  22.4187222  83.7153015
  49.0227890  22.5811596  82.9325333  48.7280197  23.1306705  84.3117065
  49.1656876  58.4718018  16.5721684  48.4016075  57.9190216  16.4083233
  49.8531456  57.8589668  16.8330784  64.2350006  30.5923233  69.7845993
  63.5738983  31.0539265  70.3004456  64.6923599  31.2843971  69.3070145
  25.8589115  52.8394241  34.8774910  24.9738178  52.4948730  34.7586327
  25.7278576  53.7213173  35.2258034  78.4036713  15.9788780   2.2387557
  77.8161850  15.2836952   2.5350888  78.8885956  16.2334900   3.0237744
  59.8499718  44.3889122  28.0075092  58.9531326  44.6854324  27.8526268
  60.3928719  45.1495361  27.8002911  84.1418533  63.5553970  80.0982513
  84.8974762  63.7143898  79.5325775  83.8080597  62.7031403  79.8181152
  70.0400848  56.1516037   3.5446441  70.5994492  55.3886185   3.6902552
  70.5667343  56.8944778   3.8396194  21.8001060  55.4469032   4.5715704
  21.0399456  55.4326515   5.1531081  21.4271431  55.4577332   3.6900861
  26.7910080  67.5729141  60.7620659  26.5058098  68.4617691  60.9737892
  27.4929008  67.3913269  61.3870506   3.9074039  65.8053131  55.2175980
   4.3299918  64.9664078  55.0335045   3.7403843  66.1838760  54.3544502
  20.6524830  34.7382774  84.4433517  20.6974392  35.6929131  84.4970627
  20.1952209  34.4747276  85.2418976  73.0779037   2.0261409  52.0485420
  73.9100571   1.7727087  51.6491356  73.2666779   2.0736015  52.9857407
  49.3950844  35.2461586  51.4173164  48.6532516  34.9483681  50.8907890
  49.8926163  34.4496117  51.6022644  78.5687866  42.0199966  15.9560947
  77.8417053  41.9475594  15.3377657  78.7318268  42.9606934  16.0249481
  13.7910480  14.4396019  64.4919510  14.3066578  14.2932453  65.2850189
  13.1917353  15.1491528  64.7234497  45.9152641  54.1801300   3.5507858
  46.1494827  54.1015053   2.6260202  45.6473389  53.2973137   3.8058996
  22.9028244  17.9216213  88.5075378  22.3089962  18.3311749  87.8783646
  22.5367565  17.0485935  88.6491394   0.3332630  10.4220200  46.8451462
   1.0898573  10.5320139  46.2692146   0.3676162  11.1770191  47.4325371
  71.2590714  28.1893501  30.9425449  71.0044250  27.4120483  31.4397240
  72.1121979  28.4340992  31.3010273  45.9240875  66.1097107  76.7154160
  46.1367493  66.6209106  75.9345932  46.7404022  66.0841522  77.2146225
  78.1021500  32.0792313  85.2359848  77.6429062  32.8803978  84.9840775
  77.4050140  31.4694309  85.4776001  75.0009537  57.1236076  45.6267014
  74.8261185  56.7277756  46.4805069  74.5520782  56.5538330  45.0021210
  41.7298355   3.1613951   9.4899683  41.3886147   3.5730095   8.6960087
  42.3212242   2.4796193   9.1711073   3.4511299   0.0134568  15.1977205
   2.5106223   0.0888881  15.0365133   3.8505981   0.6178195  14.5720987
   8.4300690  45.9219666  67.0160675   8.2115803  44.9904366  66.9887924
   9.0662708  46.0395088  66.3106155  17.7057590   3.2150972  63.6048431
  16.7564659   3.1113727  63.5391541  18.0123749   3.1932881  62.6983452
   9.5508823   3.4162576  12.1106901  10.4561787   3.7195337  12.0421734
   9.6090364   2.4654672  12.0166302  78.5118561  30.8259468  19.0041447
  78.3330460  30.8262863  18.0637951  78.9255524  29.9786453  19.1689777
  63.4127922   6.3856063  72.9740067  64.1784973   6.6288185  73.4943695
  62.8924561   5.8331299  73.5573120  79.5030594  46.7538795  47.3330002
  79.8351746  46.1628113  48.0086975  80.0549927  46.5801888  46.5704842
   5.5663481   9.9615259  34.5027618   5.2171941  10.7057085  34.0123367
   5.6530633   9.2651434  33.8517914  28.1492157   0.8136266  68.9212570
  28.3899117   1.4488573  68.2468872  28.7257729   0.0661390  68.7629013
  13.4050722  41.2461700  60.8315010  13.8690052  40.6822166  60.2126694
  13.5682669  42.1345634  60.5147133  73.9575348  63.4368477  33.1732025
  73.7372971  63.9860306  32.4207916  73.1111526  63.1959190  33.5497971
  34.9573250  67.0706100   1.4145210  35.1968918  66.1507721   1.3016264
  34.7168121  67.1438522   2.3381116  77.5287247  66.0319214  23.7185822
  77.7951126  66.7080536  23.0955982  76.8949051  66.4675827  24.2884045
   6.9333153  46.9926643  18.8824100   7.1301856  46.3027878  19.5160866
   6.1350183  46.6958809  18.4455223  36.2439995  68.5293655  39.7405663
  36.9070053  68.0954971  40.2776031  36.3769989  68.1735153  38.8619804
   3.5466974  39.0272903  46.2162476   3.0218217  39.2523613  45.4480820
   3.3900247  39.7435379  46.8316116  49.3581429  70.0558548  66.5559311
  48.6064148  70.2319641  67.1217270  49.3137512  69.1151733  66.3845444
  73.5310364  31.9402256  13.7212820  74.2614212  32.5583305  13.7479305
  73.5390396  31.5984001  12.8272333  24.5665798  64.4973984  80.9665222
  25.0830364  64.3806458  80.1691055  25.2089481  64.4618073  81.6752777
   8.7406225  50.3722839   1.3108749   8.1510344  49.6733437   1.0278521
   9.2597065  49.9784775   2.0120895  57.0531921   7.9008322  13.6304922
  56.3019371   8.4806957  13.7554274  56.9863777   7.6152139  12.7193451
  68.2329941  57.9369698   2.3626542  69.0397949  57.4463081   2.5193896
  68.0979691  57.8800316   1.4167382  40.7857285  60.1934776  59.5325279
  40.1724205  60.6170349  58.9319572  40.4088745  60.3373489  60.4005814
   0.8543074  35.5101357  51.8164101   0.7199494  34.5673256  51.9127960
   0.6676692  35.8686066  52.6841049  85.4047699  53.5733681  64.0573654
  86.0447845  54.0241508  64.6081924  84.5813293  54.0328217  64.2219238
  26.9141598  51.4219589  67.9404602  26.8157425  51.3073807  68.8856735
  26.0527382  51.2077751  67.5822601   7.6983519  28.9560146  68.1257706
   7.2126698  29.6643772  68.5483475   7.3425088  28.9179935  67.2379837
  25.9012146  40.4632759  67.0974274  25.7176590  39.5743446  67.4012985
  26.5223103  40.8115883  67.7370758  72.2003098  64.1651459  17.5725193
  71.8097382  63.2984390  17.4606800  71.8347549  64.4881287  18.3961010
  63.1092758   0.3224100  29.6971035  62.5380783   1.0888659  29.7472095
  63.8620148   0.6177536  29.1848660  27.9941216  19.0482368  80.5792770
  28.7006512  18.5657692  80.1500092  28.0163155  19.9155998  80.1750183
   9.3047295  67.2379150  83.6242065   8.4569435  67.6324081  83.4195938
   9.0868912  66.4267273  84.0832825  22.5143204  16.2224541  42.1069984
  22.9184837  15.4999075  42.5874290  23.2149143  16.8675117  42.0105629
  82.9901428  25.6341248  11.7047310  83.7362289  26.1792507  11.4548788
  82.3035507  25.8667717  11.0796728  24.1566257  23.8636417  69.2055969
  25.0416489  23.4990177  69.2013931  24.0163651  24.1623154  68.3070755
  17.6509457  58.1887016  66.5425491  17.5301552  57.6936226  65.7322769
  17.6707554  59.1040382  66.2632675  39.4407387  55.0187416   6.9518027
  38.9282036  54.3642082   6.4773326  38.8041878  55.4594383   7.5146732
   2.8565683  32.2190552  82.1241760   2.1212771  31.9408131  82.6702194
   2.4494529  32.6824799  81.3922424  81.8154068  41.3521309  36.7195435
  82.4837952  41.7559586  37.2730904  81.9631348  40.4110794  36.8135223
  72.5835876  31.4157314  40.5003548  72.8928680  30.9746780  41.2915878
  72.5448151  32.3412094  40.7416458   1.4173408   9.1186008  27.7890148
   1.9078770   9.5411148  28.4940605   1.8446631   9.4186001  26.9867516
  45.3248787  18.0523338  88.4276352  45.6687050  17.9050694  89.3087311
  45.7704735  18.8439178  88.1258545  83.3999481   1.3761138  66.0273819
  83.2906952   1.1299657  66.9459152  83.6902847   2.2877500  66.0566177
  70.1908340  38.5463028  57.3847160  70.6416168  37.7427216  57.6441078
  69.2694778  38.3787041  57.5828209  10.0691471  14.7334566  78.1239853
   9.1878309  15.0010777  77.8634262  10.1731329  13.8574686  77.7524185
  65.3372650   6.8596201  20.9347744  64.4389725   6.7577057  21.2492809
  65.2477112   6.9818730  19.9896469  80.2916183  34.4425850  11.6229954
  80.3207626  35.1802483  11.0137053  80.9473190  34.6546097  12.2873287
  55.1149902  45.1721573  73.0524597  54.7319374  45.3173294  72.1873474
  55.1565628  46.0440140  73.4453659   2.4643755  46.9201012  75.2127457
   2.1216848  46.0687256  75.4846954   1.7235787  47.5184937  75.3095703
  32.8567200  64.7155457   4.9944086  33.0792046  65.4610825   4.4368205
  32.0177460  64.4042664   4.6546106   9.6149607  58.6392136  44.4372215
  10.5507345  58.5417023  44.2610130   9.2588539  57.7565498  44.3356247
  45.6957016  57.9635544  11.7026129  45.0831375  57.2985535  11.3883352
  45.2144012  58.7874680  11.6268387  49.5320473  44.3803940  22.6642094
  50.1068840  45.1022491  22.9186115  50.0830193  43.6005173  22.7309456
  33.4292603  69.3612747  75.6592102  33.4512291  69.2144165  74.7136002
  33.9566231  70.1490555  75.7915649  14.7865419  24.1870041  61.2253571
  15.4075451  24.9073162  61.1170273  14.1547384  24.3067894  60.5163383
  45.4605255  18.4750080   7.6231246  46.0296974  17.9547558   8.1902342
  45.6062164  19.3790283   7.9019670  69.6203613  52.9744911  65.9054108
  69.6966629  52.0993271  65.5252914  70.3348694  53.0228882  66.5405273
  35.9320908   3.0955491  83.3693466  36.1029243   2.2041333  83.0653305
  35.1247635   3.3503580  82.9226608  11.5702524   0.8657246  19.4824257
  11.2092619   0.1523258  18.9561367  12.2775946   0.4595958  19.9833832
  57.0585594  40.1497383  36.1124916  56.2884140  39.9592247  35.5769386
  57.7389450  40.3806038  35.4800301  41.2873917  14.5643406  71.2870102
  42.0414505  14.0098915  71.4875565  41.6678429  15.4119740  71.0567780
  63.5527534   3.8067796   0.8955980  63.6880455   4.7417088   1.0499885
  63.9369812   3.3795428   1.6611500  46.9282990  51.2178917  25.4327221
  47.6479073  51.7650032  25.7474613  47.3591957  50.4671631  25.0241108
  71.6356277  12.4684753  35.8220406  70.7959366  12.2755747  35.4049873
  72.2906113  12.1832027  35.1849747  23.3063049  69.2573700  38.8391037
  23.8365593  69.5933380  38.1164742  22.4611626  69.0506134  38.4400864
  43.5256233  26.3138924  12.8154192  44.2757301  26.7386303  13.2315588
  43.6898575  26.4037895  11.8767080  63.7220078  21.0507469  64.7264404
  63.9406776  20.9768600  63.7974815  63.2111359  20.2636852  64.9155731
  65.8129959  12.0562897   4.9583426  66.4816971  11.3715858   4.9744291
  65.1812134  11.7587290   4.3037143  83.4060440  43.2618561  78.4419098
  82.7672348  42.6556168  78.0669098  83.2829819  43.1844788  79.3880081
  50.8709641  71.7689362  78.7270508  50.0254517  71.6154861  78.3053970
  51.0820580  70.9367752  79.1503372  70.6968079  28.5159435  51.9625282
  70.0422974  27.8204575  51.8981552  70.4866104  28.9677525  52.7797890
  69.6985168  43.4907570   8.6368055  70.3107300  44.1627579   8.9365463
  68.9516220  43.9823990   8.2952328  75.0831223  48.9237823  48.2666550
  76.0195160  48.9638443  48.0722427  74.8295822  48.0289536  48.0403175
  31.5248528   2.1504900   7.2730422  31.9334087   2.9716723   7.5468545
  30.7669315   2.4211724   6.7548542  69.3986435   5.0599289  53.8573494
  69.4952316   6.0066147  53.7539597  69.8609390   4.6885309  53.1059647
  31.0808659   0.2816624   4.3236842  31.6198311   1.0094373   4.0136957
  31.1311703  -0.3689055   3.6233537  65.6909561  32.5583611  68.8316956
  65.8826065  32.8781548  69.7133026  66.5465927  32.5010147  68.4064484
  85.1991959   5.9274850  74.7725830  86.1125412   5.8212047  74.5066147
  84.7575684   6.2526522  73.9880600  40.3546143   4.4173837  60.3227539
  39.8423691   3.8675237  59.7298889  41.0828094   3.8600321  60.5971985
  43.8001251   8.4394312  56.6581421  43.9719124   7.6964378  57.2366600
  44.5560074   8.4659672  56.0714798  16.6843262  42.7018356  88.6482925
  16.7908859  43.5213814  88.1653671  17.2326469  42.0737381  88.1781082
  48.0167084  50.5187836  10.4810619  48.4346924  49.6584206  10.4450188
  47.1420403  50.3457336  10.8292656  23.5148468  17.4005623  29.3646908
  23.7617016  18.1934605  28.8886604  24.0455379  16.7089100  28.9694519
  66.7034760   8.7749205  38.5393791  67.4982147   9.1389046  38.1493225
  65.9960480   9.3192339  38.1936989  79.2721863   6.6250925  48.4412689
  80.1431427   6.6770201  48.8349190  79.2736588   7.3036079  47.7661057
  58.5154724  61.1328392  61.6970329  58.3484459  62.0137367  61.3618355
  59.0472145  60.7155151  61.0192986  85.5331955  58.5881462  36.0079803
  86.1852951  58.0869293  36.4976501  86.0446091  59.0938530  35.3763580
  45.6179962  71.1210938   1.6962039  44.7806282  70.7044830   1.4925414
  45.7356911  70.9759140   2.6349802  50.7816238  47.7291374  39.0302238
  50.1431046  47.0383415  39.2072182  50.6616745  47.9343147  38.1030006
  66.9683075  56.5988388  11.2167368  67.8632660  56.6105080  11.5560627
  66.7284241  55.6722527  11.2056408  28.0552120  51.4761314   0.9798830
  27.8463802  51.9563065   0.1786013  28.9576321  51.1824760   0.8548345
  43.9561844  14.6990423   0.6357264  43.4144554  15.3548117   0.1967185
  43.3401909  14.1991224   1.1713220   9.3454685  43.7014313  58.5120926
   8.9380274  42.9690781  58.0496178   9.8775072  43.2888260  59.1924744
  65.4653854  47.9911957  88.3403931  64.8883591  47.9953957  87.5766830
  64.8733368  47.9037285  89.0874252  17.3394566  37.6494827  33.3070755
  17.5252743  38.0685310  32.4667778  16.3915176  37.5166740  33.3040581
  71.4274139  59.8228035  58.1515312  70.9010162  59.8457069  57.3523979
  71.3000946  60.6851425  58.5469971  40.5366592  60.5303574  77.6107941
  41.1573410  60.3758850  76.8986664  41.0855217  60.7518272  78.3630753
  31.1283665  31.3711910   1.9933532  30.5792141  31.6134796   2.7389801
  30.6034145  31.5976830   1.2256560  69.1022720  66.2288361  54.1786385
  68.7848587  66.7564697  53.4457741  68.7638092  66.6716309  54.9568481
  79.4172745  24.0384350   9.7166634  79.1222610  23.6777573  10.5527916
  80.3043213  23.6956749   9.6075945  49.4168892   8.9794464  38.6016998
  48.6866684   8.5690384  38.1384773  49.2058525   9.9130917  38.6021080
  53.6823311  24.1658649   6.3506012  53.6895180  23.2284565   6.1570983
  52.8671150  24.4842129   5.9629025  12.0517149   1.6510986  26.1389427
  11.6162663   0.8467713  26.4212093  12.2459526   2.1164894  26.9525242
  79.4575195  44.4047165  48.7121239  79.8100357  44.0994492  49.5480537
  79.5491104  43.6541786  48.1251564  58.1264763  31.4209003  17.4820557
  58.4468956  32.3158989  17.5940285  57.2420998  31.4355793  17.8479729
  37.8530464  38.6450119  55.7611504  37.2372742  38.6496239  55.0283241
  37.5686073  39.3700790  56.3175659  13.1435156  62.3296928  31.0964851
  13.8732929  62.7796707  30.6708355  13.4243507  62.2246170  32.0055084
  17.0879116   5.1748652   4.5952268  17.2676792   5.9901505   5.0634413
  17.6497154   4.5262218   5.0193362  81.8999863  33.8060379  71.7449341
  81.4135590  33.7740402  72.5687027  82.6692276  34.3406601  71.9416275
  84.9315567  48.0431519  62.1427231  84.7062454  47.1868591  61.7790909
  84.8538513  47.9291000  63.0899200   3.3572333   1.1907171  88.2026901
   4.2339177   0.9368607  87.9142227   2.7663472   0.6576637  87.6707687
  80.6157379   0.4688503  59.2312813  81.2484360   1.1012715  59.5718231
  79.8317184   0.6041240  59.7634811  78.4707565   7.8544607  43.8818398
  77.7538605   7.9375377  43.2530365  78.9294205   7.0567689  43.6181221
  47.7719955  59.7494087  40.9959297  47.0399590  59.5446243  40.4141884
  48.2009544  58.9071045  41.1467552  78.6908264  35.2474480  89.1413269
  79.1439896  35.9613914  88.6928177  78.8431473  34.4817314  88.5875092
  32.7598228  56.6862488  23.1591396  32.0342865  56.7612801  22.5392990
  32.4185677  56.1325607  23.8614273  63.5092964  56.5584602  54.9130211
  63.4503059  57.3370972  55.4666290  64.4490356  56.4120140  54.8050079
  75.8135223  38.6518440  75.4372787  75.9412537  37.8007202  75.8562164
  76.2134247  39.2781868  76.0406113  33.8261108  59.7712860  33.6370621
  34.3482780  60.4778099  34.0170555  33.0621986  59.7033272  34.2098122
  49.2127800  47.8114815  10.0726347  50.0487442  47.6400261  10.5062246
  49.2592392  47.3126030   9.2570400  57.6971970  57.1010704  44.3063011
  57.8720970  56.5339508  45.0573120  57.6973686  56.5091858  43.5540352
  61.7429047  52.1689682  65.7987900  62.2878876  52.5948143  65.1370621
  62.3681526  51.7564926  66.3947449  54.0498428  59.6595650  19.2992153
  54.6164436  60.1873207  18.7364807  53.7789803  60.2581711  19.9952965
  58.4741783  37.4992943  67.9695892  59.1163254  37.0415573  68.5121384
  57.7570038  36.8735466  67.8679276  85.6717987   9.0876226  69.0245743
  85.9538345   9.1551609  69.9367828  86.3085556   9.6107540  68.5376434
  75.2518692  20.2523804  78.0817108  75.6586609  19.6659145  78.7195282
  75.6914368  20.0500107  77.2558441  29.8928814  29.2965374  72.3345490
  29.3576107  29.2683544  73.1275940  29.2948742  29.6026783  71.6527176
  83.3856201  35.2333603  10.6733208  83.3618927  35.3187714   9.7202349
  84.1354904  34.6634941  10.8441353  33.8921127  31.8135624  11.1139736
  33.2936096  31.0732174  11.2135525  34.6884995  31.5406952  11.5695391
  40.8736877  68.0896225  58.7605896  41.6746292  68.1718521  59.2782364
  40.3205528  68.8116379  59.0588570  73.7145691  39.2486305  28.6096992
  74.4409180  39.5296745  29.1661758  73.6177597  39.9527054  27.9684944
  59.7936935  67.5026016  22.1370087  59.0486221  67.8700333  22.6125031
  60.4582901  68.1909256  22.1643429  59.4169426  64.2418137   9.3957958
  60.3521118  64.1229401   9.2297955  59.3571014  64.3795242  10.3411465
  70.9665985  65.0650787  75.1097717  70.6599503  65.9579315  74.9516144
  70.5032578  64.7892685  75.9006424   0.3216615  63.0084152  19.8438148
   0.6410455  63.8402138  20.1935825   1.1073424  62.4692307  19.7531853
  34.8129692  40.1170197  82.2441559  35.0315742  39.6094551  83.0257034
  33.8617020  40.2166061  82.2815628  62.1941719  56.0970268   8.9878349
  63.0033188  55.5946922   8.8920517  62.4605103  57.0072021   8.8579206
  63.8097649  31.7015896  44.2001572  64.0422592  31.6209698  45.1251869
  63.5361023  30.8207417  43.9443283  72.4204025  62.1872139   7.9101968
  73.2113190  62.6868095   7.7074809  72.1917038  62.4519043   8.8011885
  28.0038147  60.9516869  37.2686462  28.0009098  61.9070930  37.3271561
  27.6953545  60.6582832  38.1259651  49.0181961  65.3870621  12.7516022
  48.7924271  66.2775345  12.4826746  48.2462883  65.0768814  13.2250738
  37.6833611  65.1602631  86.7396545  37.6943779  64.8750839  85.8259888
  37.3073120  66.0400543  86.7114410  36.7156372   4.5207911  21.8349495
  37.2574425   4.9821501  22.4751225  36.2677116   3.8445988  22.3432407
  26.2576313  66.7089996   1.3182752  27.0898762  66.6629944   0.8476560
  25.8891525  67.5570908   1.0708945  44.7550507  37.1086655   2.6497698
  44.3545761  37.4567146   1.8530815  44.6747742  36.1587982   2.5629194
  26.6647472   9.4364872  85.9934387  27.3334351  10.0803652  86.2269058
  25.8459549   9.8144007  86.3143539  46.9972382  50.2301025  55.3970451
  46.3276978  50.3563652  56.0693588  47.2783127  49.3216782  55.5065613
  66.8211441  10.0425138  50.9367714  67.4507370   9.8408365  50.2445488
  66.8369370   9.2734270  51.5064087  79.2882004  31.0935764  54.3836784
  80.1749115  31.3466644  54.1269455  78.7347565  31.3965797  53.6638680
  73.7860184  60.0805893  35.2071991  73.1438904  59.7650070  34.5713425
  74.5451813  60.3269920  34.6788101  47.7986946  43.8801422  65.7223816
  47.0727577  43.2902794  65.5191422  47.4817772  44.7466545  65.4675293
  28.7349815  25.2597866  67.6489716  29.4626942  25.0549965  68.2361069
  29.1439972  25.3727932  66.7909698  50.6771545  59.8340950   1.7191913
  50.5577850  59.0447121   1.1911238  49.7875061  60.1277161   1.9155252
  46.9075699  42.9014587  15.2813292  47.1391983  42.3463402  16.0259247
  47.6310387  43.5244637  15.2128439  46.2030754  66.4033432  29.2334995
  45.5071144  66.0745163  28.6645145  46.7579956  66.9266891  28.6552219
  80.2052460   6.0612974  12.3128014  80.2500000   5.5723519  11.4911194
  81.1150589   6.1253648  12.6032467  84.1449051  67.5381927  79.7087708
  83.4837570  67.3254929  80.3674622  83.8605881  67.0696106  78.9240265
  71.7894363  54.5795288  11.4603567  72.3926849  54.7827072  10.7454863
  72.3166504  54.0802422  12.0840473  41.7811241  32.9835320  73.2423706
  42.3356323  32.3752327  73.7309647  41.3556671  32.4399490  72.5792389
  75.9062729  25.1038876  29.7674904  75.7644272  24.1577778  29.7360344
  76.7934418  25.2244549  29.4289265  62.0195923  12.7004299   4.8391628
  61.8221550  11.8141088   5.1419597  62.0112915  13.2327166   5.6346707
  34.9899139  35.8510933   4.8805737  34.1729469  36.0743752   4.4345412
  34.8826408  34.9337082   5.1318245  83.4344406  57.1545258  50.9566765
  83.0755157  58.0418396  50.9657211  83.6853180  56.9883690  51.8653450
  76.9527206  30.6634865  70.2848053  76.9436340  31.4259167  70.8634720
  77.8767929  30.5372753  70.0694199  75.9040451   1.8854797  72.2887650
  75.5675583   2.1008518  71.4189224  76.8216858   1.6568617  72.1407547
  10.6194954  52.3928146   2.1879961   9.8885889  52.8497391   2.6041989
  10.2068338  51.8187103   1.5427462  12.9628706  10.7712221  83.0942078
  13.6127882  10.0862722  83.2513123  13.3919487  11.5782661  83.3784714
  14.3631735  71.4723053  32.4911423  13.9799223  70.9225998  31.8076401
  15.2928476  71.5186539  32.2680054  33.0844383  50.9004211  60.0557594
  32.8567429  51.8288879  60.0073891  32.7198105  50.5223923  59.2555237
  59.0496407  21.7434444  71.7576599  59.2405281  22.1414318  72.6070099
  58.1095200  21.8766613  71.6365967  37.5646248   3.8664031  17.0664272
  38.5043831   3.9925909  17.1974373  37.1548882   4.3730650  17.7675972
  78.3680420   9.1917925  23.4088745  79.3091736   9.0637875  23.2900181
  77.9668579   8.6958904  22.6951771  65.4128952  27.9281864  15.1975584
  65.4804459  26.9812374  15.0752707  64.5054703  28.0707970  15.4667778
  45.7789268   8.9731483  70.3302460  44.9761391   9.4338961  70.0863724
  45.6124954   8.6553068  71.2176666  37.6178436   8.6514721  12.0507612
  38.0313301   8.2941580  11.2648954  38.3168144   8.6638966  12.7046089
  75.8734894  46.9042931  87.9385910  76.3740540  47.1460648  88.7178268
  75.4167252  47.7074738  87.6885910  62.9256592  36.9504623  50.7239456
  62.1391487  36.4186783  50.6021461  62.5999222  37.7876282  51.0545235
  48.6518860  70.3022690   5.8648572  48.8324585  69.8835983   6.7064877
  48.1894684  69.6339111   5.3591943   7.0159559  47.1298676  48.4654732
   7.3834028  47.9163589  48.0621834   6.0777402  47.3088760  48.5282249
  13.2975903  40.1743469  79.5852051  13.3401251  39.2790718  79.9212189
  13.5107803  40.0917015  78.6557159  85.7586212  55.7108040  78.6084442
  86.0644913  56.6178055  78.6127930  85.0203247  55.7099380  77.9992142
  84.3474350  50.8435173  69.3982773  83.5681458  50.2879333  69.3817749
  84.8109741  50.6300316  68.5884705  21.1069946  52.9640503  15.2609797
  21.9768085  52.8477631  14.8787050  20.6130371  53.4386482  14.5924044
   5.3093100  32.3462524  24.9236393   5.1942124  31.8430710  25.7297363
   6.2205334  32.6380234  24.9514656   1.8457985  68.6306076  17.9700413
   2.7152958  69.0306396  17.9565353   1.8735796  67.9736252  17.2744560
  53.9529991  49.0059052  86.7477341  53.3533211  48.4049797  87.1898956
  53.6756210  48.9902229  85.8317413  15.8939705  52.2700043  77.2695999
  15.5238638  52.1550941  76.3943558  15.3777895  52.9769020  77.6570053
  62.3569984  60.9091606   3.9786413  61.6534691  61.0787659   4.6051512
  62.9057426  60.2520561   4.4068012  52.5616798  12.2390680  87.2859039
  53.3175621  12.1188021  86.7110977  51.9101982  12.6752605  86.7367783
  17.1418476   0.3891373  80.1633759  16.4632053   0.0540635  80.7493820
  17.5286694   1.1235586  80.6400604  36.0170441  31.6111927  69.7457123
  36.4401703  30.7978668  69.4705887  36.1365128  32.2057457  69.0051270
  33.8234558  44.9092674  52.0450058  34.2222290  45.1076546  52.8922691
  32.9292793  44.6420860  52.2578316  49.4525909  23.0284309  11.8766422
  49.2176666  23.1864166  10.9622660  49.6432877  23.8979073  12.2286053
  72.0457993  14.0533676  43.2442284  72.2083740  14.6684723  43.9593811
  71.2638626  14.3931999  42.8091202  69.6343384  42.9588928  11.2742367
  69.6819763  42.9612961  10.3182259  70.2335129  42.2621536  11.5421495
  71.7580948  38.8439331  64.7770767  71.8213501  38.9809990  63.8318558
  72.6340256  39.0438538  65.1072388  50.6079979  40.1103554  53.6930542
  51.5492020  40.2814789  53.6601753  50.3936119  40.1289787  54.6257515
  60.5216789  56.1926117  15.9623079  61.0858154  55.5617981  15.5150251
  61.0670815  56.9728394  16.0623856  54.9444885  32.8035812  44.0382614
  55.8310127  33.1160889  43.8576012  54.5460548  32.7006340  43.1740341
  24.5659962  59.0871849  40.6185036  23.6191654  59.2239075  40.6508751
  24.8799744  59.3823433  41.4732132  53.5486298  18.3364296  80.3876572
  54.1515312  19.0224991  80.1012115  53.7377319  18.2250900  81.3193588
  30.3975010  44.9220505  27.5974121  30.5491238  44.6832085  26.6829739
  29.7822552  44.2627182  27.9183216  85.8069229   1.4899948  44.5702057
  84.9899368   1.5978671  44.0832520  86.0349503   0.5676301  44.4541092
  79.5080872  19.6107578  24.5227318  79.7514496  20.3507156  25.0790329
  78.7246857  19.9069843  24.0593052  65.5821152  63.7213287  13.1627884
  65.1375351  64.5585251  13.0298214  65.0012589  63.0752220  12.7610617
  36.9428749  70.7754593  72.9052429  36.9639244  71.2145996  73.7555084
  37.7891769  70.3325348  72.8434143   2.5330901  50.3768196  42.4421730
   1.6510139  50.2432289  42.0952911   2.4242194  51.0386887  43.1250381
  62.1989365  56.8802643  18.8317146  62.0769081  57.5387993  19.5155811
  61.6939125  57.2102814  18.0885658  33.2642593  43.8041382  72.6031418
  34.0293198  43.7625999  72.0293884  33.4409828  43.1563034  73.2852783
  71.0049591  33.1513824  69.4391022  71.7955246  33.2764969  69.9640656
  71.1199722  32.2917671  69.0340500   8.3250656  47.8314362  54.4219360
   9.0704031  48.3360939  54.7475471   8.4693289  47.7734756  53.4774475
  30.6937218  31.1016788   8.1795034  30.8668442  31.3616676   7.2747011
  29.7890968  30.7889576   8.1699390  14.3386660  65.7009354  64.8899384
  14.4195118  66.1131973  65.7500229  15.1363173  65.1798172  64.7981949
  43.7142296  30.6222305  78.7786713  43.2345047  31.2983551  79.2571640
  43.1372566  30.3883114  78.0516129   3.8174672  26.0259647  88.3091507
   3.6266148  26.4073086  89.1661072   4.1388469  26.7605343  87.7863159
   0.8154527  12.7147141  25.0847511   0.3459734  13.3266087  24.5178242
   0.2422969  11.9499588  25.1383667  11.6129370  15.8606663  74.6339264
  11.6896448  15.1629610  73.9831161  12.3715620  15.7399549  75.2050247
  78.8938980   5.1750998  83.3764038  78.6391068   5.1964540  84.2988281
  78.1441422   4.7817755  82.9298706  84.5405731  55.3129158  75.6059799
  85.4894791  55.3618546  75.7218170  84.3070297  56.1424828  75.1894455
  55.5833473   2.4119253  29.7034531  54.9201202   2.2891679  30.3826370
  56.2756958   1.7908918  29.9297333  77.9245453  47.3562813  73.4419632
  77.2201462  46.7101860  73.4929962  78.3714218  47.2905846  74.2858963
  17.3170071  21.7164898  66.2107697  16.9451542  21.4383965  67.0478058
  16.8467407  22.5219517  65.9955673   6.5143175  28.6834564  19.5222683
   6.4680495  29.3314476  20.2252579   5.6005454  28.4731045  19.3298988
  17.2547340  39.9501534  65.6845856  17.6306572  39.0740128  65.5991898
  16.3387966  39.7962570  65.9161148  86.1531448  30.9104195  67.9081268
  86.7045135  30.1282997  67.8854599  85.5945969  30.7875404  68.6756973
  18.8603401  67.9348755  35.6638489  17.9787216  67.8286438  35.3065033
  19.2736740  68.5826569  35.0930939  26.9917984  35.3686142  80.9769821
  27.8450260  35.3000793  80.5485687  26.6564121  36.2236404  80.7073898
  47.8647881  29.8632774  87.9800415  47.2187004  30.3934765  87.5134659
  48.4583626  30.5018711  88.3751373   3.3465893  27.2462749  66.2009354
   2.6919060  27.2321949  65.5027771   2.9641228  26.7142200  66.8986969
  25.2492771  41.8469200  87.9117737  25.6660328  42.1873093  87.1201477
  25.1580696  42.6105270  88.4817047  81.2048187  61.8325500  26.8323021
  81.8705444  62.0234489  27.4930573  80.5792007  62.5530891  26.9074917
  76.3525467  62.5954704   9.3151703  75.5810471  62.4384384   9.8595619
  76.9962845  61.9570427   9.6221695  42.1241493  32.2111702  80.5429306
  42.4603081  33.0828400  80.7513046  41.1967163  32.3514481  80.3520737
  15.6152239  32.9805870  63.5244751  16.3349819  33.5854416  63.3446770
  15.5208740  32.4740334  62.7177963  50.7556648  43.9772682  38.1744804
  50.3157425  43.2807579  37.6870613  51.6557961  43.6675835  38.2749481
  74.3198700  46.5133820  30.3848057  73.8500061  46.1974411  31.1565876
  73.7769547  46.2400970  29.6453533  59.4714203   6.8985305  64.1606445
  59.7662125   7.2265739  63.3111076  59.5938339   7.6364369  64.7579269
  54.6955223  15.3302326  73.9262390  54.9735451  15.7204113  74.7549133
  55.4963188  15.2807360  73.4042130  52.5836334  28.1359749  28.8350792
  52.4413071  27.1992207  28.9709740  52.8036957  28.4732533  29.7034378
  86.2295685   8.3832016  44.3820000  86.9994888   8.9004440  44.6184654
  85.5651627   9.0333252  44.1536789  42.7473297  68.0897293  21.0786934
  43.4594460  67.4729309  20.9093399  42.8814583  68.7912445  20.4414196
  24.1342297  71.6769485  58.5746613  24.1108894  71.0441589  59.2924767
  24.6739349  71.2585068  57.9039459  45.1980247  17.0129032   2.0770898
  44.3470879  16.9772873   2.5139751  45.4796104  16.0994682   2.0263200
  72.7854004   9.6813583  76.1575317  72.5103149  10.5918055  76.2654419
  72.7729187   9.3206997  77.0440979   0.7606557  52.3213234  33.0903664
   0.3388763  51.5468292  33.4625130   0.0377431  52.8449860  32.7448158
  71.1262054  44.0907707  26.2177238  71.8297424  44.5663261  26.6594429
  70.3231049  44.4285431  26.6141758  77.6535034  54.7662392  78.1626053
  78.3084564  55.4160690  77.9076691  77.9573364  53.9507904  77.7639084
   7.2236481  52.0872536  82.1037140   6.7181540  51.4955902  81.5463638
   7.4217434  51.5700607  82.8844223   7.5760999  64.4036942   3.2075679
   7.1152096  63.7769928   2.6498442   8.5000868  64.2864609   2.9868035
  59.3334923  71.2978287  51.6148376  58.5924606  71.7010651  52.0670662
  59.5928574  70.5709305  52.1810265  25.9051037  62.8361282  12.8976126
  26.2869835  63.5674324  13.3829918  25.5853825  63.2287407  12.0852909
  45.3444176  23.9778481  12.4339724  44.8610382  24.7862072  12.6046515
  45.9912224  23.9323387  13.1381054  62.7316246  40.7909355  29.7370739
  61.9234047  41.3028069  29.7686462  62.9832993  40.6838493  30.6543655
  65.3717346  21.2494087  50.4191704  64.9486847  21.9389858  49.9075623
  66.0783920  20.9329433  49.8563995  79.5753403  28.9721889  58.7630692
  80.4678955  28.9746437  58.4172859  79.3203583  29.8947334  58.7744637
   8.1993160  65.3704834  85.6934128   7.8780870  64.6698456  85.1258240
   8.1869488  64.9914093  86.5722656  67.5990372  25.6147022  16.4953709
  66.7330780  25.5350018  16.0953751  68.1525574  25.0205536  15.9885836
  10.2864332   3.9642692  69.3101273  10.5427866   3.5275388  68.4978561
  10.8915739   3.6213536  69.9677353  13.2279348  21.9750423  56.4260864
  13.5090971  22.8843613  56.5276718  13.9783850  21.4581432  56.7191277
  50.7632141  50.0958519  85.8870621  51.5421638  50.5234222  85.5311813
  50.5258331  50.6255951  86.6481476   4.4085131  19.9273491  69.7635040
   4.4882488  19.2990570  69.0457764   4.0954103  20.7296696  69.3457947
   3.8688779  70.1912918  62.0460625   4.2595916  69.4358673  61.6068497
   3.9756808  70.9113846  61.4245377  29.5366478  36.1967964  76.3156586
  30.1130829  35.6112976  75.8245926  29.8478241  37.0758591  76.0996857
  58.1382599  58.1868668  59.5466232  58.9916077  57.7920990  59.7260323
  57.5895729  57.4542542  59.2665329   8.6405077  37.3280106  16.8259010
   8.8291817  36.6052246  17.4244118   7.8786802  37.0331917  16.3269711
  42.7857399   5.7667108  64.4341736  43.2728691   5.3720069  65.1574631
  42.4402809   5.0212545  63.9430695  65.8948822  29.0170975  68.0582809
  65.4667816  28.3868179  67.4788742  65.1731415  29.4851303  68.4781113
  56.3829727  14.0928946  46.1848602  57.0348740  14.6303186  45.7349358
  55.6614876  14.6947126  46.3678970  10.9687681  68.7983246  50.3702393
  10.3426485  68.8765182  51.0900269  10.6184425  69.3676605  49.6851425
  43.3394547   3.5111821  72.0765457  42.6312943   3.1933534  72.6366577
  44.0610046   3.6883678  72.6800385  71.7770538   6.8751063  60.0399780
  71.2958450   6.0669031  60.2174110  72.0684128   7.1743784  60.9012413
  62.7019157  56.3314514  46.1271248  63.4184761  56.0731544  45.5474243
  62.4475555  55.5214119  46.5691261   3.8873572  67.1481705  77.4216232
   3.9127479  66.5670471  78.1818085   3.3315394  66.6919403  76.7898407
  46.5906487  52.8561821   1.2136281  47.3151817  52.2398262   1.3203790
  46.8345757  53.3830795   0.4526358  69.8470612  68.9566650  61.4485283
  69.7968369  69.9061584  61.3381920  68.9689636  68.6435394  61.2314606
  75.3840714   3.4058661  63.6786804  75.2462769   4.1494241  64.2655029
  76.0711288   3.6977339  63.0795135  31.0257664  52.6470947  76.1697998
  30.3491497  52.2147636  75.6487350  30.5397739  53.1544189  76.8199234
  41.5866165   8.4752121  77.5313797  42.0399551   9.1799355  77.9940720
  41.6168594   7.7336006  78.1358032  13.7346687  51.4467583  17.4060707
  13.7524986  52.0610962  16.6722431  12.8861332  51.0099907  17.3322220
  56.7051773  11.9558830  68.5073776  57.2945709  12.2895021  69.1837997
  56.7196960  12.6268501  67.8248672  77.6803207  20.2335892  48.4258614
  78.2688904  20.9690056  48.5961113  76.9888916  20.6024513  47.8762321
  73.8282547   3.2360086  59.5094109  74.2789001   4.0780759  59.5731888
  73.2940826   3.1895671  60.3023453  85.3720779  54.9259377  14.7695427
  85.3743286  54.2782516  15.4743357  86.2861404  54.9794540  14.4905214
  46.2443428  43.1374931  56.2972107  45.7872391  43.8044357  55.7848854
  46.2933464  42.3796959  55.7144775  77.2958450  23.1718636  50.9450340
  77.0306625  23.1153164  50.0270386  78.2513885  23.1205406  50.9219093
  74.0221939  36.9662704  77.5849457  73.8585815  36.1522713  78.0612488
  74.7115097  37.4024315  78.0857849  56.2523346  44.5812302  10.4582109
  56.1259995  44.8735123   9.5555239  57.0815964  44.9781685  10.7246542
   1.4893161  22.9211178  71.2636032   2.2585118  22.6868553  71.7829208
   1.5773078  22.4080143  70.4603500  13.1847210  66.3417511  33.5200272
  12.5278244  65.7893906  33.0962181  12.7669744  67.2001572  33.5896912
  50.4930038  36.5444946  53.6638298  49.9589272  36.1184654  52.9933853
  50.6842804  37.4103012  53.3032455  62.9311295  25.7135868  76.7987518
  63.8693123  25.6523132  76.6190414  62.5870590  26.2597961  76.0919952
  39.4125557  39.8403587  28.4259319  39.1586838  40.4846802  29.0867119
  40.3409920  39.6785622  28.5934505  82.2794876  39.7145691  22.0072002
  82.4326172  39.1992760  22.7991962  81.3630066  39.9835548  22.0699348
  78.3010635  23.6223183  22.5382729  78.8000336  22.8543472  22.8166199
  77.3864670  23.3777885  22.6794872  73.8342514   5.9606333  72.9142303
  74.4266129   5.3639941  73.3717880  74.0415573   6.8243227  73.2710190
  57.2216873   9.9039907  85.5154877  56.8550453  10.1197586  84.6580200
  57.6413612   9.0530052  85.3892670  83.7003555  23.2306099   2.3522537
  84.4141769  23.7605019   2.7070906  83.5424118  22.5634346   3.0202088
  10.1951427  46.7998047  38.6682663  11.1314135  46.9921570  38.7195625
  10.0662937  46.4725075  37.7780380  33.8556480  33.5202599  55.3798714
  33.5832901  33.4305191  56.2931061  33.9754410  34.4619637  55.2570915
  63.6634407  21.0240841  74.3709869  63.4145927  21.5856380  73.6368408
  63.5003128  21.5590687  75.1477814  40.7853737  22.5259418  14.5419073
  41.1498413  22.3605976  13.6723919  41.2392578  23.3117599  14.8463945
  22.7866192  42.3307724   7.2839494  22.8579464  42.6569977   6.3868866
  22.7806091  43.1197166   7.8259463  16.2874241   8.1781960   5.6668215
  16.8208389   8.9727383   5.6869278  15.4072771   8.4860125   5.4504380
  67.1549683  59.1444550  49.2372551  66.7834702  58.4304008  49.7552872
  66.6264496  59.1616478  48.4393806  19.9313164  24.3765450   6.4272342
  19.8193245  23.4474049   6.6281972  19.3451729  24.8256721   7.0362926
  53.9806786   7.8813534  71.2475052  54.5034599   8.6461906  71.0067749
  53.1038132   8.0770187  70.9172745  51.4506416  12.7121286  61.1046219
  52.1637917  12.3556013  60.5749626  51.0774155  13.4094906  60.5655289
   9.9134388  33.8948593  14.1013241  10.7734566  33.6516380  14.4440241
   9.4166317  33.0766869  14.0984163  13.2950792  47.8237953  62.0499954
  13.1867113  47.3855972  62.8940735  13.9142275  48.5323257  62.2257042
  55.1081009  63.7443733   6.8511305  55.8527107  63.7252083   6.2499456
  55.5028534  63.8335762   7.7185655  62.3261566   1.9689822  66.8257523
  62.2380562   2.7906837  67.3087387  62.6724319   1.3495361  67.4681015
  48.1600533  25.0159283  17.1795483  48.6760330  24.2221203  17.3204842
  47.6791458  24.8482552  16.3690872  69.7620316  60.0347595  55.9109917
  69.9536209  60.3273239  55.0199623  69.7004852  59.0820198  55.8422279
  59.4471779   1.6007661  32.2098999  59.5057182   2.5386755  32.0278816
  60.3425522   1.3430036  32.4292030  72.6045227  38.3448296  69.2663269
  73.2757034  38.8563461  68.8145523  73.0960617  37.6927376  69.7657242
  68.2565765  14.9504566  80.8371887  69.0652847  14.4787884  81.0365448
  68.4581375  15.8652773  81.0339203  75.3267746  41.1864014  74.0875473
  74.6520767  41.5944939  74.6302032  75.4787750  40.3338051  74.4952316
  68.5406647  33.1386986  16.4206924  69.1861649  32.4738274  16.6605015
  67.9094696  33.1302452  17.1402397  63.5640945  26.4618721  62.1135941
  63.6692009  25.7253113  61.5113792  64.1593018  26.2663651  62.8372917
  82.1299515  38.1005058  24.0950832  83.0342484  38.2071648  24.3902111
  82.0333252  37.1585922  23.9547424  62.8336945  17.6620808  56.3863373
  63.7076073  17.9799309  56.1594429  62.5570450  18.2202187  57.1130943
  24.8785610  40.4960365  13.1256371  25.1222839  41.1943169  13.7332840
  24.4326992  39.8483467  13.6714735  33.1831512  69.8065033  64.4787369
  34.0425644  69.8623505  64.0609818  33.3366508  70.0873413  65.3808517
  15.7065496  66.7886200   5.9584436  14.9920397  66.1698380   5.8074188
  15.5746889  67.0921707   6.8566103  75.9613419  55.0039864  39.2247810
  75.6383743  54.1960335  38.8258667  76.7831802  55.1845207  38.7684669
  71.6898499  64.9878159  12.7522402  72.0029068  65.4849625  13.5079327
  70.7359009  65.0146408  12.8263998  59.9694405  10.3121939  36.3353462
  60.9147568  10.3388824  36.1873550  59.8669891  10.5113688  37.2659721
  60.7187042  69.3507309  10.6441727  59.8523331  69.0159225  10.8755589
  60.6390762  69.6064301   9.7252016  69.5735626  35.7520065   0.2939318
  69.5878983  35.5842133  -0.6483375  70.3602066  35.3195610   0.6262153
  11.9246521  51.8414536   7.8630013  11.3942060  52.2372017   7.1714501
  11.2938690  51.3749847   8.4114094  83.9152374  23.9047718  66.8980942
  84.5098495  23.1563511  66.8477020  83.0650635  23.5211620  67.1131973
  69.8812714  51.8087273  20.5169487  70.6176529  51.4081078  20.0549145
  69.9928894  52.7488708  20.3758717  47.7823029  11.9023809  68.2518921
  48.4890633  11.9476280  67.6079407  47.7048607  10.9707279  68.4574509
  32.3427238  66.2647247  74.1413498  31.6473503  66.9097366  74.2703781
  31.9206486  65.5494461  73.6654663   5.2244053  15.2801523  28.1162834
   5.7360234  14.6073589  28.5655365   4.4806247  14.8065805  27.7437878
  49.7319069  41.8702698  69.7995529  50.4393272  41.2440262  69.6459198
  49.2016563  41.8326683  69.0035324  65.5807571  22.1305618  57.2919121
  64.8523178  22.2113132  56.6762085  66.2842560  21.7319031  56.7796707
  38.5366707  59.0181961  83.3375397  39.0616302  59.4098358  84.0355911
  38.8999901  58.1393051  83.2289886  67.0100937   8.9397917  67.2413330
  67.7816238   9.5027246  67.3051910  66.5791397   9.0267267  68.0915985
   2.8685472  63.7808456  37.6722565   2.3426440  62.9872093  37.5732613
   2.4399638  64.4241409  37.1077042  44.4089622  65.9734955  43.1343346
  43.8124847  66.4013062  43.7486839  44.5015564  66.5988464  42.4155922
  77.2980652   7.6840696   6.6436796  76.9282684   6.8977971   7.0452518
  76.5523376   8.2760201   6.5450907  44.3465805  68.2175140  51.6592102
  44.8611908  68.9695053  51.9523277  44.9140587  67.7685394  51.0326118
  22.3867950  37.7725639  61.2571716  22.6032753  37.0251274  60.6997566
  22.6084194  38.5384636  60.7275391  58.8627510  18.3138676  86.3000946
  58.1779366  18.3329716  86.9685974  58.5024796  17.7646961  85.6037827
  22.7085648  44.4949379  59.4670296  22.3406086  44.0773735  58.6882591
  22.7301559  45.4272652  59.2513161  72.3678284   7.1802354  80.9257126
  72.7509003   6.3060551  80.8529587  71.5862198   7.0551877  81.4639359
  81.2701874  22.1602840  60.6239433  81.6464539  22.8401985  61.1828461
  80.9603653  21.4920425  61.2352524  61.6765022  24.6585789  54.4066391
  62.0386505  23.8928604  54.8524628  61.6961632  24.4266949  53.4781570
  52.6062279  61.5965919  39.4516182  53.3963890  61.5368004  39.9885559
  51.9323883  61.1531105  39.9668846   2.8089375  21.0742531  30.2690182
   2.9458413  21.4325275  29.3920193   2.5461261  21.8279572  30.7973118
   0.2409428  24.5635624  50.0064049   0.3511995  24.2285385  50.8962555
  -0.4978819  25.1689911  50.0682526  62.9161644  61.0819931  86.8809509
  63.4307442  61.5055237  86.1938858  63.5582848  60.5888367  87.3915482
  47.2508850  71.8377457  65.1026306  46.6801720  71.4327087  64.4495926
  47.3704338  71.1610184  65.7689514  74.5856323  38.3439713   3.3054841
  74.4395599  37.8059425   2.5273948  74.7174606  37.7120972   4.0123019
   5.3772216  71.6334915  48.4615822   5.3043804  70.7091904  48.2236977
   4.4779968  71.9050064  48.6457253  14.6396494  16.9553432  12.0508833
  15.2182484  16.2448349  11.7740583  14.4002724  17.3999119  11.2376871
  42.6302567  48.9457703  17.4844646  43.3802490  48.4901581  17.8667736
  41.9319191  48.2912025  17.4746819  55.7123146  39.5464249  49.5112724
  54.7881699  39.3064766  49.5792084  55.8655396  40.1235580  50.2593803
  81.6436920  10.3088589  43.7285004  82.0998688   9.6006765  44.1830444
  81.2596741   9.8906126  42.9578934  17.7250938  24.8053360  74.1369171
  18.0071030  25.6724243  74.4282303  17.3811646  24.9489899  73.2552719
  75.4518967  29.3962250  50.4709320  74.9563141  30.2134037  50.5242920
  74.8648071  28.7356224  50.8385735  64.1418304  39.0654640  20.7989025
  63.6114693  39.8614197  20.7613735  63.9925690  38.6382103  19.9554520
  81.0217361  42.2191734  30.9713669  80.3530045  42.2190247  31.6562252
  80.6396027  41.7005997  30.2633572   5.7229843  37.2499008  77.3927994
   6.5674973  36.7995567  77.3779449   5.3126059  37.0168686  76.5600204
  64.9525681  61.7883186  85.1760559  64.7779465  62.4099464  84.4694290
  65.7010956  61.2781601  84.8667297  17.8569241  51.5711288  32.6663094
  17.5825901  51.3434715  33.5546455  17.2566681  51.0874176  32.0988998
   2.5786808  17.3917408  65.6614838   1.6329876  17.4955044  65.7669830
   2.9335525  17.5225887  66.5407944  50.1792221  69.1492310  71.3107758
  50.0192719  68.4394989  70.6887436  50.7399673  69.7623825  70.8355484
  65.2096024   2.5637312   2.9766660  66.0089493   2.5595770   3.5032241
  65.2946014   1.7997955   2.4062188  16.9624100  56.5847321  64.3373489
  17.3570271  55.7419815  64.1131210  16.6420841  56.9286461  63.5034752
  48.4692039  70.6301804  50.7776680  48.0819054  71.4660110  51.0376930
  48.9250450  70.3232880  51.5614128  58.4167442  23.1313763  66.9843597
  58.6636047  24.0550518  67.0303802  57.7474518  23.0283432  67.6608658
  33.3740845  22.3855114  87.2970352  32.8629990  23.0129814  87.8082123
  34.2001877  22.3046570  87.7737427  15.1401510  18.9804745  86.5092926
  14.8468370  18.0697117  86.4826584  15.2445107  19.2254753  85.5898819
   4.9144669  55.9321556  38.3592110   5.7233567  55.4289169  38.2660255
   4.3226967  55.3485985  38.8340797  61.7071991  48.2697945  22.4946365
  60.7873039  48.1798706  22.2457752  61.6930084  48.8427277  23.2613049
  12.5932360  58.1418152  10.3680220  12.2604351  57.9838715   9.4845467
  13.2018585  57.4203835  10.5272293  63.8816910  13.3213406  63.1016121
  63.7365799  13.5837717  62.1925964  63.1784401  12.6988192  63.2863617
  23.6803837   5.9940114  74.1802826  23.2490101   6.7045918  73.7057037
  22.9863777   5.3530750  74.3345184  35.0803833  26.2769718  87.9706802
  34.2663612  26.7521324  88.1374817  34.9658623  25.9053230  87.0960388
  26.7176762  42.6183205  52.3766594  26.8908539  42.7253914  53.3119545
  26.6401730  43.5123329  52.0435448  59.3351173  59.9647713   0.3399871
  58.6820297  60.6061249   0.6199479  59.7226677  59.6461143   1.1551523
  76.9574203  62.6034775  15.9468603  76.0327606  62.8497353  15.9711800
  77.4240494  63.3994522  16.2016449  25.6193466  37.3319397  18.0281734
  26.4687405  37.0972939  17.6544037  25.8268795  37.6769257  18.8965893
   4.3289390  44.2001686  10.1926012   4.7040458  43.5998001  10.8368711
   4.1194324  43.6450729   9.4414635  26.8331280   6.7403913  85.9524307
  27.0538235   7.6616826  85.8155060  25.8773651   6.7137799  85.9072418
  38.2631340  20.3380070  64.7901917  37.8591309  19.5660820  64.3937836
  38.1355362  21.0332470  64.1447525  46.5603981  58.4969521  84.8749619
  47.0627899  57.9816284  85.5060577  45.8705368  58.9076118  85.3961868
  86.2730179   2.3875566  23.1518173  86.1711655   2.0937550  24.0571003
  85.4238586   2.2124994  22.7462196  70.5754242   1.4749837  27.9721661
  70.0762024   2.2618930  27.7535801  71.1255875   1.7376519  28.7101116
  82.5034790  37.6336823  11.4888573  82.9859924  36.8695374  11.1734219
  82.7150116  38.3258514  10.8624506  68.9728775  24.4086781  77.3603821
  68.2480545  24.8155785  77.8350372  69.3609619  25.1241455  76.8566742
  42.3241882  58.8853035  70.7167664  41.7146492  58.1719666  70.5274353
  43.1909065  58.5011978  70.5845032  65.1072235  35.6224442  57.4261742
  64.6905899  36.4841423  57.4153366  65.8351135  35.7005692  56.8094826
  75.2180252  26.8616505  35.6316719  74.6496201  26.4180279  35.0021172
  75.8490372  26.1927586  35.8974571   5.5199966  66.0577087   2.1831949
   4.8369198  65.8849335   2.8311036   6.2722058  65.5495911   2.4868877
   7.5131440  43.3835144   4.1043868   6.7022562  42.8906975   3.9785969
   8.2021532  42.7925415   3.8006632  43.1652946  65.7399750  82.0280380
  42.8482132  65.9425583  81.1478958  42.4949722  65.1653366  82.3977509
  30.8067093  64.7653732  58.3872604  30.7032299  64.6345825  59.3298187
  31.4875984  65.4338684  58.3115349  55.2299957  59.7978058   3.3277736
  55.2204666  60.7385445   3.1512897  54.5583763  59.4385414   2.7480435
  30.7467918  10.3749294  80.4429932  30.0168610  10.4509773  79.8284607
  31.4488754   9.9718657  79.9322586  28.9066792   5.9820838   1.1087184
  29.3797169   5.2097602   1.4185307  28.4680500   5.6897650   0.3097283
  12.4617634  39.2781105  55.6511269  12.3655090  39.1058273  54.7144928
  13.0290499  40.0477867  55.6960297   8.7854633  11.0806704  14.8095560
   9.2204142  10.4126415  15.3394499   7.8598971  11.0053644  15.0416937
  82.8155975  50.0083275  61.3099899  81.9796143  49.8079414  61.7309647
  83.4601593  49.5019951  61.8043594  69.4651947  48.4388504  86.7639008
  68.8971252  47.8558578  86.2602539  69.6179123  49.1846123  86.1835938
  22.8968658  43.5335655  43.1985931  23.6740799  43.5074577  43.7567024
  22.5906563  42.6270599  43.1718292  70.0475464  52.3852386  87.9573212
  69.9895477  51.5587311  88.4366455  70.9074631  52.3589172  87.5376968
  47.6206360  44.8078728  10.7676296  47.3497276  45.4463196  11.4273481
  48.3785324  44.3700218  11.1550741  56.9444389  43.3554573  41.2244911
  56.5633430  42.6027031  40.7724266  57.2261505  43.0089493  42.0711327
  18.7929020  12.6870604  24.6756573  18.9455338  13.3367300  23.9894619
  18.2502422  12.0190926  24.2566452  80.7770081   9.9281740  37.3279419
  81.4688416  10.1299047  36.6979446  80.0309143  10.4547987  37.0411568
  24.1759281  66.0869370  70.2411270  23.5064144  66.4722290  70.8064041
  24.9854088  66.5328674  70.4903641  84.0314026  31.4345455  16.8843307
  83.3645401  30.9645767  16.3836803  84.8261032  31.3570900  16.3564262
  18.6605759  11.3950005  57.6704788  19.3313351  11.4263525  56.9883270
  18.3089657  12.2847338  57.7017174   3.9429209  36.3741302  11.2565870
   4.1955390  35.5102272  10.9308815   4.7697940  36.7880287  11.5039778
  15.4149637  42.0927696   1.7964407  15.8494282  42.2935944   0.9675001
  14.4823494  42.0805016   1.5812377  60.0809860  35.1047745  27.9825668
  60.6792870  34.6959877  28.6079998  60.3449249  36.0246925  27.9647808
  66.4356461  43.7309990  21.8494015  65.9243774  42.9871521  22.1680374
  65.8257675  44.2228394  21.2995148  80.4147720   9.9102640  87.1937561
  79.5079193  10.1292238  86.9794998  80.4001617   9.7207155  88.1318893
  16.6763687  36.6625977  12.7584724  16.8527794  37.5962563  12.6427469
  17.5424461  36.2552719  12.7735214  13.2413340  46.9004135  33.2262459
  12.2847452  46.8662643  33.2244797  13.4847956  46.8418083  32.3023796
   9.6253767  47.9734917  83.9405518   9.4732761  47.4514503  83.1527939
   9.8975334  47.3365021  84.6011658  13.6368895  36.7940712  62.2923660
  13.2454767  37.2623444  61.5549736  13.7150564  37.4542694  62.9810333
  36.2682991   5.0439944  19.0548363  36.2238693   4.5443988  19.8701038
  35.3589859   5.2759643  18.8662243  29.7685814  31.7648983  64.7216339
  29.3862705  31.1798019  64.0676193  29.3229656  32.6009140  64.5847549
  72.1430283  22.8994808  55.4413643  72.0554504  23.6802692  54.8946190
  71.3472137  22.3961639  55.2693901  70.2668228   2.4834578  37.4621468
  70.3320541   3.4384012  37.4543762  70.0852127   2.2632196  38.3757896
   9.5833139  25.3236427  63.2970123   9.8386602  24.4942818  63.7009811
   9.4727488  25.9248219  64.0336151  42.5004692   1.7876375  51.5501022
  42.7425232   0.9624337  51.9704323  42.5542488   2.4379506  52.2504082
   2.0012765  56.4445267  60.6677284   2.3939641  55.7266960  60.1709900
   1.2055469  56.6639824  60.1830788  25.5578003  61.3217506  76.1227112
  25.8525524  60.7185631  75.4404221  26.2068787  61.2300301  76.8202209
   7.0761433  25.8018456  23.8285236   7.7275710  26.4945850  23.9380074
   6.4651723  26.1482201  23.1781616  28.8826962  50.6032104  24.6096096
  28.1413174  51.2085915  24.6195908  28.9053841  50.2670631  23.7136631
  24.5155907  18.7348881  86.4954147  23.9999275  18.5294647  87.2752380
  25.1878166  18.0540695  86.4665985  27.8778572  23.8979912  73.4014816
  27.6975498  24.8168411  73.2028961  27.0288181  23.5369968  73.6565323
  52.9807472  17.0554543  47.5018044  52.1181374  17.4043846  47.2773438
  53.3560562  17.7071648  48.0939560  30.4046574  47.1103325  58.0662918
  31.1543369  46.5522423  58.2730331  30.7189407  47.6846123  57.3679619
  78.6540985  67.0721817  56.9779320  79.3818741  67.2610016  57.5703239
  78.1754913  66.3618927  57.4053116  32.7248421  12.8941154  84.1425629
  32.6987000  13.5050106  83.4061127  33.1175423  13.3963566  84.8565445
  19.2120380   5.6959720   7.4605150  19.0987129   4.8903170   7.9648061
  18.4345474   6.2164302   7.6626587   0.5043486  25.9312935  35.7301178
   0.0551329  26.1602230  34.9164696   1.3870311  25.6836185  35.4548721
  45.4064293  65.6665115  56.1069298  44.5507240  65.4841003  56.4951591
  45.4271851  65.1338730  55.3118858  66.4891739  56.8096428  54.9803619
  66.3927002  57.6575699  55.4138870  67.2809830  56.9003983  54.4502296
  85.9980927  69.1558685  68.4300461  86.5531845  69.7486725  68.9366913
  85.1522064  69.1788254  68.8774567  68.8710556  48.6292419  66.9675827
  69.2775497  47.7704887  67.0839157  68.4231186  48.5698700  66.1237488
  46.1693611   5.3933911   7.3268046  45.9753685   6.3287144   7.3881955
  47.0437737   5.3550725   6.9392872   9.6243896  62.3284378   7.4459472
   8.7109938  62.3662949   7.7296829   9.6743956  62.9461975   6.7164931
  72.2120361  45.3316116  17.3573437  71.2553329  45.3009529  17.3608360
  72.4800797  44.4861946  17.7174187  16.2852097  28.3334427  83.3065033
  17.2306213  28.2088375  83.3895798  15.9254265  27.9884090  84.1236572
  19.3946190  24.6234341  62.2195969  19.8133736  23.9129829  62.7055359
  19.9236965  24.7160625  61.4273033  10.5427103  17.2180462   6.8506870
  10.9050655  16.6628189   7.5410867  11.3065128  17.5126266   6.3546414
   0.7131076  40.0562363  49.9356003   1.2311774  39.3217278  49.6064568
  -0.0973138  40.0245590  49.4272232  59.7450867  63.4788971  33.7327080
  60.1527634  63.1478004  32.9324570  60.3654747  63.2569962  34.4270515
  51.5305252  70.3185501  32.0828972  51.2831650  69.4245911  31.8465137
  51.2019463  70.4300308  32.9749947  70.7698669  10.1334658  25.9246311
  70.7497787  10.2274055  26.8769989  71.5007858  10.6846237  25.6449547
   5.6358080  45.0050163  80.4801331   6.1825180  45.6543961  80.0378113
   4.8344407  44.9708328  79.9577560  42.5504875  44.9378929  53.5023613
  43.0991211  45.3064537  52.8099747  41.7985115  45.5280800  53.5517883
   7.7168713  30.5946865  88.8063583   6.9051700  30.1059418  88.9423752
   7.8021383  30.6574001  87.8550262   4.5402927  34.1446037  22.5009766
   3.9098322  33.5726547  22.9387302   5.1834173  34.3547554  23.1780720
   3.1717000  65.7077332  64.8603821   3.3134651  65.2751389  64.0183716
   2.5515831  66.4108047  64.6670456  23.9095421  28.5344505  75.5060349
  24.3341999  29.2516861  75.9766464  23.8270569  28.8533440  74.6072922
  61.1894722  18.4596901  17.4970741  62.0635757  18.5272045  17.8812866
  61.1379013  17.5594654  17.1758823  39.9891243  50.2422295  10.6941967
  39.9476700  49.5816269  10.0027380  39.5078392  49.8544388  11.4250984
  41.8419380  11.1678181   3.9583514  41.0701294  10.6092644   3.8658040
  42.0893974  11.0837612   4.8791828  60.0116730  35.6213837  35.2853050
  59.1495628  35.3723488  34.9521713  60.2990303  36.3252258  34.7036972
  32.3479729  10.5178814   1.1444775  31.4003372  10.4293451   1.2463821
  32.4627151  10.8577442   0.2570326  26.2313004   5.4262562  88.3831406
  26.4269562   5.9752722  87.6238403  26.7667255   4.6429572  88.2566757
  74.9023209  29.0976677  18.5693073  75.2606506  29.9151134  18.2234592
  75.4436874  28.9036312  19.3344898  19.5466614  41.3876915  77.4238205
  20.0657787  41.6592102  78.1808014  18.9603500  40.7124786  77.7652206
  69.1186142  25.6353931  39.5872078  69.3699570  24.7118721  39.6000824
  68.3235626  25.6746712  40.1187935  48.5763359  31.3940296   3.5485921
  48.9112816  31.9141693   2.8181825  49.1214523  31.6479855   4.2932959
  31.9655247  67.0792084  13.1754913  32.1515846  67.6705551  13.9048195
  31.7946167  66.2336655  13.5903225  84.2675552  69.4399948  51.9517593
  84.8405380  69.1992722  52.6797523  84.7394943  70.1368713  51.4958191
  40.2308273  44.8073730   4.2042069  41.1050453  44.4204903   4.1562848
  40.1363869  45.2883911   3.3820536  74.4074326  48.2820930  26.1124458
  74.9430695  48.5124931  25.3533401  73.5055923  48.3523293  25.7994232
  57.8639221  10.3365269  72.3869476  57.4734116  10.3255901  73.2607956
  58.5686111   9.6902580  72.4314194  45.9190941  23.3904724  74.9580307
  45.6419716  22.8799629  74.1972351  45.7852516  22.8033619  75.7020874
  10.4987526  36.3934402  63.5181885  11.0074739  37.1908340  63.6651497
  11.1210861  35.6815033  63.6667900   0.2964656  41.0088615  58.1056099
   0.3480746  40.4338493  58.8691101  -0.4821177  40.7121048  57.6344681
  77.5240707   6.6911616  51.9916801  77.4425125   6.8272448  51.0477180
  78.0271606   5.8810372  52.0742950  50.6678886  63.6868439   3.1168656
  51.3138962  63.1788597   3.6076427  50.2363739  64.2281113   3.7779689
  50.0911293  70.2973099  85.9601746  50.8228874  70.3994217  86.5687256
  50.4865761  70.3861771  85.0930176  24.7974262  69.7536774  61.1404152
  25.1158848  70.6214371  61.3890419  23.8547935  69.8696060  61.0210953
  68.5679779  23.6868649  10.5834560  68.4607239  24.3297882  11.2844400
  68.7564850  22.8659363  11.0381765  29.3444538  65.5831604  82.9085236
  29.0108681  65.7524109  83.7896042  30.1167774  65.0346832  83.0460892
  86.4702835  23.6207561  18.7679996  85.6734848  23.4747219  19.2779255
  86.1723099  24.0850277  17.9857616  79.0464554  13.6749983  40.2366753
  79.7203445  14.1279526  39.7297859  78.9555359  14.1965485  41.0341415
   7.0469127  30.8744221  52.1924210   6.9264679  31.8000240  51.9803162
   7.8904600  30.8398647  52.6434898  86.4083481  38.7964783  14.9169827
  86.8391418  39.6384315  15.0644970  85.8596115  38.9400368  14.1459360
  15.4522314  52.2795601   4.3471794  15.5944719  53.0739288   3.8324187
  14.6047201  51.9494209   4.0489063  63.3316193  58.3006172  47.6987419
  63.0422173  57.5035210  47.2547684  64.1697769  58.5127258  47.2879639
   9.6153507  64.4621735   1.1090358  10.0911131  65.1910858   1.5072465
  10.2974720  63.8386993   0.8595852  43.5225906  56.8126831  25.9338055
  43.5645561  57.0871849  25.0177708  44.0178909  55.9940605  25.9614601
   9.1183462  54.6523590  40.8712845   9.6147509  55.0549126  40.1587067
   8.2096996  54.6716347  40.5709152  54.4999008   9.2505932  40.1726418
  54.6204681  10.1992006  40.2155113  55.3263741   8.8893852  40.4931183
  11.8642616  47.5545883  56.0731201  12.6269083  48.0564079  56.3608322
  11.9855375  46.6893005  56.4640236  28.3083324  50.8623276  15.8904314
  27.9806919  51.6831207  15.5227575  28.5388947  50.3330383  15.1269360
  14.7012119  64.5880051  60.5566216  15.1514158  64.9191513  59.7795181
  14.8032513  63.6376190  60.5057640  35.4450951  36.7223816  47.5156364
  35.1982956  37.6031761  47.7976379  35.3393593  36.1818237  48.2984810
  46.7110786   5.6973658  15.5198898  45.8067551   5.9293995  15.7310658
  46.6650391   5.3351965  14.6350479  73.1983566  38.9069405  12.3095922
  73.0002823  38.0312309  12.6414442  74.0419540  39.1275558  12.7044449
  58.9740601  20.9962826   9.4970922  59.4666901  21.4644012   8.8229914
  58.1244583  20.8191662   9.0933094  22.6440773  11.7633619   7.1161127
  23.0833931  12.5763588   7.3656502  22.8436680  11.6590672   6.1857805
  82.6560516  49.0158615  78.5374908  82.5647507  49.3850365  77.6590805
  82.6637421  48.0686760  78.3996048  66.4848633  14.8929482  12.3022747
  66.3534393  15.0554743  13.2363768  65.6338425  14.5848646  11.9907103
  70.1628342  13.1342392  81.3491669  70.9079437  12.6642380  80.9748154
  69.5564041  12.4449348  81.6199722  16.8357925  28.9493961  61.3086700
  17.1208115  28.4095917  60.5713730  16.3754368  28.3411980  61.8869400
  31.4843750  41.0649490  84.8273087  32.2026901  41.6976051  84.8287506
  31.1943378  41.0298042  85.7388306  60.7355728  12.7655334  10.8490276
  61.4475212  13.3819752  11.0203667  60.4689713  12.9517584   9.9487629
  84.8190765  66.5982742  62.2613487  84.1278687  66.5996704  61.5991821
  84.4283142  66.1552811  63.0145416   5.7973475   2.8839381  33.6731758
   5.0951614   2.7709627  33.0325508   6.5504980   3.1683218  33.1553726
   9.2417765  17.0003490  76.3956680   9.7911978  16.2486439  76.1736145
   8.5281267  16.9719830  75.7583771   9.7245388  60.6229591  19.3618641
   9.0180902  60.6042862  18.7162514   9.9018459  61.5539780  19.4960270
  57.5925789  30.3141403  64.3703613  57.6763153  30.4646263  63.4287796
  57.0697174  29.5153656  64.4396820  55.2424850  41.2790108   2.4852786
  54.4887276  41.4876976   3.0371234  55.1206665  40.3588486   2.2514136
  16.1451054  60.3913002   3.8969691  17.0495491  60.4114761   4.2097077
  15.7395887  59.6732597   4.3829799   3.3880510   9.6385813  79.3978043
   3.3814008   8.6882362  79.5119705   2.5919333   9.8256359  78.9003754
  72.1227493   2.0446150  11.0941925  72.5367126   1.2402397  11.4069939
  71.1836548   1.8673389  11.1481991  41.9039955  71.6653519  82.4608459
  42.0600471  70.9830246  81.8079147  41.3742065  71.2368698  83.1331253
  84.7947998   3.6055579  66.3754120  85.3607559   3.5726240  65.6041565
  85.3912430   3.4909160  67.1152420  71.6551819  19.2629967  48.2511101
  72.3130112  18.7839146  48.7550697  71.2917480  18.6115532  47.6513023
  63.1491890  54.3666992  19.4586487  62.8576851  55.2000732  19.0888557
  63.5320663  53.8967972  18.7178173  34.6079483  68.3058548  78.1186905
  34.0031853  68.7710114  78.6967316  34.3640060  68.5903625  77.2379074
  76.7718201  47.0353050  58.6834145  76.3148193  46.5309372  59.3564606
  76.2571640  46.8954926  57.8885498  54.9541054  64.1255875  57.6689377
  54.4048538  64.9084930  57.7091408  54.4223709  63.4390411  58.0716057
  76.7503433  36.0584755  41.5155983  77.3066788  36.8042221  41.7405128
  75.8574982  36.3773689  41.6474037  19.2613792  46.2475319  67.0855942
  18.9071255  45.5864983  66.4908142  19.8396931  46.7777748  66.5373001
  11.1819382  49.5806999  16.7059555  11.6262436  49.1871719  15.9549828
  10.9392624  48.8369141  17.2574272   3.9776590  39.7045174  69.7201843
   4.2534423  38.9039650  69.2737656   4.6153522  40.3635483  69.4458618
  71.7780457  54.3600578  30.3112392  71.1454315  53.6501923  30.4213085
  71.3078232  55.1454582  30.5910034  42.7602730  29.2650414  10.6201601
  43.3581314  28.5193596  10.5676603  43.2928696  30.0176220  10.3628769
  78.2725143  42.7494774  58.7149658  78.6168747  42.7336693  59.6079407
  78.6344681  43.5489616  58.3328056  75.6073914  17.0555515  23.9943924
  75.9857178  16.9324780  24.8649979  74.6671219  17.1413517  24.1517830
   2.2661192  27.3997669  14.4583492   1.4977632  27.8231468  14.0754519
   2.9698031  27.5687141  13.8318367  51.2051544  20.2276478  22.6342068
  51.3887062  19.3371162  22.3350487  50.8684120  20.6762390  21.8585758
  53.2372971   4.5067153  11.9973450  52.3073540   4.6505980  12.1726694
  53.3519058   3.5595715  12.0749006  58.2911263  25.4697685   2.9640665
  57.4761925  25.3561687   2.4749725  58.1359558  26.2385693   3.5127919
  33.2073746   3.0512531  70.2713394  34.0973511   2.7814996  70.0446014
  33.2450218   4.0074759  70.2926025  11.0383596  57.7433319   7.7261095
  10.8056736  58.3952713   7.0650015  11.1179552  56.9242783   7.2371836
  34.8444786  45.2272758  30.5546398  34.1086693  45.3492012  29.9546795
  34.4366035  45.1010246  31.4113369  46.7093964  27.8962917  69.2862701
  45.7944946  27.6515083  69.1474533  46.8458138  27.7891312  70.2276230
  44.5471077  42.9242935   6.9944963  43.6881523  42.8641968   7.4126101
  44.3553391  43.1536522   6.0851831  68.2551193  42.4960480  39.3960266
  67.9857483  41.7299576  38.8892937  67.9368286  42.3213882  40.2817039
  29.0905781  48.0172310  19.4446659  29.8572903  48.2831192  18.9370365
  29.0645161  47.0643349  19.3578281  54.5057182   3.0530984  54.8429680
  54.9681320   3.6208003  54.2264328  54.3518639   3.6063073  55.6088142
  86.8349686  56.8094444  82.1902466  86.0760498  57.1751060  81.7357559
  86.4696426  56.3973236  82.9731445  16.6733322  47.6290932  13.5327988
  16.1063423  46.8924828  13.7611923  17.5447197  47.2426300  13.4458275
  70.0806274  26.3375626  32.5882378  69.8803024  26.7901917  33.4075241
  70.4304123  25.4897633  32.8623199   8.1107130   4.3075294   2.9753261
   7.5464911   3.6129272   3.3150518   7.5062666   5.0065427   2.7258122
  13.4590693  45.4832344   1.1428206  12.7700510  44.8189850   1.1267389
  12.9977255  46.3025894   1.3218405  23.4026833  53.7815666  33.2314339
  22.5749435  53.3008690  33.2278366  24.0548019  53.1376419  32.9551468
   6.3532472   7.2300591  52.3993912   6.2856789   6.9331174  51.4919281
   6.2723413   8.1823626  52.3464394  12.7654123  42.2510071  24.2934895
  12.8198013  42.6437416  25.1647148  13.0560141  42.9435234  23.7000237
  65.3222351  52.8470230  20.5319118  65.7888641  53.5851059  20.1398468
  64.5363693  52.7477798  19.9945068  72.3912888   4.3677282  71.1870880
  72.6338959   4.7701168  70.3531494  72.7888565   4.9322300  71.8500443
   4.6031399  51.6597595  51.1365013   5.1932354  52.2247200  50.6376610
   5.1425023  50.9084702  51.3832512  23.0875950  69.7870102  78.7935257
  23.3087120  70.5653839  79.3048630  23.4904633  69.0630722  79.2729568
  40.1604080  26.0510330   0.3715322  39.3150444  26.0583134   0.8204613
  40.4654045  25.1471081   0.4498374  59.4076576  35.6301498  60.9928360
  59.0063095  35.3487663  61.8150139  60.1500702  35.0378227  60.8736801
  58.5866432  13.6046543  61.3437119  57.9557915  13.8778563  62.0097618
  58.3932724  12.6788864  61.1960831  24.3577480  71.2466431  76.6327209
  25.1146030  70.7335205  76.3496857  23.7791653  70.6091919  77.0512085
  66.7916336   7.8413339  23.1037006  66.1727524   7.6123924  22.4103050
  67.1185684   8.7064543  22.8568935   3.6784718  37.0639458  59.8760567
   4.1950140  36.6463623  59.1868248   3.3224301  36.3347092  60.3836784
  68.0355072  20.8769436  15.8313818  68.4762192  20.0420322  15.9892712
  67.4905396  21.0105247  16.6068802  30.0675144  12.0207644   4.0002198
  29.6417160  12.0562992   4.8567619  30.2558746  12.9350014   3.7882700
  74.0946960   6.6158032  28.4779072  74.8644180   6.0540009  28.5680618
  73.5325165   6.3716288  29.2131386  17.2965813  61.1676216  61.9165382
  17.7044296  60.7854424  61.1394691  16.3569603  61.1265450  61.7386055
  13.7825470   0.3483969  43.8186607  12.9015837   0.0228319  44.0034370
  13.6408091   1.1536459  43.3209496  28.0601940  56.6899872  42.3207664
  28.7102432  56.5191498  41.6392403  28.5673523  56.7264595  43.1317482
  83.5478897  43.2984886  81.2456207  83.4128647  42.5739937  81.8564453
  82.7680588  43.8444939  81.3455200  50.2814713   7.0649672  11.5667553
  50.2542076   6.5788698  12.3908901  50.8852806   7.7883387  11.7352095
  52.4771156  37.4325333  36.3480034  52.8724022  38.1887283  36.7817650
  51.6164780  37.7415314  36.0650711  85.5901489  12.9050083   0.5296088
  84.7741165  13.3889017   0.4024244  86.0650558  13.0156078  -0.2940790
  42.2416306  60.3464622  35.7716827  41.7274971  59.8684692  35.1209755
  43.1329460  60.3424263  35.4227257  67.3071976   9.1142235  46.7827377
  67.1791000   9.9015551  46.2536507  66.4217987   8.7906780  46.9489479
   9.3238926   6.8139930  10.7543945   8.7993202   6.8824196  11.5521250
   8.6800289   6.7656183  10.0477610  63.9093895  64.8097153   3.5857913
  64.2016602  65.1315994   2.7330315  62.9623642  64.9488525   3.5825839
   1.1877880  59.7422333  25.8635330   0.7168812  58.9600449  25.5760307
   2.0990708  59.4591103  25.9386158  79.1993790  45.9306183  61.6225243
  78.6794281  46.7030411  61.8444366  80.0823059  46.1407585  61.9267006
   9.0730610  28.2319679   2.0670660   8.1936884  28.5097885   1.8106437
   8.9761038  27.3063412   2.2907753  41.1239967  57.2060165  84.5523529
  42.0731163  57.2276421  84.4301529  40.9262848  58.0087013  85.0348892
  41.3456268   3.1886287  78.7631226  40.7232323   3.8429952  78.4458466
  41.7362328   2.8245986  77.9686813  72.5303497  21.5879154   2.9265003
  71.7233734  21.6803894   2.4200685  72.8653183  20.7236462   2.6876199
  62.0592995  37.6202850  37.1451836  62.9645958  37.4363441  37.3958473
  62.0295334  37.4398041  36.2056236  15.4858255  66.6574249  75.8724442
  14.9687910  65.8540878  75.9321442  16.1643219  66.5557251  76.5399246
  39.8434982  52.3799629  54.4354935  39.5815201  52.2555809  55.3477020
  39.1335640  52.8936501  54.0503235  19.4867821  36.9799042  58.5149193
  19.3279305  37.5342178  57.7508926  20.4185848  37.0923920  58.7028618
  40.5651207  53.7704124  41.0419579  40.4607201  53.8252106  40.0920486
  40.8503075  54.6462135  41.3024864  18.5122490  18.3920002  14.4801321
  19.1429100  17.6910210  14.6448421  17.7137909  18.1047726  14.9230728
  21.8096733  67.5676880  16.1404533  21.9196911  66.6525955  15.8821440
  20.9885540  67.8359070  15.7280769  48.9030151  23.0011272  62.0255852
  49.5304947  23.7190971  61.9417763  49.4452705  22.2141552  62.0791588
  49.6082077  22.2253494  81.2632904  50.0173988  21.3608284  81.3006668
  49.8269615  22.5564156  80.3922119  -0.2988087  38.4222908  81.4148407
   0.6193593  38.1938324  81.5597763  -0.3060969  39.3790665  81.3873291
  29.4109077  33.5458565  20.0213242  29.7136135  34.4526138  20.0702610
  28.5179329  33.5725784  20.3649998   9.2289333  22.1034050  70.5366898
   9.6988535  21.2809353  70.6743546   8.3168144  21.8948002  70.7385712
  86.2085724  47.7598534  69.2439499  86.9643478  47.8187714  68.6595078
  86.5851593  47.5771065  70.1047745  73.4295425  70.3107452  60.2539139
  73.1158981  70.9132233  59.5794640  72.9111023  70.5277328  61.0287514
  35.0167427   5.8311658  62.7434769  35.5997047   5.8930445  63.5001526
  35.3998032   5.1411805  62.2017975  11.3779678  22.2502117  82.5424652
  10.6003256  21.7707386  82.2567902  11.9967785  21.5685844  82.8045502
   7.4062815  37.5726929  33.4232750   7.3245316  36.6683311  33.7260513
   8.0420666  37.9683380  34.0194931  33.8061142  61.8009949  53.4456482
  34.1438904  62.5241318  52.9172401  32.8897362  61.7190018  53.1815262
  55.9174080  43.3374481  22.9214325  56.8474922  43.4384804  23.1238270
  55.7146339  42.4357719  23.1706219  67.5568085  36.2925072  66.8988266
  67.6001129  35.4127083  66.5242462  68.4659729  36.5915413  66.9136353
   3.5203142  22.9533863  41.4447823   3.3419099  23.8937569  41.4550781
   4.4710345  22.8909645  41.3527718  84.9075546  69.2150803  85.4997253
  85.3771362  69.4073410  84.6880875  83.9911346  69.1390228  85.2339706
  64.6348038  62.2421799  32.0376205  64.3994064  62.5966339  32.8950462
  63.8908768  61.6914635  31.7936630   3.2192309  69.0222015  45.2808800
   3.7551067  68.6790314  44.5658264   3.2513340  68.3409424  45.9525108
  86.1259537  19.2008991  19.8376446  86.8485641  19.7371159  19.5112419
  86.1616135  18.4036026  19.3091736  59.9750710  12.1893339  67.3748779
  59.1135483  12.4613113  67.0585938  60.3153648  11.6208935  66.6840057
  15.1442213   7.7453074  67.3298950  14.2320919   7.8952680  67.0813751
  15.1927443   6.8059816  67.5075073  40.9358101  48.6808434  14.7122793
  41.8866234  48.7493019  14.6256752  40.8033714  47.9827080  15.3536043
  46.1530876  24.6039467  67.7618179  46.7028542  24.9605007  68.4595718
  45.9961624  25.3458900  67.1777573  79.5282745  10.9787245  82.2088318
  80.0173721  10.1976786  81.9500198  80.0488358  11.7090607  81.8743744
  27.1861744  33.8697090   8.5018024  26.7050419  34.6902466   8.6088610
  27.4162083  33.6088371   9.3935766  54.4095383  66.3811722  81.0731201
  54.6527176  67.0146637  81.7482376  54.0761909  66.9154663  80.3522568
  52.0242119   3.7484834  75.4070206  52.6495743   3.9559193  76.1013718
  51.4134026   4.4854650  75.4067917   2.8904986  69.5067978  69.1892319
   3.8195975  69.7370071  69.1859207   2.8527045  68.6571274  68.7500610
  61.5517120  51.9298820   3.8646741  62.2377815  52.5807190   3.7165191
  60.7382202  52.4343147   3.8609629  62.6227112   9.4219770  36.2313461
  62.9608536   8.7580738  35.6304131  62.0816040   8.9315710  36.8501701
  21.2016335  60.7225609  39.0592537  20.9988136  60.8155403  38.1284218
  22.0628586  61.1283798  39.1584320  76.7285309  56.9678917  18.5878105
  75.9430923  57.5149536  18.5937748  77.2987289  57.3602676  19.2489853
  80.5608826   2.4741838  73.3873825  81.2608948   2.3390815  72.7486649
  80.3860245   3.4147446  73.3557358  64.8771667  28.6004696  87.6189804
  64.8158646  28.2332039  88.5007935  64.2203369  29.2965698  87.6032486
  49.3814468   1.5199753  36.1457138  49.5129929   1.6640028  35.2085991
  50.2663765   1.4790090  36.5082817  55.6968498  22.2132950  77.9785461
  56.4020271  22.8086758  78.2324753  54.9313583  22.7787132  77.8757935
  41.6756134  25.7218819  36.5989647  41.3642731  25.8712158  37.4917107
  41.9624672  26.5840607  36.2979774  32.7809296  44.9695625  17.9425468
  33.5734901  44.4874687  18.1784916  32.9651451  45.8732910  18.1986160
  40.3475647  45.7559319  65.7523880  39.9305840  46.0116348  66.5751724
  40.7809601  44.9259758  65.9513245  23.8390121   8.2495422  67.9507294
  24.6451950   7.8121929  67.6768188  24.0885201   8.7451954  68.7306671
  77.2683105  32.4483910  72.5677948  78.0249939  31.8933697  72.7565231
  77.4802933  33.2886696  72.9742813  32.4802628  30.0793591  82.5681381
  32.1008873  30.3918800  83.3895035  31.8752785  29.4011898  82.2676239
   0.7004873  65.9022141  82.9071503   0.5542534  66.1445312  83.8215561
   0.8139296  66.7372894  82.4532776  21.0532017   2.0790298  21.1438770
  20.3692169   1.7960593  21.7507744  21.5821953   1.2949724  20.9967308
  53.9062233  15.8274956   9.0935211  53.7508087  14.9237947   9.3681173
  53.7934647  15.8117905   8.1431160  25.6858540  65.8513260  64.0875244
  25.1275616  66.6169434  64.2230606  26.4512939  66.1919937  63.6246147
  81.1192322  66.9502182  35.2089577  81.2485733  66.4724503  34.3896675
  81.8062057  66.6215973  35.7888756  58.8118820  70.5845642  84.2860336
  58.1404114  71.2648239  84.2350388  59.3890915  70.8703842  84.9941101
  21.5767021  28.8486767  73.6761169  20.6424885  28.9113636  73.4772568
  22.0117054  29.1739216  72.8879395  16.1873951  60.6380730   1.1986047
  17.1129665  60.8358345   1.0556446  16.1161404  60.4944572   2.1422837
  55.6143074   3.7078483   1.1667423  56.1388397   4.3591423   1.6324854
  55.7136955   2.9073203   1.6820177  62.0804367  33.6541634  73.4065247
  61.8087273  34.5641899  73.2871094  61.5730019  33.3494453  74.1587830
  55.6509056  47.6791458  19.5360527  55.6894608  46.9054604  20.0983315
  54.7172012  47.8073311  19.3687229   0.3945279  10.3304129  21.8778973
   1.3091623  10.4491520  21.6218166   0.0116800  11.2051897  21.8113728
  71.2682571  62.5615387  62.8306808  70.9869156  63.4706573  62.9335670
  70.4815140  62.0458565  63.0077133  18.3776073  13.7120180  50.7975273
  17.9669209  12.9654427  51.2336426  19.1063976  13.3317366  50.3071365
  49.0473633  60.7234230  48.2131882  48.5616760  60.3204994  47.4934731
  48.6917534  61.6099358  48.2754021  44.6313400  45.2958260  16.3069458
  45.2904358  45.3289948  17.0002861  44.5202217  44.3623619  16.1265717
  64.8825989  10.6517076  37.4152641  64.5310440  11.5281019  37.5720177
  64.1329346  10.1453304  37.1025047   7.6690111  49.7815819  83.9155655
   8.3044367  49.0691948  83.8450928   6.8296084  49.3762016  83.6980820
  69.2857742  18.7268314  33.0672951  69.1938858  18.0898724  33.7758636
  68.3864441  18.9334126  32.8128128  36.4519997  64.0029602  58.0256882
  37.0329094  64.1272354  58.7762451  35.8841095  63.2756615  58.2801895
  71.3500137  36.4924469   7.5992107  71.5763397  37.0558815   6.8592453
  71.5597839  37.0165176   8.3722429  10.9948311   9.9720860  19.4221172
  10.4840260  10.3464336  20.1398735  11.8340025   9.7410440  19.8204174
  16.9159946  52.3719025  50.2769814  16.6707726  52.6820259  51.1487160
  16.5578938  51.4855309  50.2285843  77.9488220  47.5801620   8.4265289
  77.6499939  47.8580132   7.5606575  78.2423248  48.3873634   8.8490324
   2.0927656  10.3060446  50.3631706   1.5166557   9.6007700  50.6579857
   2.5787756  10.5618200  51.1471367   1.1759148  46.4831619   3.4330308
   1.9613250  46.4304085   3.9776220   0.5564815  45.8823318   3.8472004
   8.9656010   5.8183222  86.1204147   9.4842052   5.3580360  86.7802734
   8.2223902   5.2388411  85.9528656  22.5062580  15.6994629  84.6138916
  22.6269035  15.8627176  85.5493164  22.2606392  14.7757864  84.5616837
  24.1997547  13.9002037  10.0841503  24.0875969  13.9940987   9.1381931
  23.3303947  14.0708771  10.4465256  27.9023972  65.7974701   6.2920189
  27.4831467  66.1677551   7.0687761  27.2897873  65.9795456   5.5794230
  82.5572739   6.0815134  36.2366829  82.8690567   6.6750913  36.9198265
  82.2335815   5.3169999  36.7131004  11.0961418  35.6865883  57.9799500
  11.0772705  35.4255447  58.9006729  10.2639894  36.1391106  57.8421898
  53.4504356  36.1033592  79.1535950  53.5781746  35.3035698  79.6637421
  53.3797264  35.8011513  78.2481155  60.2931099  60.1962509  86.6864166
  61.2058449  60.4845848  86.6830597  59.9510231  60.4938393  87.5294189
   7.6282158   0.3110901  23.4284382   7.1392527   1.1224746  23.2913189
   7.0263743  -0.3806087  23.1535358  56.5840034  55.5790367  81.2006760
  57.2567863  54.9822655  80.8728638  57.0280571  56.4238853  81.2733688
  12.6620703  14.5961094   7.9256034  13.1028671  13.9554882   8.4837561
  13.1361666  15.4134636   8.0785608  11.8919077  47.6980438  73.0415573
  11.6586180  48.3713722  72.4024658  12.4219351  47.0724335  72.5476761
  47.6435318  19.2695160   3.2778721  46.9286461  19.8556747   3.0297029
  47.6375122  19.2762928   4.2350292  66.2494583  35.4308777  35.3217316
  66.9111176  34.7700462  35.1174202  66.7215424  36.0953026  35.8236351
  62.2554855  52.9043694   1.0003784  63.1845703  52.9965477   1.2114162
  61.8718758  53.7497597   1.2335953  11.0069399  52.4132881  14.0765324
  11.7880735  51.8790436  14.2202110  10.2959518  51.9093475  14.4724789
  79.4791183   8.2002506  10.9352207  79.7087250   7.5291414  11.5779686
  79.6800842   7.8002834  10.0891285  43.2625465  42.1189537  23.7367325
  42.7284927  41.3337784  23.6162395  42.6373520  42.7967796  23.9934654
  39.8252258  49.2540703  40.3152695  39.4031105  49.8127518  40.9678993
  40.2946815  48.5974312  40.8297310  83.6625290  69.1954269  55.8986053
  84.4371414  69.3628540  56.4354210  83.8116837  68.3257751  55.5275421
  74.7945099  43.2439690  58.9263229  74.0294189  42.7020340  58.7335052
  75.5304794  42.6320457  58.9148979  35.3958244  16.1948471  79.0981827
  35.7221146  15.8965130  79.9471588  34.8755302  15.4613304  78.7703476
  83.8492737  50.7338676   4.2497220  83.0271454  50.8486290   3.7730958
  83.9230270  51.5188332   4.7925119  37.8661232  40.7864456  86.2879105
  38.4691277  40.3435097  85.6908951  37.6410789  41.6017494  85.8397293
  66.1726913  51.2417183  39.6352348  65.4064102  51.7429962  39.9140968
  66.2916412  50.5846634  40.3210678  79.1009064  32.1056328  14.4720564
  79.7568512  31.6948681  13.9088144  79.0523529  31.5347748  15.2388668
  80.7543411  61.6895256  86.2735519  81.5190964  61.8883553  86.8137894
  81.1150742  61.2671547  85.4939880  71.8190002  49.1787605   8.3563290
  71.0069275  48.8885651   8.7717419  71.7115097  50.1244888   8.2549791
  50.7028656  37.3721008  67.0569229  50.5894432  37.8506584  67.8781128
  51.4231071  37.8218651  66.6151199  73.7322235  70.3210831  81.2342224
  73.6389923  70.3437195  80.2818375  73.4422302  69.4432907  81.4824677
  29.3376732  49.4992142  78.4709778  29.6271076  48.8781853  79.1393890
  30.1355381  49.7261200  77.9933167  72.3821945  12.9143286   8.9262199
  72.3174744  13.0677910   9.8688183  71.6520157  13.4077148   8.5525322
  80.5778427  17.6960506  20.9648705  79.9453506  18.2664852  21.4016685
  81.3498535  17.7171192  21.5303707   4.6018662  70.2650452  17.4454288
   4.1454325  70.3386078  16.6072826   5.5252604  70.3913193  17.2271862
   1.6070384  10.3541460  44.3375206   2.5069618  10.2573481  44.6489677
   1.6802089  10.9125605  43.5635376  63.9162941  62.2807236  16.1943493
  64.2150803  61.7380791  16.9240742  64.6777802  62.8131256  15.9642973
  79.4079895  29.0220184  67.2569122  80.2045364  28.4932461  67.2105942
  79.0842896  28.8899174  68.1479797  26.0591946  62.1585655   0.5914150
  26.2423267  61.3598366   1.0861160  25.2095261  61.9968185   0.1813719
  78.3717041  71.1751175  13.3091364  78.3119659  70.5397415  14.0225525
  79.1983261  70.9684982  12.8729773   4.0908856   8.2203970  11.8495378
   3.4776022   7.7502437  12.4144020   4.7038245   8.6366224  12.4555864
  66.5723190  68.2650909  18.5019817  66.3272171  67.7736435  19.2859707
  66.6115799  69.1761551  18.7929344  57.4680176  60.0486946  72.7440796
  57.8070145  59.1544075  72.7044830  56.9539452  60.1456833  71.9424896
  36.0484886  34.0385132  63.4937897  35.3438568  34.1576233  62.8569679
  36.1530647  33.0893898  63.5605583  11.9993420  32.2532272  61.4485550
  12.0415373  32.4576378  60.5143890  12.5476665  32.9185867  61.8643303
  82.9239502  12.4292316  22.8127270  82.9408722  13.0051289  22.0483398
  83.4046707  11.6492491  22.5356483  43.3919868  52.4860344  72.5100327
  44.0260887  53.1726227  72.3032913  43.4727592  52.3622932  73.4557571
   0.5504869  64.2290649  65.7463837   1.4560647  64.3440247  65.4583893
   0.1148286  65.0443802  65.4980240  34.8291550  48.7265358  57.7637901
  35.4655838  49.0207100  57.1121368  35.2793579  48.0291748  58.2404823
   9.4796629  21.8997459  14.2291651   9.2008305  21.9678478  15.1423168
  10.2966022  21.4021702  14.2646637   1.3408921  46.8102303  85.5772324
   0.9949820  45.9255028  85.4596252   2.1163790  46.6932182  86.1260071
  78.8960571  12.5313807  68.2409286  78.5605316  11.6350641  68.2573242
  78.5460739  12.9327240  69.0363312  12.2788773  51.8843575  82.0417786
  11.6795893  52.6282654  81.9810638  12.8923168  52.1269646  82.7353668
  76.0189209  66.0079041  84.5688171  76.4522705  66.0940170  85.4179459
  76.4835815  66.6212540  83.9994888   8.1135473   6.9735012   5.8853326
   8.1343870   7.8623853   5.5308156   8.7734690   6.4986205   5.3801360
  51.2355766   6.9845619  63.7039680  50.7263451   7.3702745  62.9911308
  51.7537193   7.7117338  64.0489044  66.2553482  32.9690170  83.8081894
  66.4221878  32.6101494  84.6797485  66.6733093  32.3495216  83.2100601
  64.8452377  18.3514595  37.1490479  64.6778259  19.2022552  36.7436485
  65.7978439  18.2599564  37.1291466  38.6275711  16.1520920  73.8718567
  39.1296768  16.3999424  74.6481934  38.8343468  15.2271099  73.7381210
  31.9392605  61.6180801  32.2046165  32.3494568  60.7834549  32.4312630
  31.8365059  62.0697365  33.0422821  64.7799225  55.6245193  22.2663670
  65.0225983  55.7153015  21.3449001  64.7586060  56.5221863  22.5979900
   3.3097215  40.6045074   2.3675630   3.2271237  40.0947914   1.5615877
   3.0487196  39.9991722   3.0615923  39.9337234  47.2346039  59.5359497
  39.3783340  46.6257286  60.0228195  40.8274918  46.9672394  59.7502403
  30.9815578  66.3377075  31.7243366  30.8826046  65.7136993  31.0052700
  31.4943409  67.0543976  31.3506584  57.0349350  30.7399235  58.8003960
  57.4373398  31.5393867  58.4610443  57.4511871  30.0338058  58.3060646
  63.1098709  66.5773163  76.4030533  62.9475670  66.1757050  77.2566376
  62.4050102  67.2168961  76.3013687  59.6490479  38.2792969  47.2591896
  59.7470284  38.5575218  46.3485718  60.4106407  38.6490135  47.7058601
  37.9289360   7.3958073  86.7016754  37.4218559   6.5975237  86.8494797
  38.0777855   7.4134088  85.7562790  21.3995895  31.9557076  15.9499292
  21.5509644  32.1170998  16.8812027  22.1398125  32.3746262  15.5108290
  62.1600647   5.2291131  61.7711220  62.4723892   5.7739596  62.4934959
  62.7799187   5.3947845  61.0607948  69.2850113  64.3341751  69.1407394
  69.8395767  64.4272766  69.9153442  69.8924561  64.3904343  68.4031219
  11.8588581  70.8373184  79.3704300  12.1616831  71.7370300  79.4931183
  12.2764072  70.3455353  80.0775604  79.6938477  30.8647957  43.9082146
  79.9334106  31.4055557  43.1556091  79.1452560  31.4344120  44.4474945
  12.7912579  37.8786736  60.0799332  13.5019045  37.7685547  59.4482002
  12.0878639  38.2922287  59.5794907  36.2534599   3.3772213  61.8286209
  35.5307846   2.7580037  61.9313126  36.9317207   2.8800614  61.3714256
  69.6862411  57.6635399  58.6897697  69.8004990  57.3347092  57.7981186
  70.1414108  58.5055771  58.6946831  32.4622765  23.7808018   0.2855117
  32.4466858  24.4532204   0.9665714  32.5099411  22.9543037   0.7659909
  78.4447327  57.4990883  82.3768692  77.7524948  57.5403671  83.0366669
  78.0881577  56.9350891  81.6905823  75.0681915  34.8224068  75.4679260
  75.3590927  34.0481491  75.9497223  75.0773010  35.5258484  76.1170120
   4.8513474  41.9792175  39.9705124   5.7492361  42.0140648  40.3003807
   4.9178672  42.2763939  39.0630493   1.3970721   3.1330416  26.9019890
   1.3050538   2.1995020  27.0924301   0.5953870   3.5276637  27.2452183
  14.7110729  58.3844109   0.8771831  15.3459167  57.7235527   1.1537149
  15.1113787  59.2185478   1.1225556  54.0288048   5.0946093   3.9569664
  54.4321823   5.5004096   3.1896064  54.3502388   4.1930385   3.9479263
  82.7318268  22.4130592  14.2658215  83.2132950  22.1112328  13.4955454
  83.1553574  21.9707527  15.0014982  39.7161865  57.1420250  70.1744537
  38.9086494  57.4206238  69.7426071  40.3177490  56.9483871  69.4555283
  82.7997665  22.3355980  22.5034542  82.4262085  21.6961384  21.8970108
  82.1743698  22.3731670  23.2271194  34.7524490  53.4759865  72.5712204
  35.2341003  52.6642113  72.4122772  34.4041061  53.3782120  73.4574051
  82.6200867  51.5944557  55.1546249  82.6563873  50.6600914  54.9499893
  81.7556381  51.7205467  55.5458603  53.4404411   4.1767712  81.9207535
  52.7221756   4.4653921  82.4838104  53.0114136   3.6971350  81.2121506
  23.7938461  42.1280708  16.7487011  24.7156620  42.3859253  16.7487469
  23.8016605  41.2110710  16.4743233   8.7523222  64.4934845  14.7449923
   8.0434361  63.8504333  14.7589350   9.5247269  64.0046844  15.0290632
  64.8289566  51.4866104  25.3770657  65.2434998  52.1599731  24.8376484
  65.3822327  51.4295807  26.1560822  11.0853691   0.2983483  71.5136642
  11.2172089  -0.2334526  72.2985458  10.2250452   0.0345510  71.1873474
  62.8206406   5.6611485  47.9496193  63.7638168   5.5847082  48.0938530
  62.7089233   5.5107260  47.0109367  10.3805466  46.8344460  65.1284256
   9.9151897  46.4927521  64.3649292  11.2918186  46.5771141  64.9884338
  34.5841141  10.9058189  86.4598999  35.1190529  10.8221645  85.6705475
  34.9582481  10.2712717  87.0711288  70.6642990  11.3089628  49.7236481
  70.0893478  10.5447226  49.7636490  71.2699814  11.1158304  49.0080490
  35.9347839  48.2652397  33.1614380  36.1287117  48.3517990  32.2280960
  35.0730743  47.8494186  33.1894646  77.4830093  12.4216967  11.3246441
  78.1078873  11.6973867  11.3583641  77.9629211  13.1688795  11.6819038
  36.2364655   1.4071970  16.4881935  36.9433022   2.0500169  16.5464706
  36.0406342   1.3506743  15.5529461  39.6015549  42.0867577  30.2758961
  40.4536057  42.2811394  30.6663551  38.9949913  42.6823540  30.7158661
  76.5952072  48.6507454  76.6058350  76.8032532  49.1465340  75.8139114
  76.1402054  49.2775726  77.1682281  31.2897511  48.4766464  18.0391884
  31.9530888  47.8543777  18.3375092  31.7206345  49.3297462  18.0920792
  13.9092503  65.0649185  17.8320866  13.2734804  65.3041840  18.5064602
  14.7608471  65.1857376  18.2521057  54.9193878  42.6224976  29.4404469
  54.7032433  42.5396576  30.3692360  54.6293106  43.5036964  29.2046967
  73.8855438  64.9931946  11.0893116  73.2155762  65.2092438  11.7379227
  73.6180267  65.4668961  10.3017378  10.7792330  61.0172653  55.6810684
  10.6499252  61.1677971  54.7446671  10.2573948  61.6971741  56.1072617
   1.6881756  45.7533760   0.9818368   1.3773907  46.0716553   1.8293869
   1.1340103  44.9962273   0.7924667  36.6245804  57.4829865  25.0314217
  36.9324341  57.8365860  25.8659401  37.1191406  57.9662094  24.3695030
  16.3415947  52.5580177   6.9548845  15.8083515  52.5811768   6.1603112
  15.7087698  52.4506645   7.6649828  27.5385532  70.1476669  10.5033426
  27.2561836  70.9932480  10.1547794  28.1746922  69.8256989   9.8646755
  24.9969711  54.6275368  87.0199051  24.9568253  53.6806984  86.8853149
  25.3134880  54.7286415  87.9175873   7.1871405  10.3704805  76.2585754
   7.0599308  10.9914637  76.9758148   7.8432474   9.7559452  76.5873642
  45.2980957  33.9175072  26.1349030  44.8642769  33.1800613  25.7057095
  44.6861916  34.6467209  26.0346222  41.6719284  41.4862251   3.3680639
  41.5741806  40.6587753   2.8968918  40.8674049  41.5665779   3.8804271
   3.0614438  18.2499466   6.7150946   3.2633255  17.6699047   7.4492784
   2.7106891  17.6688404   6.0401735   5.3984079  14.0661469  83.3008347
   6.1552734  14.0068874  83.8838272   5.1402903  14.9872046  83.3363113
  25.1812897  51.0810738  46.7183342  25.7222729  51.5233078  46.0641174
  24.3671837  51.5842247  46.7356873  64.0347595  45.6176796  73.3799667
  64.6011810  45.0246773  72.8862610  63.2457657  45.6970177  72.8438492
  36.0446320   2.7742078  69.1599045  36.3799362   1.8805969  69.2324448
  35.6500511   2.8119788  68.2886353  39.0124626  68.4097595  31.5187759
  38.1079597  68.6400681  31.7310677  39.5307236  69.1420288  31.8525696
  25.8373699   2.0693662  30.1341934  25.8510590   2.6707358  30.8787727
  25.8019428   2.6397159  29.3662891  68.7945786  24.2484550  49.7504654
  69.5852356  23.9813938  49.2816696  68.0762558  23.8693600  49.2439728
  63.3454704   5.9061327  59.3619652  63.1702347   5.3871059  58.5770226
  64.2002792   6.3050303  59.1994400  29.8796692  36.3340187  79.1149445
  29.9114342  35.4132767  79.3746719  29.8368435  36.3118706  78.1589584
   2.7067034  69.8990631  84.7162323   2.2159944  70.2214127  85.4722290
   2.8964853  68.9846344  84.9260712  23.0728931  50.2493591   5.5836158
  23.5418720  49.6504402   5.0025926  22.1499424  50.0256538   5.4638243
  26.7620068  55.9638481  24.0633316  26.6707783  56.6664772  24.7069340
  25.9251232  55.5002937  24.0945606  65.5232162  15.6179590  38.4971275
  66.3218994  15.1244802  38.3105240  64.9967499  15.0269213  39.0353966
  54.3656082  13.7057467  61.3023529  54.1187363  12.9697552  60.7423515
  54.0007133  14.4739132  60.8630333  58.9928131  25.1105022  64.1748352
  59.6664085  24.9382095  63.5169449  58.5852280  24.2582798  64.3291855
  39.7946167  32.2400970  83.7486191  39.0932884  31.6265545  83.9675598
  39.5439796  32.5960579  82.8961487  31.3858681  29.1301098  88.7034378
  31.2786674  29.9561653  89.1749954  30.9717216  29.2836037  87.8542328
  17.3320084  18.8034286  83.2819901  16.3765526  18.7681313  83.3276901
  17.5247993  18.8690147  82.3467026  18.4115582   3.7231288  57.0670700
  18.5412388   4.4784212  56.4935303  17.7357941   3.2042885  56.6307449
  45.9237518  57.9211502  54.2139320  46.5482712  58.6086464  53.9825096
  46.2993660  57.5082207  54.9915161  53.2118950  23.3297424  37.7648964
  53.7796364  23.0373669  37.0518608  53.8154335  23.6437397  38.4382286
  60.2320023  21.0194092   5.0937381  60.1087570  21.6407661   5.8113432
  59.6429367  20.2940159   5.3011885  73.4453964  69.9822845  87.0233154
  74.3133087  69.8785553  87.4134445  73.0433578  69.1170044  87.1000137
   1.5167981  14.1241016   6.5362239   1.3379496  14.3674011   5.6279011
   0.7145094  14.3497267   7.0070295  25.5387764   6.7367711  79.2734528
  26.4181213   6.9334726  79.5963974  25.6840534   6.1933508  78.4989700
  55.5985565  28.5007019  83.5735245  56.3652267  29.0716190  83.6235352
  55.7318344  27.9901237  82.7749100  67.2100677  65.3188324  20.4376659
  66.2842560  65.1929245  20.2296715  67.6714249  64.7240143  19.8464222
  72.2262115  55.3103561   8.7883625  71.5905533  55.0285683   8.1305132
  72.8266983  55.8831100   8.3112907  58.0660210  38.1701965  57.1691475
  58.3667793  38.2835312  56.2675171  58.8054008  37.7608871  57.6186066
  44.7283630  44.2560577  26.8388863  43.8359032  43.9747047  27.0403442
  45.1545944  43.4716339  26.4935818  81.9752121  66.0637741  12.5790262
  81.7486038  65.7674866  11.6974964  82.7105408  66.6625748  12.4488087
  19.4450741  52.7305031  37.4446831  19.2330189  52.2455254  38.2422180
  20.3394222  53.0417595  37.5842934  86.0689316  34.7670708  13.8549538
  86.5646744  35.5830383  13.9232750  85.2473679  34.9469719  14.3120184
  27.3526459  61.4938660  61.8703537  27.0011635  61.8919029  62.6667595
  27.9678841  60.8315315  62.1850433  73.6286163  56.2354889  35.5977631
  73.8899460  56.9527855  36.1751938  72.7192917  56.0552063  35.8362160
  18.0813618  68.4241028  75.6209106  18.9116936  67.9788666  75.7898636
  17.9215145  68.2866135  74.6872177  81.6764221  10.0512695  39.8545074
  81.3771362   9.6965866  39.0173378  81.8471222   9.2794600  40.3943291
  70.9709930  24.5728455  72.5137558  71.2705231  23.8124046  73.0119934
  71.6981735  25.1933098  72.5634384  71.1145172   7.3442454   3.2411444
  70.8826904   7.6752257   4.1088662  71.9825134   7.7094355   3.0695362
  53.0642891  17.7420578  22.4131432  53.3534508  17.5578747  21.5194454
  53.5558739  18.5229073  22.6678028  84.8797836   8.8461933  84.9892197
  84.7190247   8.5633659  84.0889969  85.4998627   8.2041273  85.3348846
  41.7508736  30.3872414  82.6122284  41.9277496  30.9813194  81.8828354
  41.3376045  30.9393520  83.2760162   8.9431295  39.5563011  83.8760452
   8.8542843  39.7439575  82.9416275   8.5404081  40.3080673  84.3106613
  66.6236267  70.7328568  79.9488449  65.9861908  71.4258347  80.1211472
  66.3615341  70.0169983  80.5277100  15.2253342  45.7057114  83.8290329
  14.5107470  45.2597847  83.3743362  15.8729467  45.0191841  83.9887543
  43.5016098  36.4908180  26.2622662  43.7245407  36.1194382  27.1158543
  42.6083870  36.8178329  26.3692398  81.7390060  27.5496883  15.1607466
  81.4924011  26.7605629  14.6783600  82.3097076  27.2336693  15.8612194
   4.9684291  46.9115868   0.9120292   5.0499740  46.2162323   0.2592913
   4.0623050  46.8510628   1.2145326  25.2568817  11.3526278  82.7302780
  24.9729023  11.7682686  83.5444183  25.3623428  10.4287024  82.9571533
  14.8194151  36.6225204  17.3871937  15.2768583  35.8764648  17.7749825
  13.9000845  36.3565826  17.3688183  37.0270500  23.0730343   1.5878874
  37.7410393  23.2753601   2.1924679  36.4182892  23.8056297   1.6824414
  68.9297256  23.0349903  68.9959183  69.2740173  22.7168388  69.8304672
  67.9840622  22.9016056  69.0604935  38.5927849  58.1246414  54.3383179
  37.9832954  57.5172577  54.7576485  38.6023636  58.8896332  54.9135780
  52.4476891  58.2012520  85.0024261  51.9474030  58.4071388  84.2127686
  52.3131599  57.2626266  85.1332626  59.3292809  20.0696354  18.1938744
  59.9318504  19.5878544  17.6272793  59.8831520  20.4146328  18.8941841
  57.8051567  22.8579311  27.8114567  58.0884514  22.5260487  26.9595013
  57.3307915  22.1269684  28.2075691   4.9568357  51.1640892  79.2275162
   4.6246095  51.3229599  78.3439941   5.3985868  51.9786797  79.4673691
  66.0138474  66.1230545  81.5568924  66.4251480  65.5917130  80.8751755
  66.7461014  66.4542389  82.0768509  48.7362213  13.2934465  83.1891785
  48.3321075  13.8672314  82.5382614  48.0084953  13.0080700  83.7416306
  12.2825766  49.3306618  47.3617859  12.1981688  48.5403366  47.8951683
  12.0883675  49.0400887  46.4706764  61.5578804  25.6272411  59.8326530
  61.4758911  26.1923237  59.0644150  61.0141716  26.0480556  60.4986343
  55.4417419  34.2227173  38.3342667  55.3492966  33.7723465  37.4947128
  54.5862656  34.6243973  38.4860611   7.9819264  67.6415710  25.4578056
   7.2825999  68.2923126  25.3969078   7.7828660  67.0106049  24.7660732
  75.8082657  47.9147797  17.0441742  74.9285812  48.0265884  16.6837769
  75.6679230  47.4935379  17.8921680  83.7205887  17.5629845  40.4522400
  83.6547775  18.2251759  41.1402817  82.8537292  17.5522518  40.0464439
  42.6722183  53.5686417  81.5006332  42.0460777  53.8773918  80.8457642
  42.3816414  53.9718933  82.3186722  85.7865601   3.2230167  13.6723566
  85.9373856   3.9416525  13.0583172  84.8947830   2.9304490  13.4842691
  25.4557018  25.3231297   8.0718174  25.8459396  26.0875092   7.6479421
  25.9055958  25.2607555   8.9143953  43.1034660  54.2889137  37.6244240
  43.5524292  53.7982140  38.3128128  42.5112343  53.6524353  37.2239380
  63.1413956  27.5702286  47.3417702  63.3593445  28.4420509  47.6713982
  63.9309082  27.0515156  47.4961586  72.6953659  13.7654877  75.2323227
  72.4080811  14.1699591  74.4137192  71.9048920  13.3612680  75.5900726
  63.4092941  54.5153961  70.0720062  62.9163399  53.9063492  69.5222015
  62.7412109  55.0744019  70.4687576  66.1044388  42.4319191   5.6318245
  65.3141403  41.8949966   5.6898489  66.7939911  41.8169289   5.3817554
   4.3270154  36.3754120  75.2510529   4.1130381  35.6244431  74.6974411
   3.5062335  36.8628883  75.3211594  24.6859226  -0.1206578  13.5251560
  25.1926460   0.6830928  13.6411257  24.0200729  -0.0852001  14.2119007
  85.6162643  69.0846329  76.7564468  85.8941956  68.9889069  77.6673889
  84.8178864  69.6105576  76.8036194  52.4786987  47.2519073   2.0626631
  53.3077164  47.1333809   1.5990777  52.1476364  46.3632011   2.1923881
  71.4026947  66.9552841  60.2778435  72.2988586  67.1877060  60.0347137
  71.0167236  67.7763367  60.5830116  76.5094604  54.2659416  13.5134439
  77.4648361  54.2295036  13.5599689  76.2328644  54.4514465  14.4108372
  64.4898987  70.0791397  85.3716583  65.0843735  70.3144073  84.6592789
  63.6168747  70.2668152  85.0269241  47.8807983  34.4233513   7.3157902
  47.0633774  34.8566017   7.5614514  48.5489502  35.1025505   7.4079356
  47.3567200  20.2018871  82.6084061  46.6540031  20.8126259  82.3861160
  48.0714111  20.7602406  82.9145050   5.9905295  27.0006504  65.8588486
   5.1638970  27.2797680  66.2525558   5.8428903  27.0722084  64.9158173
   0.1526782  39.7007408  11.5872793   0.7762359  39.1066246  12.0049353
   0.1845426  40.4949722  12.1205797  20.2450275  58.7549324  52.4162827
  19.8531475  58.5924149  51.5582314  20.9754105  58.1383018  52.4666862
  69.8169098  41.9283676  59.4786758  69.0669861  41.5371552  59.9267769
  70.5227280  41.2919159  59.5926323   6.6017637   1.2035524   3.2287524
   7.4207721   0.8439917   3.5695953   6.1317616   1.5068915   4.0054860
  15.2386608   0.7616868  49.1683350  14.2854319   0.7413086  49.0836487
  15.3937016   1.1083927  50.0469627  54.4709206  67.4449158  15.3415632
  54.3713455  66.6166992  14.8721275  54.8446884  67.1974258  16.1873035
  32.5050011  36.8475761  68.5545425  32.1374512  36.0078773  68.2787781
  33.3728104  36.8731270  68.1514435  40.7120361  40.7848816  21.1381645
  40.2789650  40.0441284  21.5623894  41.2044640  40.3933372  20.4167519
  16.6101570  24.0787544  13.1828232  17.5626373  24.0535316  13.2743483
  16.2837029  24.1042042  14.0822744  24.2997780  63.6580696  10.6970854
  23.5713768  63.1688652  10.3145390  24.4044857  64.4182434  10.1248941
  51.7977180  51.0947609  67.2535019  52.6469383  51.4999008  67.0776749
  51.8141174  50.9012756  68.1907959  29.5671520   4.4941645  69.2027206
  30.0779572   4.2524648  68.4301300  28.6886463   4.1590037  69.0234833
  10.6402693  53.7631683  70.7856674   9.9888411  53.0672760  70.6984406
  10.9320364  53.9317818  69.8897476  54.1911354  26.1508961  13.4778748
  54.7550087  26.6803875  12.9140339  54.7622681  25.8717251  14.1934862
  61.7237129  42.6688766   7.8351045  61.6481476  41.8123283   8.2556305
  61.5514870  42.4972076   6.9093084  64.1968002  50.8292389  67.0527649
  64.9533615  51.1498871  66.5618134  64.2155151  49.8802834  66.9288025
  39.4651413   2.4123211  22.3579884  39.4935570   3.1107111  21.7040176
  39.7907524   2.8215294  23.1597080  15.8919458   2.1954651  12.2088041
  15.5834198   1.8001803  11.3934555  15.6401329   3.1162953  12.1388483
  53.0434990  67.3348770   5.2365875  53.9003181  67.2453766   5.6538224
  53.1371880  66.8832626   4.3978391  29.4124699  21.7574425  45.2179260
  30.3125839  21.4614964  45.3537292  29.2988834  22.4734535  45.8429489
  58.2446747   6.0981226  68.5780792  57.8105469   5.6572289  69.3084106
  57.7568817   6.9141593  68.4668427  52.1156273  39.3260422  14.7780161
  51.9645844  39.0720596  15.6884623  52.8963203  39.8789711  14.8099689
  13.9905367  69.6498566  61.8530693  13.1241026  69.3998032  62.1739998
  13.8896627  70.5604782  61.5758858  75.2984009   9.3184042  18.8582039
  76.0374832   9.0933285  19.4232883  74.5745087   8.7853613  19.1869698
  38.9171104  40.7598076  19.0037117  39.8638420  40.7012863  19.1321774
  38.5494995  40.1646729  19.6570930  77.0338211  69.0015106   8.0106230
  76.4343414  69.3445206   7.3479066  77.7501678  69.6358490   8.0368929
  32.9410973  48.1717262  32.4695396  33.4854813  48.8823776  32.1306381
  32.2527771  48.6135292  32.9667892  34.4960175  45.4804306  26.6973438
  33.7161865  45.5885849  27.2417698  34.1577911  45.1959267  25.8482876
  69.8881149  56.3312492   9.6946840  70.6815338  55.9819794   9.2888250
  69.1884918  56.1144409   9.0784407  31.9698486  61.8144951  20.3512306
  31.4199047  61.2244873  20.8666763  32.3950539  61.2458916  19.7092609
  85.8406219  69.1156845  57.4485359  86.1052628  70.0282211  57.3324852
  85.9681778  68.9461670  58.3819313  51.6884537  34.8620338  44.1098824
  50.8522949  35.2802505  44.3152237  51.7120438  34.0860748  44.6698456
  15.9114304  39.4670715  84.5594330  16.3889942  40.0236740  83.9443283
  16.3145027  39.6477852  85.4086151  82.4893951   6.0727773  60.0756721
  82.9866791   5.2706561  59.9158440  83.1354218   6.6910558  60.4171677
  34.7884521  61.2160263  76.3732834  34.1453857  60.9171448  75.7303467
  35.6162720  60.8367119  76.0782089  26.4169979  44.3443184  88.7364960
  25.8831806  45.1046028  88.9672394  26.2614098  44.2175789  87.8005676
  53.3692322  47.4126320  77.9732513  54.0262794  47.0260429  78.5521011
  52.8447456  47.9720497  78.5461349  18.1095982  28.0969009  12.5312948
  18.7834644  27.4704113  12.2673893  17.6549625  27.6683502  13.2564716
  15.7006054  52.9193344  74.5669479  16.3253841  53.4278641  75.0839386
  16.1525726  52.0946465  74.3884964  26.3510132  12.1320601  54.3228798
  25.5467033  11.6135759  54.3450356  26.5575867  12.2139959  53.3918343
  38.8709106  43.7429352  82.5886536  38.1177368  44.2804756  82.8336334
  39.2310448  43.4410057  83.4225464  65.1365204  26.2169628  32.3273582
  64.4542999  25.5563374  32.2074203  64.7612228  27.0179615  31.9615879
   0.7068986  54.0483284  61.6256485   1.3888605  53.5244217  61.2053108
   0.9596580  54.9549179  61.4511833  69.8440628  20.6733398  75.6631622
  70.4942322  20.3653202  75.0317917  70.3466568  21.1936226  76.2900162
  48.1697273  53.2344780  48.5772171  48.4499817  54.0993156  48.2776413
  48.1159401  53.3166313  49.5293655  48.7240906  36.5790863  78.0468063
  49.5061455  37.1288567  77.9980392  48.0624390  37.0591049  77.5487823
  43.2867584  25.7135754  60.2875175  42.4242821  25.7238503  59.8724709
  43.1194038  25.4112549  61.1801682  66.5038528   1.7776810  70.9744492
  66.3744049   1.5453197  71.8939514  66.0393524   1.0968531  70.4876785
  50.9274406  51.7174759  52.2632027  50.6716881  52.6137238  52.4812737
  50.7888336  51.2252426  53.0723534  26.1817131  19.2561874  42.6301003
  25.9059792  18.7649746  41.8562088  26.0816956  18.6382236  43.3542213
  77.0466843  46.7241364  80.1376343  77.0594711  46.6427345  81.0912781
  77.9637680  46.8537712  79.8959961  67.8549271  30.0452633  43.5564728
  67.4061584  30.8587246  43.7869530  68.3739243  29.8301640  44.3314629
  37.2528496  53.4534149   9.5859489  36.9147606  53.1228371   8.7536955
  36.9185677  52.8404083  10.2407084  75.2228394  41.0438576  87.3957977
  76.1061478  41.0269699  87.7641983  74.6969299  41.4964294  88.0552063
   3.0048580  40.9877777  48.0288086   2.2809987  41.0347328  48.6533508
   3.3502142  41.8798637  47.9949265  81.4653168  36.6216621  26.8654327
  80.9721909  37.1075287  27.5264874  81.0022278  36.7949219  26.0458260
  36.3888092   6.2674704  15.4968672  35.9400864   5.9426556  14.7162409
  36.9658012   5.5496035  15.7575884  41.4842110  11.8046494  87.0329590
  40.6945992  11.4143353  86.6582565  41.2275658  12.0607834  87.9188232
  27.0840054  42.5515099   5.2510352  27.6257992  43.3220177   5.4213591
  27.7088833  41.8296204   5.1829548  23.8325939  53.3365784  68.8888779
  23.5768681  53.9400826  68.1912994  23.5504112  52.4767075  68.5770645
  14.9359970  53.9150200  71.5223389  14.9572458  54.8403664  71.2783813
  15.8348045  53.7156944  71.7843399  41.2053528  17.3025932   8.0684519
  40.4302673  17.8199310   8.2871675  41.7417374  17.3280621   8.8608379
  55.2221489  64.8058243  37.4711838  55.6367683  64.4947968  36.6664543
  55.7278748  64.3981171  38.1742134  25.2363529   2.1280184   3.6706412
  25.9786396   1.7100695   4.1071744  24.9834709   1.5105810   2.9843075
  75.2985687  21.7877693   3.6204338  74.5167618  21.5566635   3.1188312
  75.5497055  22.6498718   3.2888608   4.7233300  27.5888443  40.8795433
   5.3094530  26.9531651  40.4689293   3.9737382  27.0699348  41.1712227
  18.6558228  56.7376709   8.8104906  19.5563297  57.0589600   8.7647247
  18.5511055  56.2052803   8.0219307  62.1130753  12.1022635  25.1187305
  61.7202988  12.7407455  25.7139606  61.7035713  12.2805367  24.2721157
  11.5920715  37.1881485  34.3197823  10.8651590  37.7816620  34.1311760
  12.3763609  37.7217331  34.1916885  81.9710007  22.0261288  47.5785637
  82.6297302  21.4735794  47.1578522  81.1531677  21.8054218  47.1328468
  79.5055084  61.7340508  19.4957409  78.7984085  62.2835579  19.8337936
  80.0092545  61.4877892  20.2715206  46.0571747   9.9647589  58.4356422
  45.5691032  10.7685642  58.6142921  46.4349976  10.1020269  57.5669403
  86.2619934   1.9027174   0.8872895  86.0361099   1.3915247   0.1101874
  85.4510040   2.3542709   1.1210095  81.0914612  40.9557152   5.8847170
  80.5641403  41.7429314   6.0205665  80.9321518  40.7152786   4.9720063
  23.7645264  47.5417404  43.0689964  23.2718811  47.7805481  43.8541718
  24.5205040  48.1288643  43.0727615  30.1934547  46.6383705  16.1334229
  30.7360382  46.8175201  15.3654776  30.4805431  47.2788925  16.7842255
   7.3862553  37.3867874  59.3600883   6.8804483  38.1937828  59.2644463
   7.0041022  36.9536324  60.1233521  79.1862106  25.8104572  66.0520630
  79.7844620  26.4578800  66.4251175  78.5726089  25.6152401  66.7603073
  63.8268318  32.6090431  63.3352051  63.3597221  33.3493385  63.7225113
  63.1359596  32.0466652  62.9849777  23.2104740  11.5781260  41.8748550
  22.8279133  11.1089430  41.1334076  23.6869087  10.9066830  42.3631210
  74.6994095  18.7631531  18.6869316  75.2736511  18.9238701  17.9381657
  75.2395020  18.9657097  19.4508018   1.3045139  37.1819878   7.9672418
   2.2485805  37.1243515   7.8201079   1.1828257  38.0180817   8.4171000
  78.8177185  13.6343975  -0.0845170  78.4371567  12.9409447  -0.6235235
  78.3904648  13.5379295   0.7665892  26.9122677  27.5951328   7.5735874
  27.4272499  28.3708191   7.3514714  26.5597458  27.7827168   8.4435148
  14.5395803  32.9060097  -0.0892547  13.7787809  32.3346329   0.0153570
  14.9082060  32.9776230   0.7912103  14.1182709  39.4081001  48.4922981
  14.5336695  40.2395592  48.2634926  13.2318649  39.4776649  48.1377907
   2.1344380  22.2783451  36.2989006   2.2098432  22.6042080  37.1957626
   2.6210515  22.9122639  35.7720375  74.7108459  36.3145523   8.5820541
  75.6074295  36.4627495   8.8827343  74.2094574  37.0380554   8.9580603
  73.5598526  40.0582619  55.9764709  74.2175827  40.1858330  55.2928391
  72.7998276  39.7043915  55.5145607  71.8263397  19.1121387  56.3675537
  72.5699387  18.9988708  55.7755547  72.1014786  19.8050995  56.9678345
  79.1024017  37.0810623  21.7585278  79.3460617  37.7892876  21.1624756
  79.6362305  36.3376808  21.4780979  52.8969688  21.6408501  24.9960442
  53.8091888  21.3531704  25.0324364  52.5153961  21.1368980  24.2772522
  78.8822479  49.8558044   3.2295935  79.7632523  50.0398636   3.5554473
  78.3346863  50.5355301   3.6225078  28.9725323  45.1952171  24.4557781
  28.1379128  45.5383110  24.1365128  29.5396633  45.9638596  24.5172901
  10.8430090  47.4361076   1.7331635  10.0600700  47.7314568   2.1979301
  11.5636072  47.9011345   2.1582761  74.8106995  16.8412514  72.7239380
  75.0910645  17.6913738  73.0629349  73.9826889  17.0220566  72.2790298
   2.3507524  10.8097525  72.0414581   2.3606260  10.1271191  71.3705292
   1.9895434  10.3789520  72.8161621   8.5364809  39.7804604  87.2986984
   8.9218512  40.6375961  87.4804764   9.1182852  39.1586876  87.7358856
   4.4131689  44.6608086  88.0845184   4.0543065  43.8016968  88.3067245
   3.8947027  44.9500313  87.3336716  43.6727829  67.8567810  24.6517811
  43.7063980  68.7419510  24.2890587  44.5263939  67.7357712  25.0676384
  58.1446800  13.6205254   8.9816017  57.6261215  13.8140774   8.2006617
  58.9680099  13.2701397   8.6416235  67.2275925  27.0196571   5.4539475
  66.6911697  27.6439934   5.9425082  67.3916245  26.3086243   6.0734296
   8.5183706  17.5973244  68.5651932   9.0813541  18.0921574  67.9698639
   8.1804085  16.8775082  68.0323944  59.4666214  69.6114960  53.7965012
  59.5857697  70.4472656  54.2476349  59.0833740  69.0349960  54.4575615
  49.9603348  65.7313232  65.4216232  49.7273521  64.8715744  65.7720261
  50.9046860  65.6816635  65.2733994   2.7023301  32.1648560  23.8048687
   3.4308484  32.5543098  24.2884178   2.3583202  31.4912796  24.3915405
  79.1984558  62.4519577   8.4603310  78.3856277  62.9356117   8.6073704
  79.8812408  63.1227455   8.4691315  39.6676254  12.4721651  11.4925423
  38.8173752  12.0376139  11.5594082  39.6347694  12.9352255  10.6554470
  68.7808533  13.5036125  31.8074532  67.8399048  13.3691206  31.6944637
  68.8843460  14.4545469  31.8427544   1.6016494  43.7964821  21.4205608
   1.0622661  43.1638565  20.9461308   0.9787873  44.2892876  21.9548054
  21.0737190  23.4286766   9.5351820  21.9031296  23.4061413  10.0124702
  20.4301929  23.7081604  10.1863298  37.8471680  55.6521492  18.8488350
  37.5241699  55.6386948  19.7497902  37.1696205  55.2015457  18.3447361
   6.3100500  23.7119675  84.4209518   5.4330726  23.7792397  84.0433044
   6.8983426  23.7366085  83.6662750   4.6860051  45.0128098   6.6236148
   4.4379578  44.6387901   5.7781487   4.5369921  44.3056908   7.2513156
   3.0950489  37.6056976  56.2195740   3.6758766  37.5434685  56.9778595
   3.5278151  38.2298088  55.6369629   8.0693884  27.0090122  51.7544060
   8.1634159  27.0238495  50.8019524   7.1237006  26.9925194  51.9014931
  19.2050495  55.7847786  29.0260334  18.5051289  55.9178429  29.6652794
  19.1840649  54.8461037  28.8398075  75.2087936  23.7653103  67.2129440
  74.6192322  23.6806660  67.9622574  75.3322601  22.8682060  66.9027939
  26.8150902  58.1531982  51.8655090  26.1485100  58.6678505  51.4104996
  27.3292580  58.8004189  52.3481789  17.1841507  38.8607674   8.9023571
  17.5262012  38.1217690   8.3992510  16.3425179  39.0604858   8.4924812
  17.7107449  41.9167366  28.0625744  17.5064106  41.0229073  28.3374367
  16.9027462  42.2338676  27.6590919  46.9535789  60.8531532   0.9524413
  46.0812950  60.4638100   0.8911350  47.1188927  61.2090950   0.0793945
  47.3858986  56.9565887  19.1211147  46.8581848  56.1710358  19.2648296
  47.1105461  57.2762222  18.2618999  63.4284019  15.8185062  51.8185081
  62.5505333  15.6616554  52.1663208  63.8953743  14.9962749  51.9671860
  33.4613953  65.0726929  79.0955963  33.9127045  64.6906967  78.3428421
  34.1639404  65.4204178  79.6449051  86.8687820  23.9597015   8.9096766
  86.2677155  24.6683617   9.1393604  86.7304993  23.8226585   7.9724841
  76.9996338  17.3749809  40.2693253  77.3661194  16.6287365  39.7949448
  77.1427460  18.1219482  39.6881294   3.3257723  44.4789276  70.0502243
   3.4647949  43.6971474  70.5847626   3.3576341  45.2043152  70.6739502
  76.4601135  26.2267971  19.7961311  76.8133926  26.9108257  19.2273312
  77.2220230  25.8904705  20.2679462  10.1648903  70.6143723   9.2939329
   9.2440882  70.4390030   9.1000175  10.5972204  70.5957489   8.4401321
  73.9548416  26.1343670  76.0343475  73.1104279  26.5834141  75.9948578
  73.8244095  25.4348507  76.6745758  65.6538544  61.1441269  38.1137047
  64.8248901  60.9898262  37.6606750  65.8990021  62.0360222  37.8674164
  28.4520226  44.1279221  20.6042957  27.6837387  44.6888771  20.7105999
  28.9651508  44.5523148  19.9166756  19.9879818  32.0439644  12.0095396
  20.3594685  32.6924171  12.6076488  19.6406803  32.5602608  11.2821808
  14.6149426  57.2418594  41.5707092  13.9385595  56.8286018  42.1073265
  15.2685871  57.5450287  42.2008438   3.1376560   8.7830334  32.2176170
   3.3781571   9.6547823  32.5313759   3.9738450   8.3579483  32.0270309
   3.0207088  19.8092670  37.7875671   3.2452576  20.7231541  37.9625549
   2.6038408  19.8257885  36.9260674  77.4332047  58.0782700  30.7930241
  77.5955429  58.5421143  29.9716072  76.5087204  57.8336906  30.7513065
  67.9834747  11.0494204  81.9855347  68.3891678  10.8156691  82.8204041
  67.4668732  11.8312149  82.1808624  86.0618820  61.7899780  40.5511971
  86.4593658  61.4046173  41.3320503  86.3470306  61.2245674  39.8334007
   2.6076441  70.0085220   3.3543360   3.3076818  69.5111389   2.9315040
   2.5495250  70.8184738   2.8475533  26.8654232  55.2132454  46.9187851
  27.7162457  55.5004539  46.5873604  26.9609928  55.2307587  47.8710403
   2.2829030  34.1488228  46.2416039   2.3039775  33.8829651  45.3223076
   2.3460660  33.3279266  46.7298393  82.5967712  44.2054634  35.6970863
  82.3359146  45.0686531  35.3760147  81.9505920  43.6058426  35.3240662
  72.9904251  69.9573898  30.3738117  73.3123550  70.4117126  29.5952320
  73.1367264  69.0299530  30.1875801  51.8241463  54.1867752  26.0991821
  52.4901886  54.0762749  25.4206505  51.0028534  54.2778473  25.6160488
  23.4790039  70.1306000  11.3594017  23.8022213  70.7869797  11.9765892
  22.8229847  69.6393585  11.8539295  11.3979464  59.5145798  66.3654785
  11.4924612  60.3991470  66.0121460  11.1747494  58.9760017  65.6063080
  23.7355804  29.4718761  80.1910858  23.1202488  30.1701603  80.4146881
  23.2581577  28.6633301  80.3769608  85.4832001  29.1752777  53.2865753
  86.0198898  29.0816936  52.4995346  84.7070312  28.6430454  53.1118774
  14.9811335  46.6142540  40.4817238  14.4228649  46.3209076  41.2018051
  15.2118349  45.8110352  40.0149879  74.7715836  26.6302872  59.1909103
  75.6240463  26.2491436  58.9805031  74.2447586  26.4875984  58.4045715
  68.0923004  37.1596107  85.2186508  68.2161484  38.0536461  85.5373840
  67.2203369  37.1647263  84.8238220  79.9081650  43.0192757  19.0621548
  79.2319565  43.6793060  19.2149162  79.4751587  42.3513489  18.5305443
  83.7920914  24.0512352  44.4818687  83.0607605  24.3496113  45.0225754
  83.3879395  23.7940407  43.6531677  71.7795258  48.7551460  22.0334473
  71.1368179  48.0460052  22.0169201  71.7202148  49.1524506  21.1646194
  20.2737656  34.3246155  59.5389977  19.9311619  34.4881058  58.6602898
  20.6025372  33.4263077  59.5045776  59.5601807  22.5673046  74.3650742
  59.9237099  22.4054794  75.2356415  60.0727692  23.3001709  74.0239105
  81.4467773  27.2134495  26.5659237  81.8882523  27.8650532  27.1106644
  81.9197464  27.2366028  25.7340584  38.1859627  25.1664658  85.1220016
  38.6680183  25.5384331  85.8605728  38.2732430  25.8181953  84.4263992
  64.7785568  62.0903511   3.4737532  64.5344238  62.9959908   3.2828257
  63.9435539  61.6313934   3.5651944  30.9562969  68.1920776  76.8012161
  31.8680954  68.4545364  76.6748505  30.6292534  68.7817993  77.4805527
  41.8173218   5.3115001  36.7258568  41.8980942   6.1654468  37.1506920
  41.9545403   5.4926367  35.7960205  44.0528717  63.4777260  22.5341282
  43.8940849  64.2458038  21.9854202  44.2239876  62.7704010  21.9123249
  45.0943718  70.8923569  44.5291481  45.5739708  70.1270294  44.2121468
  44.9143105  71.4053879  43.7413597  28.6346493   2.6589839  27.4341831
  28.6788654   1.7245933  27.6371384  27.6997147   2.8636026  27.4503021
  82.5744476  13.7278662  66.1722260  82.7860870  13.3480949  65.3194580
  82.7066193  14.6686115  66.0549240  23.0040951  53.4397736  75.2919769
  22.7982616  54.3147697  75.6209869  22.7142277  52.8483925  75.9865799
  65.1249695  58.8155518  32.7133293  64.2184830  58.7846718  32.4074402
  65.1141891  59.4490700  33.4308052  42.1938591   6.2430019  78.7365646
  42.1919556   5.7812858  79.5750427  42.8787766   5.8105521  78.2265625
  40.8375816  27.5001678  13.1297331  40.6792488  28.4429836  13.1772623
  41.7889366  27.4202538  13.0606718  69.1076508  53.0661545  46.2568169
  69.3610916  52.6034966  45.4581032  68.6486206  53.8465500  45.9461517
  24.3349495  30.6588116  77.5085373  23.9869881  30.4839725  78.3829422
  23.8465385  31.4240227  77.2049942  41.6831322  56.2420616  41.2851410
  42.3868790  56.4604988  40.6741905  42.0885239  56.3052521  42.1499519
   7.6700525  48.4107895  23.0884113   6.7635198  48.6542053  23.2759705
   7.8283272  48.7400894  22.2036858  17.3873329  66.6632385  65.5517807
  17.6991081  66.8909149  66.4276733  17.0405254  67.4832687  65.2003326
  46.6616707  28.9893780  47.4920692  46.4952087  29.9086571  47.2836266
  46.1942558  28.5015926  46.8139687  62.4536514   9.8196726  26.7656536
  62.4535942  10.5684080  26.1693077  62.4922600   9.0554514  26.1905823
  61.0553055  55.2350502   1.7152438  61.7698174  55.8673973   1.7916726
  60.4893150  55.4214935   2.4643257  59.1419945  62.9951630  69.7913971
  58.3102798  62.6539345  69.4626999  59.6492538  63.1897583  69.0033340
  35.5703621  19.7514324  80.6278534  34.6472015  19.9000835  80.8325653
  35.5594978  19.0770340  79.9486618  80.2460938  42.6748123  38.4664803
  80.8726425  42.0417480  38.1159210  79.5286789  42.6778259  37.8328056
  43.0357780  71.4886551  34.5809364  43.6736794  70.7888489  34.7208748
  42.5013885  71.4879379  35.3750763  60.5159073  61.7223206  35.6377373
  61.3837929  61.4589005  35.9437103  59.9273033  61.4861145  36.3546600
  42.2348480   9.7705326  63.2446594  42.8889885   9.9600058  62.5720291
  41.4152145   9.6710472  62.7603683  50.8160744  13.3401241   4.4361143
  51.0975075  12.5053329   4.0617447  51.1039619  13.9963875   3.8015509
  26.4671440  57.4962883  15.1115217  25.9447784  58.1974640  14.7220078
  27.3688736  57.8135567  15.0619421  10.8398752  55.9915924  66.0820389
  11.6439266  55.9752007  65.5629425  10.4842720  56.8696823  65.9451599
  55.3442078  57.7239227  49.7197533  55.6391754  58.5109749  50.1777649
  56.1518478  57.2702599  49.4786339   4.0595598   3.1641133  24.1682682
   3.4276571   3.7396641  23.7373695   3.5757473   2.3536334  24.3272629
   7.0264497  61.8739586  33.6892242   7.6641197  61.1607361  33.6588287
   7.1358781  62.3288269  32.8541489   8.5258436  68.2484131  80.7590256
   8.1668911  67.3756409  80.9192047   9.0668392  68.4296494  81.5275955
  56.6856499  45.7096443   3.5422344  55.7377396  45.6908417   3.6739166
  56.8189774  45.2765121   2.6991146  29.3240280  71.4749756   6.3484092
  29.8953362  71.6165543   5.5935621  29.8940544  71.0831680   7.0100675
  80.5775909  51.2952652  73.0510788  80.1441803  50.9633026  73.8373260
  81.1092377  50.5614395  72.7427292  58.3609505  16.5992756  84.2742767
  57.4395409  16.3433514  84.2325668  58.7982788  15.8535843  84.6852722
  77.3783722  31.6592922  80.8812790  77.3650665  31.7708836  79.9306946
  77.3655853  32.5516357  81.2273941  74.6196060  55.2086639  77.6843491
  74.9550858  55.4718285  78.5413361  75.3307495  54.7001343  77.2946014
  69.2922974  15.4576902  64.3645325  69.8671570  16.1413250  64.0204239
  68.8694153  15.0878420  63.5895424  10.8757906  17.4212189  79.3554459
  10.0481586  17.8569145  79.1519089  10.6843967  16.4879799  79.2623749
  48.5971184  71.3010330  88.0503006  48.8201790  70.8759079  87.2222061
  48.0966530  72.0758591  87.7945709  44.4365540  56.4834175  75.3220520
  45.1589432  57.0884209  75.4904480  43.9620018  56.4400330  76.1521988
  83.5888977  54.1702728  54.6130562  83.0291595  53.5818825  54.1063843
  83.5517960  53.8265800  55.5056534  23.7001362   5.5861120  20.7236557
  24.0071545   6.4266419  20.3838310  24.0226784   5.5597458  21.6244907
  77.9343567  64.0399780  30.2035599  77.1884842  64.4908905  30.5992661
  78.6608887  64.6570969  30.2904396  61.6535149  19.5025654  42.2201538
  61.0890236  18.8868504  42.6875687  61.3568573  19.4568863  41.3112297
  77.9102249  61.3276138  71.6157074  78.7515488  61.5382423  71.2106857
  77.5911636  60.5701752  71.1250763  52.0625801  48.3289261  10.7737284
  52.6616898  48.7231865  11.4076529  51.6265717  49.0742226  10.3606186
  13.1857014  18.4084473  64.8588409  13.7758474  17.8098316  64.4010010
  13.6120129  19.2628574  64.7919693  33.4488640  63.4024734  18.4916000
  33.2650566  64.2986984  18.7730808  33.3007050  62.8706818  19.2735710
  16.9424992  19.8848534  72.5494690  17.1390190  20.7309437  72.9516373
  16.2929707  19.4886627  73.1303101  54.5623894  57.5649948  65.0526276
  54.8003426  57.9363556  64.2031021  55.3590889  57.6389999  65.5780106
  21.7200603   6.7027888  45.5498238  21.6836090   6.0402188  46.2396812
  21.5830917   6.2124057  44.7392731  11.1825409   6.0787225  76.3742218
  11.2698221   6.9399128  76.7828369  11.9653358   5.9912314  75.8303375
  81.1711426  69.3435059   8.6395597  81.7177353  69.8839264   8.0691004
  81.4113998  68.4435577   8.4190960  81.7574844  70.4636765  41.9810905
  81.9128418  70.5096588  41.0377007  81.6017838  71.3711700  42.2427025
  23.7480011  25.0684547  61.5897026  23.5774403  24.7174911  60.7156525
  24.6282921  25.4397869  61.5311165   4.5811520   0.7777591  60.4688377
   5.4611197   0.4047890  60.5215759   4.6304126   1.4069000  59.7491264
  75.0627823  32.7930527  36.7090416  75.1876144  31.8896370  36.9997101
  75.9326859  33.0764999  36.4276886  84.0245209  12.8721972  58.2828979
  83.2906876  12.4342413  57.8517151  84.1934891  12.3442650  59.0632668
  45.6065559  64.4280014  53.7801704  45.7031212  63.4757309  53.7898369
  45.4695206  64.6454926  52.8581352  55.1420746  48.2665176  40.3889503
  55.9929085  47.9838295  40.0536804  54.5298920  47.5969658  40.0837250
  76.4869080  33.0868187  52.2960358  77.0725250  32.4444885  51.8951645
  77.0297470  33.5330048  52.9460144  25.3605499  32.8315659  -0.0313097
  25.9616356  33.3366852  -0.5788353  25.1678200  33.4083176   0.7079092
  21.1002598  -0.0711783  16.6727982  20.2478638   0.3643000  16.6761608
  21.7342319   0.6427642  16.7406044  85.7026367  18.4328957  13.9993362
  84.7546005  18.3008232  14.0042887  85.8578033  19.0274048  13.2653666
  13.3854437  25.9432583  78.9655075  12.6150236  25.6218719  78.4971085
  13.6579781  26.7185631  78.4747391  25.2815571   1.3428019  82.7213898
  25.0045185   2.2191584  82.4540253  26.0983276   1.1940448  82.2449570
  60.9394760  38.8788567  44.4878883  61.8605995  39.0777626  44.6558228
  60.5752411  39.6974411  44.1510048  61.2025757   9.0799580  78.9743576
  61.5606117   9.6600866  78.3024292  61.6002693   8.2285194  78.7923508
   4.4181414  23.1051273  47.1545410   4.6207008  23.1815586  48.0869370
   3.9370809  23.9063396  46.9474907  46.5003891  70.6110001  39.2767563
  46.4897766  69.9805679  39.9969482  45.6488037  70.5046768  38.8528061
  83.2517776  65.5368042   4.1954064  83.6677933  65.7547226   3.3613353
  83.0156250  66.3837357   4.5737705  81.0353012  57.5153313  37.5106506
  81.5248413  57.5285339  36.6882133  80.7123642  58.4107437  37.6115608
  68.4923859  39.5160866  86.5075455  68.2988968  39.4221115  87.4402618
  69.4389496  39.6538620  86.4719849  49.4122658  63.6056976  60.4497986
  49.1484642  63.8647957  61.3326950  48.7768211  62.9360504  60.1967850
   7.4226189  61.0633850  30.7294197   7.1319351  60.7089729  29.8891048
   8.3133936  60.7293129  30.8350067  70.0297165  33.6598930  11.1713696
  69.6207886  32.8505211  11.4778490  70.9468231  33.5789680  11.4332838
  70.1061325  66.4309387  41.4633408  70.6388092  66.5961151  42.2412872
  69.2099762  66.6187286  41.7423935  52.8147087  65.9378052  61.8411942
  51.9736824  66.3176270  61.5869484  53.4229202  66.6769104  61.8351593
  49.9428940  57.9126244  23.8078442  50.8648949  58.1355286  23.6795254
  49.9414711  57.3249588  24.5634079  52.4130974  64.5858841  87.5174332
  52.4489555  64.2558899  88.4152374  52.6662636  65.5061188  87.5902023
  72.0801544  57.3126793  52.4924774  72.7139664  56.6098289  52.6357002
  72.4800034  57.8620567  51.8182869  51.5043907  10.8347769  79.0012665
  50.5766563  10.7182903  78.7964020  51.6324081  10.3496866  79.8164520
  43.2900620  69.4426422  42.0403748  43.3272934  68.7195358  41.4143028
  43.9891815  70.0350952  41.7638588  56.2611046  60.0354767  60.0840492
  56.7227020  60.6764832  60.6246681  56.8867798  59.3193512  59.9748573
  28.2610703  34.2005348  13.3533726  28.0289516  35.1130638  13.1811924
  28.7532730  34.2293053  14.1738243  45.8370857  42.5983238  30.7576809
  45.1189232  43.2224579  30.6531258  45.7999458  42.0562515  29.9696407
  64.4254990  36.8245964  54.6950073  63.5029831  36.7107506  54.9235687
  64.7962341  37.3116608  55.4309120  70.5550766  26.7180233  59.1691551
  69.9992599  27.3414268  58.7015343  70.2171402  26.7207451  60.0647163
  63.0406647  70.9384613  11.0547552  62.1457863  70.5987244  11.0563364
  63.3793221  70.7252884  11.9242945  75.1463623  30.0620193  80.4732285
  75.3262711  29.3390160  79.8722916  76.0105209  30.4052753  80.7004623
  42.6164246   2.8351243  19.3708096  42.1965981   3.1103361  20.1858158
  43.2763405   3.5077009  19.2023296  51.5170364  35.2972069   5.2749300
  51.6578827  35.5622292   6.1838622  52.3942795  35.1080742   4.9419088
  71.8780136  44.2587051  74.9471130  71.5969849  45.1134415  75.2737427
  71.0640106  43.8109055  74.7166748  18.5772419  69.4578400  32.3280411
  19.1349220  69.5098038  33.1042671  19.1516285  69.1159134  31.6429100
  56.1167030  68.3763657  43.1359863  56.0295753  68.8429565  42.3047600
  55.5701485  67.5974808  43.0318718  67.5374908  11.6884422  77.3469849
  66.6079712  11.4794502  77.4394302  67.5884552  12.6304445  77.5090561
  54.6252403   9.3888168  74.9179153  54.4070015   9.0813847  75.7977371
  55.5379791   9.1289654  74.7929459  61.1518974  25.3883381   2.0292809
  60.2614708  25.4932785   2.3644776  61.0717278  24.7309456   1.3381661
  72.3452148  18.7958488  17.3531647  71.6008911  18.9293842  17.9400082
  73.0868073  19.1884441  17.8137550  55.3312302  47.8567657  35.6765671
  55.9307060  48.5697098  35.4561768  54.4623375  48.2028313  35.4728622
  46.8094940  31.8885155  10.0490131  46.3149414  31.9053764   9.2296438
  46.7356529  32.7792091  10.3917131  78.5743256  39.7896576   3.8036435
  79.3756180  40.1728020   3.4467657  78.8400421  38.9236412   4.1129036
  57.0921822   2.3893826  60.6889496  57.5161514   2.4887216  59.8365326
  56.1596069   2.3172343  60.4856567  32.2620049  68.4163818  45.5416298
  32.8062477  67.8269043  46.0636864  32.8878517  68.9397354  45.0409737
  17.5599289  33.9047737  69.5660629  18.1242104  34.6234894  69.8511353
  16.9285660  33.7992096  70.2777328  74.9106140  57.2055779  29.3160725
  74.9940262  56.4030113  28.8011341  74.2061234  57.6924210  28.8883953
   1.0702906  56.2400513  18.1566410   1.1010249  56.7586823  17.3527069
   0.4820328  55.5135803  17.9506664  37.7768898  38.3283730   6.3925886
  37.8917618  37.5190964   5.8944831  37.5564156  38.9862366   5.7331686
  58.9088669  61.9783401  57.2754211  59.8115005  62.2545242  57.4341812
  58.9823341  61.2853394  56.6192322  79.4027481  56.6125717  58.1648293
  78.6404724  56.4974594  57.5974464  80.1459579  56.3433838  57.6250114
  52.1175346   2.3988891  20.0585575  52.0155258   2.4832449  21.0065594
  51.2890396   2.0229955  19.7610188   5.2261562   2.4534023  81.6290207
   4.8627419   1.6043557  81.8805771   5.9212232   2.2413294  81.0060120
  22.1265106  42.0938873  80.7488327  22.5230236  41.6430397  80.0033493
  21.2024708  41.8464966  80.7145004  13.0591383  47.0077782  49.4100914
  13.7589321  46.4418182  49.0841942  12.8584385  46.6635475  50.2804108
  21.1074886  42.2372894  62.8823166  20.6202412  41.4565849  63.1456032
  21.1872616  42.7519989  63.6853981  36.8628922  11.2182531  11.0554781
  36.0209312  11.5764189  10.7743120  36.6990700  10.2820072  11.1687851
  74.3345718  58.1441612  77.6268082  73.4329300  58.4616508  77.6765442
  74.2611847  57.1962585  77.7378082  29.8293190  14.7654209   3.1329918
  30.7631664  14.7807341   3.3425779  29.6355629  15.6549940   2.8374426
  77.4168930   6.2865648  22.5581455  78.3521729   6.3404751  22.3617210
  77.2515259   5.3518457  22.6813774  43.1056938  19.5162754  88.3460693
  43.8910713  18.9713173  88.2967300  43.3597679  20.2527866  88.9021530
  12.7493343   7.9154863  87.4007950  12.7226915   7.6363745  88.3160095
  13.4975557   8.5106049  87.3535690  75.6374817  53.9194298   9.6375198
  75.3391266  54.6719780  10.1482859  76.2070541  53.4349861  10.2351332
  31.9992065  44.6132393  35.0397911  31.8032227  45.3179207  35.6572418
  31.2195435  44.0581360  35.0545425  11.9400463  56.4129333  26.0355034
  11.3459749  56.5305901  26.7767639  12.0372839  57.2901115  25.6649170
  76.6231308  42.4258041  13.8209887  76.2544785  42.6083565  12.9566956
  76.7294540  43.2879601  14.2230005  23.1889534  67.8668137  74.6486206
  23.5225830  68.6591873  74.2278366  23.9595776  67.4671936  75.0519562
  82.4725723  63.3689308  23.7353287  82.4490280  62.4314728  23.5433655
  82.5238419  63.4167213  24.6899586  35.2144470  24.2608204  78.7783813
  35.7848740  24.2062969  78.0116501  35.7975426  24.5168858  79.4929886
  51.3087158  32.4267578  39.1289787  51.8771591  33.1756973  38.9495430
  50.7654724  32.7092400  39.8647270   3.3582938  19.4748363  63.7012978
   3.0549452  18.8702507  64.3785629   2.9307091  19.1714554  62.9004478
  41.8539619  51.7843628  15.2466631  41.2576447  51.6283073  15.9789791
  42.3910980  50.9933167  15.2024117  77.5681686  37.5235481  57.2646179
  78.4144287  37.4198532  57.6997261  77.1798477  38.2952232  57.6768761
  51.8222580  33.5149117  79.4802475  50.9519730  33.7250252  79.1415863
  52.2623711  33.0746918  78.7531052  85.1067429  14.1445560  23.9711227
  84.4525909  13.4799900  23.7550774  84.7054443  14.6561747  24.6735764
  22.4908848  58.1250916  68.8136444  22.7131729  59.0507126  68.7133865
  23.1726322  57.7758598  69.3876495  48.2357407   2.9520390  26.9466038
  47.8703232   2.0959082  27.1696301  48.9868469   3.0516133  27.5315437
  70.8174896  16.8569393  50.0009499  70.9355774  15.9072971  49.9792938
  71.6674805  17.1976986  50.2795753  60.1321106  29.0126190  66.5094833
  60.3598289  28.1954060  66.0661621  59.3000984  29.2749958  66.1156006
  76.1417618  57.7089882  51.7450256  75.8020020  58.5748787  51.5191383
  76.5146942  57.3774605  50.9281731  12.2576857  29.6654930  79.7689819
  11.7569675  30.4808178  79.7414780  13.1716433  29.9435730  79.7091141
   4.7442627  47.8904724  86.4128799   3.9310598  47.8100929  86.9113464
   5.2080002  48.6183472  86.8268585  71.1243591  58.6619225   4.2995310
  70.6738892  59.5036697   4.2304873  71.8240662  58.8160782   4.9342599
  70.6559982  33.3201675  44.4276848  69.8346558  33.2008629  43.9508171
  71.1794357  32.5520668  44.1990700  80.5041656  25.2198009  82.5640106
  79.8757782  24.9586639  83.2371902  80.5616531  24.4613590  81.9828949
  25.4092999   7.1345258  70.0476379  26.0695782   6.9900084  69.3698654
  25.0089626   6.2750678  70.1791534  58.3089600  11.9760971  40.8218384
  57.4447289  11.7447653  40.4815140  58.3440056  11.5653257  41.6857071
  57.8437424  52.8525620  17.3718681  58.6811218  52.6356010  16.9620438
  58.0591927  53.0018082  18.2924881  44.8275490  32.6445007  75.4213486
  45.4512215  32.4985542  76.1326599  44.0771713  32.0934677  75.6439056
   8.9899006   9.3821554   1.7959734   9.0161552   8.6892195   1.1361383
   8.7285233  10.1649141   1.3109976  81.7376480   6.8628335   2.8515003
  81.6197205   7.0665083   3.7793155  82.6486969   7.0933394   2.6696012
  43.3012657  32.7876472  88.4047928  43.4801941  31.8511219  88.3203201
  43.9725761  33.1062851  89.0081558   7.5279174  57.6292610  26.0864944
   7.3753653  58.0159416  25.2242680   8.2083311  56.9726906  25.9375515
  79.2572556  30.6393261  72.7146530  79.6149063  31.0806503  71.9442368
  80.0202789  30.2549648  73.1462708  67.9875259  33.7135353  61.0473099
  67.7437668  34.5510292  60.6530800  67.1552124  33.2594643  61.1788597
   7.3656821  58.6827164  80.8184662   7.8431292  59.4608803  81.1061096
   7.1572886  58.8553429  79.9003143  75.5277023  39.1203575  21.4511890
  74.8704147  38.6272316  21.9421425  75.0295868  39.8056602  21.0056839
  68.2516022   8.9036055  42.8497467  67.6840668   8.2199335  43.2057343
  69.0762253   8.8018780  43.3250160  32.1002083  16.6461468   8.8735723
  32.3061790  15.8607559   8.3666496  31.4009724  17.0737801   8.3791752
  67.1326752  57.6718407  27.2121220  66.6156616  56.9456825  26.8633690
  67.1940536  57.4931831  28.1504955  12.4861164  34.5016899  63.6205826
  13.0891333  35.0724831  63.1443481  12.9694958  34.2444038  64.4056778
  24.6539669  41.6509514  74.2370071  25.2004395  41.8470345  73.4759903
  25.2221832  41.1418953  74.8151245  43.8726959  44.7792091  62.0291672
  44.1164055  45.2597046  61.2379875  42.9271164  44.6527786  61.9508820
  65.9856949  53.2806587  29.7826252  66.2187729  53.0302887  30.6766167
  65.1271744  53.6956100  29.8662205   2.6096342  40.5944939  20.1581993
   3.2573044  40.7736320  20.8398628   2.8280580  39.7167511  19.8450089
   8.8475561  54.5703583  28.9826794   8.3067942  54.7133102  28.2059078
   8.2607422  54.1452522  29.6081123  52.0403519   4.7872233  45.0051308
  51.9407310   5.7330985  44.8973007  52.4680977   4.4980135  44.1991386
  81.4288940  66.5663223   8.6228104  81.5876465  65.7109909   8.2235165
  80.5546722  66.4933395   9.0057516  80.3861237  54.5869637  46.2349854
  80.5364151  55.2804413  45.5925369  80.1907806  53.8114433  45.7090187
  85.8567810   8.0623169  47.1173172  86.1966858   7.7040248  46.2973671
  86.1274033   8.9804153  47.1079292  24.4479713  19.7234898   1.1232381
  24.1687145  19.0935593   0.4588324  23.6317806  20.0477104   1.5039556
  85.1828995   0.9188387  58.2727623  84.4879608   0.3800116  57.8946762
  85.1951141   1.7082890  57.7316055  73.7153397  15.7158155  60.3978767
  73.2341843  15.2871590  61.1056747  73.4581375  16.6359539  60.4563751
  85.7773895  57.7820969   2.0681348  85.7526932  58.6918259   2.3648071
  86.1868134  57.8230476   1.2038848  71.7176590  26.9012318   7.5909319
  71.2222519  26.3170815   8.1650171  71.0561676  27.2969818   7.0234418
  73.7360535  51.9848366  25.9802513  73.4517593  51.4798012  25.2184486
  72.9278412  52.1757774  26.4562321  77.0464478  12.3899393  39.1966362
  76.7908173  11.9656134  40.0156822  77.8744049  12.8248787  39.4004631
  70.3483963  42.8622551  50.7084961  69.6094894  43.1906052  51.2207794
  70.6056824  42.0532188  51.1506386  20.6202793  45.3044853  16.0428619
  21.4590282  45.6260414  16.3735199  19.9748096  45.9225731  16.3857460
   5.3293014  48.8453789  32.8343163   5.1743565  48.0218887  32.3716240
   4.6622934  49.4410591  32.4929962  24.5250435  22.5680122  84.9839401
  24.5123634  21.7352200  84.5122070  25.1148510  22.4160500  85.7223587
  75.0637283  22.8051014  61.2374268  75.8589325  23.3185368  61.0950623
  74.3666000  23.3287392  60.8423843  56.1815224   4.9646678  28.6360817
  55.9208412   4.0720434  28.8630180  56.4186020   4.9168134  27.7099419
  79.0493851  57.8540802  77.3409958  79.6042099  58.5703506  77.6498032
  78.1588440  58.1306801  77.5570145  78.1204300  47.8036919  24.7745247
  77.8788223  48.6968231  25.0198364  78.3512497  47.8640518  23.8475361
  43.3311539  26.3147717   2.0377598  43.6553154  26.1856213   1.1464293
  42.5944977  26.9180527   1.9396487  14.3735914  50.7892418  79.9509354
  13.7914791  51.1641006  80.6118927  14.3454142  49.8464470  80.1139603
  11.7426586  34.1574059   5.3135200  12.0774403  34.1306534   4.4171734
  11.0828714  34.8507919   5.3021703  83.0082626   4.0621529  14.7208929
  82.2517929   4.3757963  15.2164898  83.7590103   4.2538004  15.2829304
  71.3123779  14.3782644  53.5148354  71.4397736  13.6677341  52.8862267
  70.3637238  14.5014639  53.5480309  86.2363663  51.2168694  44.9199371
  86.6977463  51.4482956  45.7260437  85.3930283  51.6642303  44.9897919
  60.9400520   9.1840115   7.9131517  61.8135986   8.7939157   7.9443536
  60.7058983   9.3207941   8.8311348  16.8289776  66.9474335  80.6965332
  17.3344936  67.7530289  80.5883255  17.0816975  66.6202316  81.5598450
   3.2130356  29.5796375  58.9383469   3.4948514  29.8229027  59.8201828
   3.9395523  29.8430367  58.3735237  79.9243164  54.2926292   6.9861293
  79.6192551  54.9457893   6.3564091  79.1407089  54.0522919   7.4805293
  52.3176765  38.4725075  41.1821251  51.5565186  39.0383568  41.3112717
  52.0609512  37.6342888  41.5664635  11.5179558   3.3280456  71.5221863
  11.6128979   3.9895129  72.2075195  11.6570015   2.4949181  71.9725113
  57.1513367  33.6311493  60.5069351  57.2230911  34.0957451  61.3407402
  56.2099152  33.5796318  60.3417015  83.1347275  57.6184921  21.7835484
  82.9986191  57.0458450  21.0287094  83.9725723  58.0477982  21.6105042
  66.9552002  11.3160133  14.8816881  66.6133575  11.3634748  13.9888706
  66.8750763  10.3924360  15.1200523  32.8264732  50.3720169  21.1904068
  32.9036560  50.8916168  21.9905872  32.6090813  49.4915504  21.4965973
  76.0632629  57.8552895  84.0895767  76.0204544  58.4578629  83.3470764
  75.9406662  58.4128532  84.8579025  21.5699005  47.9737244  24.9064617
  21.8961163  47.0931511  25.0919685  20.7131367  48.0063362  25.3320484
  52.0330849  22.0788784   0.1550990  52.9456940  22.3643684   0.1118207
  51.5471382  22.8663540   0.3999874  18.6647663   5.8937502  55.2907791
  19.1056023   6.6511259  55.6758461  19.2210617   5.6420445  54.5536118
  37.0513229   0.9975729  75.0805588  37.2751007   1.9165839  74.9336777
  37.8310890   0.6238453  75.4910660   3.7827845  40.2911110  52.4173737
   3.5927975  39.3622246  52.5489311   2.9912360  40.7415466  52.7119789
  21.6015282  26.4465752   8.4923992  20.8996525  26.8187008   9.0263700
  21.3978577  25.5124283   8.4463463  28.0380363  38.7950211  60.4561806
  27.2991123  38.1990776  60.3333969  28.5923328  38.6504364  59.6893158
  85.7568817  38.4892654  46.4194145  86.3179855  37.7217293  46.3086052
  86.2182007  39.1914291  45.9607391  26.9349194  31.0494576  61.6427841
  26.6437149  30.1413193  61.7247429  26.6994209  31.2967205  60.7485619
  22.0911388  60.4656143  53.3441467  22.5816174  59.6476822  53.4256973
  21.2050476  60.1910286  53.1081810  62.1716690  48.3664551  58.4589806
  61.8281097  48.2507896  59.3448830  63.1125031  48.2126160  58.5449677
  37.1441193  50.3525352  34.3857880  36.7293930  49.5509834  34.0668068
  36.6210175  50.6066589  35.1460609  18.1720657  62.7067146  36.6039963
  18.1368122  63.5320854  36.1205139  17.2764206  62.3707237  36.5699043
  42.9148331  27.2051888  67.1321106  42.5765533  27.7683773  67.8282547
  42.8262749  26.3171444  67.4781799  75.6525345  47.6175461   3.3348660
  75.5637054  46.6814804   3.5140922  75.1167908  48.0416527   4.0051966
  67.3261261  42.3434982  48.3334007  68.0113831  42.6284294  47.7288589
  67.7517548  41.6881561  48.8862114   9.4272337  27.5425014   9.0054026
   9.7992373  28.4051094   8.8216896   8.7646742  27.4177456   8.3259296
  81.8037796   7.6029191  31.4432125  81.7935486   7.6615057  32.3985634
  80.9135895   7.3395820  31.2098560  72.5536499  34.7355347  78.7085037
  71.7638245  34.5842476  79.2276611  72.9763184  33.8780746  78.6600571
  57.0644302  41.5258865  28.0980301  56.4066658  42.0389404  28.5674477
  56.7098885  40.6368713  28.0844917  81.0568008  46.7941322  13.3765097
  81.9020844  46.4794235  13.0560770  81.2227020  47.0422058  14.2859964
  74.5191803  14.9819288   3.1836462  74.8422089  15.5433531   3.8884082
  73.7686844  14.5264797   3.5651507  76.0209808  35.1162529  49.8915024
  76.3982086  34.7381439  50.6858330  76.6992264  35.7054367  49.5612373
  11.5510778  58.6496735  14.2286339  10.9096041  58.5242729  13.5293350
  11.1653576  58.2136955  14.9884844  33.5482025  29.1044331   5.9540901
  32.7687302  29.2612076   5.4211016  33.3910561  29.5977802   6.7591643
  10.6607819  62.9187508  84.3048248  10.0205231  62.2072449  84.2971420
  11.2544107  62.7145882  83.5822220  40.5625496  51.3891869  17.5745316
  41.0992432  50.6009216  17.4918728  40.0892563  51.2714157  18.3981552
  65.9089813  55.8710747  69.4942551  65.9391556  55.6621132  68.5606308
  65.0664673  55.5260468  69.7898102  52.2124481  46.0352402  75.8782806
  52.2200623  45.1223984  76.1661987  52.5957909  46.5201149  76.6091537
  65.0218277  27.1043625  59.1216583  64.9893570  27.6500816  58.3359337
  64.4787292  26.3454399  58.9087868  80.1064148  15.0552597  19.0681591
  80.6871338  14.3772268  18.7228088  80.6334000  15.8541222  19.0497303
  44.1401253  63.8247490  18.0627174  43.3550682  63.6649818  17.5388966
  44.7027092  63.0704536  17.8872929  56.3753090  37.4069672  36.6531143
  55.8937683  37.5990715  37.4577522  57.0331841  38.0999451  36.5964546
  47.6065025  63.9801483  16.5834923  47.4961052  64.1069870  17.5258064
  48.0339813  63.1273041  16.5050735  60.6069107  60.6293335  77.0655594
  60.5401001  61.5791588  76.9675522  60.2534523  60.2787399  76.2480164
  52.4356384   4.6653919  72.2058105  52.1814995   5.5837340  72.1147537
  51.6068573   4.1956201  72.2989044  83.6614151  50.8669853  65.0808716
  83.7878113  51.3450203  64.2612762  82.7113419  50.7928658  65.1708527
  53.0902634  67.8354416  49.1533012  53.3936653  67.1369171  48.5734367
  53.3200951  67.5338821  50.0322037  66.7516632  23.2015152  53.3879051
  67.3511887  22.8353443  52.7377319  65.8797760  22.9760990  53.0635109
   3.8929846  11.7064991  83.0020828   4.2868309  12.5650187  82.8469620
   3.7771566  11.6640978  83.9513016  46.5015755  15.4065504  85.4897003
  47.0150261  16.2121334  85.5500031  45.6741333  15.6790333  85.0930557
  32.7104912  71.0160446  56.7921677  32.8269424  70.4816360  56.0066261
  33.5494766  70.9562454  57.2490730  32.1593132  37.8300819  12.2624998
  32.4276581  38.0678596  11.3749828  31.4404888  37.2104912  12.1374798
  84.9236526  45.8780746   0.3488805  84.8358765  46.2148438   1.2405719
  85.0273209  44.9328918   0.4589494  56.0533485  56.7566338  14.6372976
  56.4298096  55.9190636  14.3671436  56.0772133  57.2960205  13.8469028
  24.3385563  44.8644905  27.0132389  24.2961864  44.3684540  27.8307877
  24.8516445  45.6425323  27.2314701  39.2310486  22.8213291   3.6114554
  40.0144005  23.1817799   4.0269866  39.2687645  21.8839855   3.8017139
  60.6182747  26.7559090  46.6120758  60.5803833  27.0975189  45.7187119
  61.5457497  26.7971630  46.8451385   2.6763372   1.2950487  34.4539833
   3.4213452   1.2006261  35.0475121   1.9087797   1.1594840  35.0095978
  54.5281868   2.4925981  68.3077774  54.6938667   1.5922502  68.0282135
  54.8548393   3.0311441  67.5870132  76.6795654  13.7143612  30.8064766
  76.6164017  13.8573818  29.8621311  76.5328369  14.5790024  31.1900120
  13.8117027  43.8488770  60.8058853  14.6509781  43.9101143  61.2620659
  13.6812534  44.7180138  60.4266510  76.7500000  24.1620522   3.0692885
  76.9240723  23.7084064   2.2445846  76.2500916  24.9377480   2.8150759
  48.4771500  52.8788261  77.8744431  48.9950218  52.4545631  77.1903076
  49.0822220  53.4970856  78.2841721  46.5952148  47.2889862  65.7306976
  45.7322998  47.6961060  65.6541290  46.7309227  47.1907539  66.6731262
  21.2168941  19.1108665  71.1372833  21.3273258  19.4321423  70.2424011
  21.7959347  19.6626987  71.6630478  33.9350281  46.8435249  84.1666565
  34.8220177  47.0222282  84.4789810  33.5145073  46.3809776  84.8915329
   7.1089540  69.2374115  63.3280830   6.8439808  68.7225647  64.0902863
   7.3066602  70.1046066  63.6817970  58.8400917  33.7022591  11.0829506
  59.7790718  33.8878479  11.0727406  58.5927429  33.7691193  12.0052204
  32.6466179  37.5017929  86.5188065  32.3030548  37.1492386  85.6978989
  33.3960762  38.0356712  86.2551422  85.6509476  50.6384735  66.9638290
  85.0773697  50.7673111  66.2084198  86.3360901  50.0500259  66.6467361
   3.9204512   2.4085615  40.7039795   4.0443559   2.8975565  41.5174713
   4.2543883   2.9906340  40.0214043  13.7025566  39.6496429   2.7126718
  14.4868135  39.8910866   3.2054982  14.0141134  39.0249901   2.0577118
  14.2021255  57.0693932  13.4792528  13.2998285  57.1581993  13.7861824
  14.4891214  57.9678535  13.3160486  78.9657669  54.4687309  40.0605278
  79.2270660  53.5492401  40.0105591  78.9756699  54.7702446  39.1521072
  78.2147369  31.7881374  23.8088570  77.4663162  32.1602669  23.3423634
  78.9663467  31.9812031  23.2484703  71.9844971  71.2434006   4.1982989
  71.7434311  72.1685257   4.1507497  72.0453110  71.0596161   5.1357183
  71.1210785  17.9370575  29.5438251  71.1471252  18.5500679  28.8091354
  71.4325943  18.4464645  30.2919559  29.4970875  21.1731930   6.0636487
  30.0531464  20.3974304   5.9913845  28.6621094  20.8396378   6.3919539
  48.0405159  55.9711723  27.3129807  47.9268265  55.0273933  27.4251671
  47.4607468  56.1974831  26.5857372  63.1885529   8.1150026  11.1348324
  62.5048981   7.4848132  11.3622284  63.2068291   8.1136417  10.1778078
  17.9052505  15.3704853  61.2681313  18.0169868  14.6381845  61.8743324
  18.7642670  15.7918701  61.2406425  71.1044388  40.5807533  11.9566822
  70.4941101  40.1134758  12.5271082  71.9514236  40.1664619  12.1216278
  86.3417969  32.3584213   1.7679638  86.9753113  31.7053108   2.0651860
  85.5063553  31.8915176   1.7513424  48.8693466  40.0146675  18.3006878
  49.3946190  40.7763367  18.5459995  49.2885323  39.2801781  18.7490654
  47.4136620   1.2734379  52.5838203  47.8822632   0.8274867  53.2893524
  46.8270988   1.8819782  53.0331039  45.1555634  68.6428604  46.6475716
  44.2885361  69.0420456  46.7193451  45.7651672  69.3671646  46.7889633
  10.5961657  60.3301010  10.8780584   9.9216318  60.2348099  10.2056322
  11.2319527  59.6429176  10.6786060  67.8746948  18.4733448  65.8670731
  67.3805542  17.7110825  65.5653839  67.3831635  18.7933559  66.6235199
  55.0653343  22.1130428   0.7928010  55.2359734  21.1775475   0.6834357
  55.8214798  22.4389744   1.2809033  60.0516930   6.0298314  47.7712479
  60.8062897   5.8425632  47.2129021  59.4076004   5.3622236  47.5352936
  48.2705727  32.5660286  15.7663307  47.7677803  32.3144379  16.5410156
  47.8853989  33.3977737  15.4905243  44.3312531  16.3449173  84.0836334
  44.4200172  15.7304554  83.3550797  44.4421959  17.2076778  83.6841812
  56.2320633  29.3915310  34.4881096  56.1958046  28.8094196  33.7291222
  56.2149277  28.8027153  35.2425842  45.2457809  45.8135452  24.6419353
  44.7429008  46.6040344  24.8380756  45.2727966  45.3351097  25.4705505
  22.1096821  64.7424698  15.8676414  22.6148796  63.9298935  15.8407097
  21.3926773  64.5993042  15.2498703  11.3097105  28.6602669   0.7591166
  10.4276037  28.5031471   1.0959144  11.5275879  27.8626041   0.2769369
  50.6866722  60.2171173  40.6784630  50.9564629  59.4132881  41.1226540
  49.7336235  60.1500626  40.6198502  42.9332123  17.4340496  10.4037066
  42.9326324  18.3510685  10.6781301  42.5831642  16.9583950  11.1569986
  74.0618973   8.9414015  66.1536026  74.2247543   9.8844995  66.1369476
  73.1292419   8.8558693  65.9559631   5.3017802  40.0905762  21.3524609
   4.7996573  39.2810516  21.4461498   5.8785086  40.1044502  22.1162815
   5.3402128  55.8787422   1.2598548   5.7629313  55.0210991   1.3044777
   5.9011850  56.4498558   1.7846140  66.2902374   0.1712700  66.9488068
  66.4611282  -0.1044189  66.0482407  65.3399963   0.1053493  67.0432434
  78.3231964  35.2231255  45.5747299  78.5597458  36.1173172  45.8211136
  78.6211548  34.6856995  46.3086395  37.1997223  56.4739723  30.1472816
  37.5247841  56.0614929  30.9475479  36.2796974  56.6629181  30.3318958
  21.0733242  26.3736439   4.8730307  20.6964474  25.5796700   5.2522407
  21.4359818  26.0895176   4.0339932  12.7219582  18.4916325  16.9762611
  12.3668966  17.6306343  16.7552471  13.5475540  18.5411301  16.4944172
  77.5256348  57.8645630  54.0325470  77.7849960  58.7797089  53.9254456
  77.1652832  57.6165352  53.1811600  67.0565262  42.2266502  32.1885490
  67.4338684  41.4073677  32.5088959  66.1473618  42.0078239  31.9841728
  83.4864426  38.2141647  43.0700798  82.9438477  38.2403412  42.2819557
  83.9491119  37.3780441  43.0146675  31.1954479  14.2473812  65.8899841
  31.5221920  14.6126032  65.0677414  30.4924316  13.6538973  65.6258316
  72.4287796  31.9567432   4.3408875  71.5882111  31.5035820   4.4065771
  72.9833908  31.5284405   4.9929609  83.5894394  27.8662643  61.6889725
  83.2730789  28.6938343  61.3266449  82.8006134  27.4266434  62.0063438
  71.8809052  33.4296227  53.5233955  72.7616730  33.2735481  53.8641739
  71.9860764  33.4149857  52.5721054  80.3804016  31.4919224  22.0829372
  81.2083664  31.3299770  21.6307354  80.0079880  32.2519608  21.6358604
  59.7935066  60.8715134  52.7429466  60.6620293  61.0325127  53.1117020
  59.6799202  61.5602951  52.0880356  10.3745470  51.8496361  18.1877956
   9.9328156  52.3929901  17.5352077  10.5512333  51.0258064  17.7335720
  19.5335979  43.3956223  55.3967934  19.7804966  43.2837677  54.4787712
  20.0888767  44.1101456  55.7088051  22.9861717  24.8654480  81.3881149
  22.1663380  25.3564358  81.4431992  23.3310928  24.8742847  82.2809677
  69.4656448  70.2907104  78.1750488  70.1879044  69.6831131  78.3343964
  68.9287186  70.2371292  78.9656677  73.0454483  31.3855801   6.9381371
  72.5421982  30.8927441   7.5862765  73.2373886  32.2193146   7.3674088
  33.5292206   3.6278374  77.8468781  33.6567650   2.7271879  78.1448669
  34.3674164   4.0574889  78.0173492  17.6896801  24.8094482  87.2444000
  18.1383743  23.9683723  87.3309708  17.1946373  24.7339706  86.4286423
  81.5159454  59.8680916  45.9350433  80.7013397  59.5092087  46.2869606
  82.0056610  59.1019859  45.6358833   8.7417593  57.6516151  38.5066528
   9.3157864  56.8872528  38.5564308   7.9649863  57.3380394  38.0434837
  35.4121246   8.1304846  20.3775978  34.5395775   8.3717546  20.6885300
  35.9395370   8.0619984  21.1734486  44.2188530  45.7198105  44.6926422
  44.0130119  44.9081078  45.1563225  43.6234818  46.3681030  45.0687790
  28.5614452  59.5370674  20.9034042  28.1694946  59.0011330  21.5928802
  28.7277565  58.9230652  20.1881618  22.8193512   7.1738238  31.6043110
  22.6587543   7.6816936  30.8090057  22.2266598   6.4254541  31.5343647
  79.9510422  45.2275658   0.5776576  80.2214050  46.1398430   0.4733231
  79.8083725  45.1261673   1.5187190  68.9712601  52.4666100  25.6896725
  68.3893204  51.7075233  25.6527004  69.5539780  52.2859764  26.4272652
  78.7228165  67.0189209   1.3532364  78.7656250  66.6431656   0.4739127
  78.6775208  66.2607269   1.9357467  20.9307308  21.3497906  82.7155685
  20.6307278  22.1098328  82.2170105  21.2518749  20.7394829  82.0517807
  82.1703949  50.7173119  76.4230423  82.3949966  51.6439095  76.5078735
  81.3578568  50.7131653  75.9170761  85.4352722  63.2473068  17.0233574
  86.3529663  62.9854622  17.0975571  85.4671173  64.1923370  16.8745880
  69.5083389   6.5944905  69.6572189  70.2525864   7.1945648  69.7045135
  69.0544815   6.7095461  70.4920883  33.2364883  53.1389503  57.5540085
  32.9082947  54.0174370  57.7457886  34.1416550  53.1482124  57.8651657
  34.4645233  18.9021378  88.4806442  34.1278763  18.2536278  89.0989761
  34.9204483  18.3854904  87.8162308  16.7580528  44.7003288  56.1697540
  17.1330833  44.7140541  57.0503159  17.4594402  44.3572998  55.6160240
  73.5805664  32.4773369  30.4681339  74.3778687  32.2536278  29.9880276
  72.9172440  32.5967331  29.7884483  25.9811440  64.6764984  51.2575264
  26.0245571  64.5939102  52.2101669  25.5465336  65.5163956  51.1094856
  34.5975266  22.2093678  75.5451126  33.7513084  21.7664490  75.4821091
  35.2015572  21.6409054  75.0673752  61.6489449  65.8109131  57.8995705
  60.8501472  66.3332367  57.9726295  61.7082024  65.5927124  56.9694595
  34.1159286   2.8404059   1.1286879  34.0244522   3.6716259   0.6629217
  35.0538826   2.7664843   1.3047789  57.8343658  62.3824615  48.3453941
  58.3625069  62.9791832  47.8150864  58.1800346  61.5129700  48.1435776
  67.1083298  43.8829842  11.7317896  67.8820953  43.4312134  11.3950119
  67.4552078  44.5156822  12.3607635  50.3665352  69.5285873  21.7449265
  50.0320320  69.0733948  22.5176735  50.6403313  70.3856430  22.0716190
  19.9102116   9.9109831   4.9530396  19.9105778   8.9568024   5.0290127
  19.7153187  10.0777512   4.0308480  69.9354095  21.0582161  23.0585289
  70.0089264  21.8592949  23.5772781  70.7307358  21.0438175  22.5261002
  13.2163267  46.1212730  42.4961815  13.1748848  47.0285530  42.7984352
  13.4180670  45.6155319  43.2834282  44.9088707  66.2228928  33.8987198
  45.8524017  66.3802109  33.9338760  44.7540932  65.8915863  33.0141220
  64.5751495  71.6012497  62.1573982  63.9347191  71.4178162  62.8447380
  64.3602982  70.9832458  61.4587288  18.7638264  31.5093956  69.1746902
  18.1290550  30.8424149  68.9130936  18.2512074  32.3150520  69.2408218
  34.2793884  44.7107010  41.7336617  35.2314835  44.6126366  41.7450371
  33.9610367  43.9094925  41.3177986  68.6753769  56.8509254  61.0881500
  69.0159836  57.2680473  60.2968063  69.4528503  56.5209351  61.5385628
   6.0666447  23.0135937  21.5770397   5.5456595  23.2252502  22.3516426
   6.8842387  22.6601543  21.9275436   7.4978008  70.5811615  11.7750626
   7.7751870  69.8226395  12.2888021   8.2753115  71.1377029  11.7307243
  20.6225758  14.6493664  23.0221443  21.5245361  14.9110727  22.8371868
  20.1040020  15.4336052  22.8424702  48.6779289  45.5907631  39.1292534
  49.1559677  44.8329430  38.7924690  47.7578545  45.3880730  38.9601059
  53.4137039  45.0409813  69.6430435  52.6644707  44.7553139  70.1658096
  53.0409241  45.2571259  68.7883224   5.0605869  36.5538101  57.4522171
   5.5271435  35.8211975  57.8545113   5.0674543  36.3567734  56.5155449
  22.1411247  20.7525749   2.1484089  21.3240299  20.9592075   1.6946559
  22.3048058  21.5135822   2.7054622  81.4520111  38.2043419  29.5467472
  81.4913406  38.1675911  30.5024319  81.0263138  39.0402985  29.3565197
  62.0720482  32.1259689  71.1291199  61.3286591  31.6126976  71.4456024
  62.1972466  32.8019714  71.7951431  71.1532669  59.4982033  69.8202820
  71.8979645  60.0922089  69.9141922  70.6946030  59.5547333  70.6585312
  52.5042076  29.6745853  38.4100075  52.1190414  30.3798695  38.9300575
  53.4334335  29.6878834  38.6393394  63.5523262  30.2661018   4.0355453
  63.0636864  31.0309944   3.7315700  63.3067436  30.1753826   4.9562473
   4.1837940   4.8536406  12.8418007   3.6056075   5.4772935  13.2811060
   5.0634241   5.1002045  13.1276131  17.4788857   6.0277653  71.7212677
  17.5469303   5.3150482  72.3565903  18.3862381   6.2600555  71.5238190
  46.1524200  61.6522827  49.2565041  45.3027420  61.8462181  49.6523209
  46.2527618  60.7056274  49.3565254  60.2321854  68.5576324  18.8575687
  60.1292953  68.9011917  19.7450466  59.9468269  69.2730255  18.2892208
  47.1101379  56.3003845  24.5879669  47.0306892  57.1860542  24.2336960
  46.2233734  55.9431038  24.5407677   0.8545864  41.4849663  73.8161392
   0.9837772  41.1692924  74.7105103   0.4503898  40.7480507  73.3580933
  73.9522552   6.5885258   5.1193252  73.7694550   7.3916011   5.6070614
  73.9171219   6.8533010   4.2001452  38.7506180  48.9476395  85.7522049
  38.9600983  49.8438759  86.0150986  39.5296135  48.4418602  85.9836960
  62.9228592  30.7661171  87.8662949  62.0045776  30.6452370  87.6246796
  63.0105629  31.7083263  88.0104446  78.3512192  44.5059280  75.2278061
  77.5973892  44.2331085  75.7508240  78.5530319  43.7449417  74.6833801
  21.4403019  33.8442497  13.3342733  21.5165215  34.5437126  13.9832525
  22.3314571  33.7236137  13.0063686  44.4893532  29.6124821  85.4681168
  44.3560143  28.7572994  85.0593185  43.8122368  29.6636505  86.1427536
   1.2981101  24.5582371  15.6229706   1.3394712  25.5113297  15.7013054
   0.6426435  24.4020157  14.9431248  55.3527565  12.4137239  79.1021652
  54.7425728  12.2966509  78.3740158  55.9147606  11.6395254  79.0705414
  51.8100624  33.3521957  83.9988251  52.4441757  33.1263924  83.3182755
  52.2584229  34.0045319  84.5370331  46.6380386  38.5517426  14.4036341
  47.0206490  38.1521683  13.6224918  45.8623161  39.0112267  14.0821342
  28.6029873  15.4302702  78.5871048  29.5282230  15.2660828  78.7693405
  28.2926559  15.9218655  79.3475342  72.4876785  17.1705532  52.8420219
  73.1770859  17.8341789  52.8656044  72.8801956  16.4339828  52.3733711
  17.0050716   0.1092775  32.1235733  17.6045437   0.8542247  32.1673698
  17.5457153  -0.6469551  32.3517151  19.1405678  40.8627777   3.6517701
  19.4210644  40.1271439   3.1073437  19.8588219  41.4926567   3.5918336
  28.9888287  29.0056934  79.9792480  28.2011700  29.5113449  80.1796036
  28.7774410  28.5446720  79.1674576   3.0924819  59.6859932  14.5376549
   3.2761786  59.7609901  13.6012449   3.4308665  60.4984856  14.9139366
  86.6186676  61.0864296  77.1118546  86.1252518  61.6431046  76.5094604
  86.7378769  61.6260185  77.8934326  22.2414398  61.5038834  26.9278240
  21.7865753  61.7758331  27.7249260  22.1204433  60.5549316  26.8949184
  55.6375313  45.8439178  37.1480751  55.6023788  46.7134781  36.7494965
  54.7226486  45.5674362  37.2007675  83.5023651  28.4970322  77.9847107
  84.1331711  28.7492847  77.3104019  84.0344391  28.3458824  78.7659149
  44.6116905   7.4198699  84.2369080  44.5489998   8.1783171  83.6563416
  43.7783356   7.4090810  84.7076874  45.7744827  45.8333855  54.8379250
  46.6973953  45.6173592  54.9713287  45.7010880  46.0008698  53.8983574
  46.6067390  61.6312675  75.8033295  47.0099030  61.7389832  76.6647720
  46.9131660  60.7764397  75.5006714  75.9896774  16.3297653  77.6832047
  76.7378998  16.6057854  77.1538544  75.2619553  16.2827473  77.0631714
  76.3627090  30.0894871  25.6451855  77.0033722  30.5223732  25.0809174
  76.8859253  29.5175552  26.2067661  68.7454605  12.6683798  59.3307076
  69.5009918  13.2195692  59.5346680  68.6905823  12.6812477  58.3751678
  86.7161636  23.4394054  45.0606537  86.6735077  23.2486839  45.9976883
  85.8051605  23.5812244  44.8033791   3.7462001  36.9667168   7.1559763
   4.4115844  36.3778000   7.5118899   3.7789237  36.8215294   6.2104173
  68.0056915  61.1929207  67.2421417  68.4645691  60.3541145  67.2876511
  68.4166641  61.7279091  67.9211960   4.4623151  48.6712303  36.8950920
   4.8366194  47.9574127  37.4114189   3.7330527  48.9932404  37.4249191
   3.9923651   8.6730680  22.1358948   4.3414106   8.7934446  23.0190182
   3.1020343   8.3491459  22.2723389  62.0844955   3.7954111  69.3799667
  61.7433701   4.6850505  69.2882767  62.9968491   3.9147365  69.6437988
   0.3847642  52.7663078  56.4176178   0.8271690  52.2437134  57.0865021
  -0.5175328  52.4468231  56.4220390  59.3361053  10.3753223  32.7405510
  59.3638649   9.4319839  32.9004669  58.4402733  10.6295481  32.9620972
  65.4119873  34.3112984  40.5601425  65.8179779  34.5891342  41.3812485
  64.8116074  33.6106606  40.8148575  84.4016113  24.6183510  61.0344505
  84.2287445  25.1337318  60.2465858  84.6122055  23.7438374  60.7071762
  58.0192719  31.7947598  86.1449661  58.8087578  31.7725086  86.6857529
  57.5060539  32.5204964  86.5001297  10.6333189  29.6443787   7.8163729
  10.1155300  30.2859688   7.3300714  11.0390720  30.1488914   8.5214005
  52.9904137  57.6979980  48.0360527  53.6542244  57.9564247  48.6754303
  53.3719978  56.9443245  47.5859413  17.5104294  20.0657787   8.6409702
  18.2870770  19.5089169   8.6953335  17.2267685  20.1705227   9.5491533
   8.4088955  34.1044502  60.4966545   7.7454615  34.5296211  61.0400848
   9.2343502  34.5054588  60.7687721  11.8157587  55.3305779  14.4929142
  11.2288876  55.7747154  15.1049232  11.8498898  54.4269524  14.8068047
  16.5970535  20.6186295   2.6271265  17.3609848  20.0994701   2.8783553
  16.0569458  20.0173302   2.1143374  58.0907593  40.2256126  59.0745468
  57.8705635  39.8476334  58.2231522  58.2289009  41.1556549  58.8952026
  46.5982704  67.5908051  25.9154282  47.1520767  66.8246460  25.7653255
  46.6963768  68.1164856  25.1215363  47.5695152  48.3460464  87.9689102
  47.3038368  47.5336266  87.5380783  47.8448639  48.9180908  87.2525482
  21.6209774  40.1827393  17.1011906  21.3926792  39.3454475  16.6973953
  21.2942410  40.8412819  16.4881668  14.8790140  69.3371735   5.1089602
  14.8103161  68.4620972   5.4907370  15.5996046  69.7501755   5.5847812
   6.6471796  11.2899876  68.4814911   6.6501703  11.9227486  67.7632751
   7.2416368  10.5974293  68.1930161  70.1709747  64.7749100  85.1836090
  70.6177521  65.0523453  84.3838272  69.8874588  63.8790550  85.0011215
  32.0105476   1.7247101  18.7928791  31.8987370   2.5129101  19.3243580
  32.8328934   1.8666508  18.3240166   9.5918398  36.7689247  47.0975571
   9.3424540  35.8654137  46.9033737   8.8588886  37.1156425  47.6062813
  52.1569214  53.8377228  83.3399811  52.7648201  54.5062485  83.0241318
  51.4584274  53.8208275  82.6857224  69.8466263  21.9010830   6.0126796
  70.6160431  21.3366261   5.9377775  69.3488464  21.5319080   6.7421708
  74.2961426  56.6289902  80.2730865  73.9495316  57.4419899  79.9054947
  73.7694778  56.4772911  81.0578461   3.7211649  22.2848015  73.2954254
   4.6265683  22.1972446  73.5934372   3.5672569  23.2292366  73.2712021
  79.1748352  23.8746433  47.5548325  78.7483978  24.7239304  47.4403915
  79.5043488  23.8912315  48.4533730  69.0597153  60.7525406  30.0534172
  69.4346390  61.2448006  30.7837200  68.4071960  60.1817703  30.4592133
  24.7003231  64.4940186  66.2670135  25.1268692  64.9995422  65.5751038
  23.9229431  64.1239395  65.8487396  45.3265381  38.9590225  32.8524399
  45.7572670  39.1967621  33.6735268  45.5340042  38.0322762  32.7327232
  65.7858810  55.2386284  89.3035507  66.7379303  55.3355980  89.3243103
  65.5018005  55.8152847  88.5943298  38.9323425  65.5179443  23.2544022
  38.4479790  66.3435135  23.2470932  39.8079643  65.7512436  22.9460411
  12.7703924  45.8754082  64.1422653  13.4468327  45.4476547  64.6673279
  12.2179956  45.1576576  63.8325500  31.8777962  52.0488281  55.3494034
  32.1579132  52.5181084  56.1352425  31.9318466  51.1240997  55.5906181
  36.6789284  49.5490456  87.3120651  36.7867279  50.1489220  88.0501480
  37.5555496  49.4729538  86.9352646  81.7907104  19.2476997   3.9937158
  81.5154495  18.8268185   4.8081627  82.4911652  18.6874695   3.6594434
  48.6771851  45.2477417  74.2741165  47.7367516  45.4250946  74.2930603
  49.0810623  46.0656891  74.5640793   8.2619209  31.8769569  38.1613159
   7.3494077  31.6667233  37.9629402   8.3920670  31.5594139  39.0548820
  30.7875328  26.2775307   8.5941515  31.1712151  26.5598545   7.7639031
  29.9983177  26.8111477   8.6870213   1.9028301  51.3820839  29.5595551
   2.5481424  50.8172035  29.1344528   1.3165091  50.7766495  30.0133266
  42.7655678  55.2783546  60.3116951  41.9254189  54.8558311  60.4901848
  43.1163445  54.8048210  59.5574036  73.0018921  10.3458052  60.0196724
  73.6891251  10.2779894  60.6825027  73.3434296  10.9747171  59.3840218
  77.9040146  52.4177475  59.5593033  78.6223450  51.7854614  59.5381966
  77.1341095  51.8979492  59.7901497  63.1692734  42.7942162   1.0678170
  63.6661339  42.2108498   1.6414394  62.3981895  42.2849731   0.8181506
  61.2951088  41.3022690  75.8039856  61.0834656  40.5162201  76.3075409
  60.8119392  42.0037613  76.2406616  82.1412659  54.9184685  40.6685448
  82.2831268  55.6861229  40.1146431  81.2143173  54.9606819  40.9035454
  36.7458572  69.8490524  15.7908669  36.6217155  70.6713638  16.2648220
  37.6855316  69.6771317  15.8515625  42.6065941  10.0924902  70.9216156
  42.5263519   9.7532635  70.0301437  41.9532700   9.6047993  71.4231720
  35.7259560  39.8923759  40.9028778  35.4465408  39.7925186  39.9928284
  36.5685387  39.4402084  40.9457130  40.4904594  23.1312561   0.9675105
  40.0882797  22.6460190   0.2470736  40.1103859  22.7463036   1.7571859
  13.3786087  17.4384422   9.4966288  12.4419918  17.3622589   9.6787758
  13.4662199  18.2740078   9.0379524  61.6286659  11.0195665  72.7067032
  61.4262047  11.7824268  73.2482605  61.2053757  11.2022161  71.8678360
  20.1050625  46.3398628  82.3171616  19.7876644  47.1026611  82.8005142
  20.7285061  46.6988258  81.6857376  50.1174011  11.2430325  56.2619781
  50.6332436  10.5304050  56.6392021  50.7498779  11.7566080  55.7595367
   8.5518799  59.2582970  47.7459793   7.8480268  58.6112289  47.7920799
   8.2745457  59.8653946  47.0598679  57.9454193  40.3902397  48.1934471
  57.0449715  40.2345047  48.4783592  58.3722763  39.5370483  48.2714767
  83.4704895  46.6873817  10.7542591  83.1776199  46.7491417   9.8450575
  82.8880463  46.0390053  11.1499844  79.7720947  25.7482033  33.5855827
  80.0189438  25.2363396  32.8153305  79.0212402  26.2673531  33.2975960
  32.6950150  54.2368050  74.4565964  32.2251244  53.5939636  74.9878082
  32.0063286  54.7165909  73.9964371  13.9662323   2.2282784  57.7233429
  14.0588531   2.2455883  58.6758957  13.6130285   3.0897877  57.5013504
  78.2504349  67.4198837  31.7778683  78.9861603  67.2274704  31.1965637
  77.9177856  66.5602036  32.0357971  68.9500885   0.0204774  14.2654781
  69.0536346  -0.1237822  15.2060623  69.6558228   0.6253535  14.0368137
  53.7834206  50.8377953  80.2939072  53.3411674  51.6226692  79.9704590
  54.6793938  51.1238480  80.4717712  20.5802746  40.3119431  75.0973816
  21.3325787  40.8651085  75.3078156  19.8758984  40.6436081  75.6542358
  82.3271790  27.3581886  72.6772385  82.3568802  28.3065357  72.8036652
  82.1947403  27.0033875  73.5563278  40.4912109  37.3551331  44.7539215
  39.7313728  37.1881905  44.1962395  40.4652023  38.2977562  44.9182816
  20.8712025  71.2092133  87.5572357  21.0904808  71.1149521  86.6302719
  21.3580666  70.5084534  87.9909821  51.9923553  57.0105362  79.3694153
  52.3719292  57.4645844  80.1217422  52.7018166  56.9756317  78.7277908
   5.0230083  63.9117317  39.0903854   5.7333965  64.2367859  38.5372887
   4.2611585  63.8863106  38.5114479  68.7869263  15.1116228  44.6262589
  69.3598862  15.8636599  44.4766273  69.2443771  14.5893583  45.2852058
   8.8282413  68.9376907  52.0599403   8.4438391  69.6714630  51.5803108
   9.0345716  69.2972794  52.9226990  41.0178070  69.5989380  65.3230515
  41.8031349  69.9775848  65.7181702  40.7403755  68.9232788  65.9417191
   3.6977160  34.2000351  13.1048594   3.4417946  34.1595001  14.0263214
   3.3333633  35.0277710  12.7912779  53.2565308  71.3405151  19.2386379
  52.6256332  70.9232025  18.6520824  53.4522171  72.1797409  18.8219337
  80.7008514  24.0411854  31.2744102  81.6060410  24.2367935  31.0323448
  80.7189560  23.1241436  31.5481586   1.5531254  26.8142643  40.2830048
   0.6713287  26.4866371  40.4599991   2.1247888  26.2654514  40.8198814
  78.5423889   0.0423572  47.7581482  78.6846313   0.3085546  48.6665192
  79.3677597   0.2441611  47.3173790  27.5023956  33.8999634   2.6022010
  26.6210842  34.0515099   2.9436040  27.6529255  32.9640083   2.7347200
  86.1367569  17.4002686  58.7345657  86.9228668  17.8050575  58.3679428
  85.9495316  16.6668472  58.1486740  63.3355789  44.5082436   3.2378361
  62.8390274  45.2023125   2.8043189  63.5566902  43.8971519   2.5350487
  56.3716660  60.3682861  36.4281845  56.9808769  60.6136780  35.7318573
  55.7684593  61.1088753  36.4906769  82.3327179  49.2585487  68.8916779
  81.4747238  49.6685371  68.7822189  82.3570328  48.5722160  68.2249069
  39.8985100  43.0413818  84.9895172  39.1436157  43.3690948  85.4783630
  40.6569138  43.3908386  85.4574127  16.6980076  52.1253128  65.0649033
  16.8782597  52.4787636  65.9360046  17.1475143  52.7221031  64.4665604
   7.3671722  68.6496429  13.6384563   7.8795590  68.1621094  14.2834435
   6.5492921  68.8578033  14.0900879   9.2034693  14.2693920   9.8239336
   8.5442152  13.6402102   9.5311079  10.0103970  13.7585039   9.8879023
  57.6239471  39.0861740  42.5777283  56.9312820  38.5470772  42.1958694
  57.1958809  39.5531807  43.2952919  22.3337116  54.5833778  86.3494492
  22.0259933  54.0479660  87.0808029  23.2870274  54.5019073  86.3774414
  29.9363575   3.9921472  64.0963516  30.8647671   4.1661911  63.9414406
  29.7416725   3.2290976  63.5522156  54.4956970  46.1676826  80.5465851
  55.3470001  45.9770622  80.9405136  53.8600464  45.9164848  81.2167206
  66.0703583  29.0059547  54.1893806  65.9955139  29.9484310  54.3389435
  66.8805618  28.7565041  54.6338806   2.6104391  43.4500389  45.4739075
   2.8917880  43.2255592  44.5869560   3.3822072  43.8482857  45.8764076
  37.3592377  54.1004791  21.5380650  37.2767143  54.5094986  22.3995285
  38.2592049  54.2860756  21.2700272  52.3345184  22.7059059  63.2853928
  51.9818420  22.0076122  62.7338181  52.8337173  23.2577076  62.6832771
   2.2941599  44.2199211  81.6401596   2.4098630  44.8293953  80.9111938
   1.4223808  44.4182205  81.9820786  79.5437622  55.1543427  65.6214447
  79.8928604  55.2131882  64.7321243  79.9856186  55.8563423  66.0991364
  43.1742516   2.1737552  83.9048843  43.9623528   1.6800067  84.1314697
  42.5610161   1.5122632  83.5845642  77.5842590  43.8014946  84.2322540
  77.1559677  44.4955254  83.7311401  77.1810226  43.8482208  85.0991135
  77.4283295  49.7017212  66.5728607  76.8260345  49.6621056  67.3157654
  76.9284134  50.1367493  65.8821640  83.4078369  41.7842636  15.4888544
  82.9152222  41.0238075  15.7975035  83.4018173  41.7025681  14.5351658
  75.5543060  46.9413223  36.1624718  75.3052750  46.7489510  37.0664673
  75.4470367  46.1089401  35.7021790  65.4071426   6.5305605  69.0854111
  65.0174332   5.9741702  69.7597885  65.7941971   5.9159102  68.4620132
  14.6954784  61.2107925  50.4824333  14.9301100  62.1306038  50.6054306
  15.3758030  60.7255745  50.9492912  53.1424103  68.7353973  59.1404991
  53.2082901  69.4206085  59.8056107  53.5364265  69.1219940  58.3584938
   4.9281263  48.9696541  63.3785095   4.7124372  49.3451805  62.5248756
   4.6308594  49.6244583  64.0102463  53.0293541  32.3081017  23.5015488
  52.8551445  32.5765305  22.5994244  52.3070221  31.7192307  23.7199516
  75.2511597  43.6062241  38.8336029  74.4204330  44.0091324  39.0861549
  75.9126968  44.0931473  39.3250351  66.3381119  30.4923458  31.9558525
  67.2602005  30.5371017  32.2087936  65.9639435  31.3163528  32.2676926
  37.6456795  67.8686829  21.7846279  37.4639587  67.3582306  20.9955444
  38.3195877  68.4931259  21.5160255  25.9480343   2.6965315  79.5829773
  25.7013569   3.2445860  80.3279724  25.1325016   2.5704556  79.0979538
  72.8670349  62.2257462  44.0281715  71.9314041  62.0362091  43.9581451
  73.1760941  62.2442970  43.1224289  53.3142281  55.5019913   8.4621801
  53.9170990  54.7704163   8.3295927  53.2308655  55.9034348   7.5972371
  45.5360260  69.8554077  21.2536659  45.1002922  69.6491776  20.4267235
  45.6866455  70.7999344  21.2159863  80.9316788  60.8555565  35.8238258
  80.1564178  60.4196053  36.1775970  81.4730148  61.0413895  36.5910645
  83.4934311  55.1385803  20.6691589  83.9444275  55.6913147  20.0309429
  83.5691681  54.2526779  20.3146572  78.8707581  33.2598228  20.1886749
  78.8581085  32.5047569  19.6005020  77.9549942  33.5317841  20.2490253
  44.6784935  29.7743263  24.1369381  44.1897774  30.5762215  24.3222771
  44.0159760  29.0834751  24.1420364  39.1363335   4.4208994  29.6617851
  38.4332962   4.0814438  30.2156277  39.8586388   4.5881295  30.2672138
   7.8522501  55.9444809  66.1897583   7.8042946  56.7948303  66.6266098
   8.7715311  55.8559952  65.9381104  54.4764290  59.0671959  43.6172791
  54.8773651  59.3941803  44.4226112  53.6062317  58.7722397  43.8855896
  48.3998909  52.5876770  65.9276428  48.4035454  51.6989937  65.5720291
  47.7290764  52.5697594  66.6102219  65.8746796  46.5792618  14.4312716
  65.6534653  47.3672714  13.9349499  66.7613525  46.3579254  14.1465778
   2.3805189  43.4942169  86.4890060   2.0759401  42.6244392  86.7477570
   1.5784558  43.9874229  86.3167419  12.7674742  43.6985054  26.5792961
  12.4301825  43.4116859  27.4279442  12.0813141  44.2661324  26.2282772
  77.0065231   1.3449929  27.6851826  77.3204346   1.9414637  28.3648224
  76.7061996   0.5727027  28.1643543  64.0384369  32.7791519  49.3224907
  63.7674751  33.2780838  50.0931282  64.9823914  32.9258232  49.2619324
  23.4378109  35.7133064  66.4475708  22.8060818  35.7930031  65.7328720
  24.2583599  36.0412560  66.0796356   0.7607646  28.3415127  67.3761978
   1.0857084  27.4878807  67.6624756   0.3247904  28.1645737  66.5426254
  63.0925865  20.0607376   5.2149062  62.1442223  20.1772480   5.2720132
  63.3908539  20.7883415   4.6691389  10.8542557   9.3108177  11.0658503
  11.3900795   8.9004478  10.3870859  10.2328291   8.6302595  11.3245058
  68.1274490  32.8123970  27.6164684  67.8216705  33.1924553  28.4400501
  68.8605270  32.2512093  27.8692417  21.4357910  43.6822510  46.1572304
  21.5851460  42.9680557  45.5376740  21.0278053  43.2614441  46.9140015
  44.7590408  63.8607521  39.4338493  45.2871628  64.6454163  39.2867775
  43.9686966  64.0028763  38.9128990  14.8607187  34.6933060  65.4243240
  14.9347401  33.9915352  64.7775879  15.7636070  34.8746834  65.6853333
  32.1951828  20.1074677  61.2222672  33.1476860  20.0127869  61.2243996
  31.8734074  19.3008270  61.6247864  47.7103996  46.6497192  23.8210697
  47.6063194  47.2410774  23.0756226  46.8153114  46.4273567  24.0771923
  13.4510260  14.8284473  20.0761356  14.2630491  14.3223181  20.1022739
  12.8734922  14.3869925  20.6988754   2.7145996  35.0534935  71.2190857
   2.6964276  34.3711548  70.5480347   1.7931508  35.2136307  71.4228516
   6.8496108  62.1677208   7.4432101   6.7798271  63.0217285   7.0165577
   5.9670014  61.8009872   7.3908534  43.2318573  34.8839989  83.4407272
  43.1521263  34.5792770  84.3446198  43.5775261  35.7733040  83.5173874
  41.1913071  71.7954788  29.4136448  41.4087105  71.9015274  30.3397770
  41.0092316  70.8608551  29.3158646  27.5151196  56.2200241  49.6610794
  27.3877850  56.8864861  50.3362427  28.3932438  55.8766479  49.8260803
   1.2661117  45.6223831  42.2904243   0.9150625  45.5673637  43.1792259
   2.1990023  45.4321289  42.3891640  -0.0232047  71.7485580  25.9330158
   0.5466329  71.0701981  26.2954350  -0.4196867  71.3418427  25.1625519
  22.5541534  54.3381691   7.0242891  22.2006149  54.7019386   6.2125545
  22.2413368  54.9302177   7.7082868  63.8435097  53.6349831  41.9092560
  63.6213608  53.3533096  42.7966919  64.1061707  54.5502167  42.0071640
  69.5938568  67.4351425   0.7385824  69.4474640  66.5513153   1.0757085
  69.9651871  67.9153442   1.4786881  65.3047867  36.2551765  23.7639751
  66.1296539  35.9614754  24.1507092  64.9969788  35.5038147  23.2570801
  73.1439133  13.7248945  85.5328979  73.9069824  13.9455957  84.9988098
  72.3938522  13.9832544  84.9972687   4.5819645  20.9157524  50.5108757
   3.6586516  20.9954491  50.2713470   4.9001298  21.8179989  50.5417747
  83.3103333  53.1022568  34.7503166  83.7654648  52.2932320  34.9839249
  83.4651871  53.6869659  35.4921799   0.5922537  10.8042660   9.0866909
   1.3408265  10.3022156   9.4088945   0.6140831  10.6841707   8.1373053
  86.2238541  33.9078178  62.1310883  85.6458359  34.4306412  62.6867676
  85.6314468  33.4397049  61.5427322  33.5611496  54.1759453  86.6833878
  32.6958618  53.8558273  86.9384003  33.6164131  55.0501595  87.0692902
  30.6846771  13.6791353  71.8228149  30.3228245  14.2116117  71.1144638
  31.6303234  13.8163052  71.7665100  33.4497910  21.4747066  83.4789810
  33.2846184  22.4169273  83.5131302  33.0927162  21.1993942  82.6346283
  53.2130280  48.6059380  52.9063606  52.8496933  49.4112854  53.2746468
  52.8203735  47.9057274  53.4276657   0.9033630  54.4846764  10.6059275
   0.5390358  55.3044243  10.9398565   1.6325350  54.7561836  10.0484114
  65.6723480  12.6733255  59.2963448  65.3741226  12.5144539  58.4007721
  66.6097794  12.8462782  59.2094994  69.9331970  64.2363205  48.1474953
  69.8204117  65.1529617  47.8959541  69.7993011  64.2298126  49.0952606
   8.1709843  45.0460701  46.1667252   9.0891361  44.7810173  46.2212830
   7.6797891  44.2314568  46.2733192  76.3882751  32.1858559   2.2101636
  76.1378937  32.9827538   1.7427323  77.1040039  31.8187180   1.6913419
  64.1321716  38.0402565  18.3388615  64.7433548  37.3042603  18.3073444
  63.4907227  37.8483734  17.6547909  77.0738297  44.5190163   9.6776724
  76.7918777  44.2572479  10.5541487  77.2540054  45.4560089   9.7539053
  56.1893539  47.9041481  75.2213593  55.5014687  48.3341904  74.7133179
  56.9794388  48.0084534  74.6911545  73.6202850  45.5062943  88.9752960
  74.2181702  46.0777130  88.4933701  72.7491455  45.7580070  88.6687164
  59.1184959  28.5104027  76.4063797  58.9261703  29.2168503  77.0229645
  59.0959167  27.7151642  76.9386597  49.3382072  57.6324959  41.7558823
  48.9100647  57.4317093  42.5881157  49.2975197  56.8136177  41.2619057
  10.9784775   6.4293022  21.1804771  11.0781927   5.6625147  21.7446785
  11.1639328   7.1736612  21.7529869  78.8450470  42.5169868  82.1837158
  78.0092010  42.6469231  82.6317215  79.5050125  42.7628708  82.8319550
   1.8456004  61.9208794  82.4453812   1.9252042  60.9706688  82.3617630
   1.0997542  62.0480728  83.0317001   5.4061761  12.5850515  49.9485970
   4.7525339  11.9247532  50.1787910   5.0337415  13.4097452  50.2606926
  80.6948318   0.6987206  24.2170296  79.8075562   0.4718890  23.9385872
  80.7483749   1.6468999  24.0973587   9.2195940  17.0839367  22.2692490
   9.2251701  16.7523708  21.3713264   8.3140917  17.3560123  22.4184837
  81.6504517  51.2914429   2.4725697  82.0341949  50.4549332   2.2094638
  81.2533951  51.6350822   1.6722646  53.7208672   7.9437566  77.4334793
  53.0389366   7.7054892  78.0615158  54.4046097   8.3509932  77.9653473
  43.9359550   2.3795445  43.8230247  43.5581322   2.4737372  44.6974449
  44.8565941   2.6173594  43.9330139  39.3140450  71.4771042  75.9845581
  39.3130341  70.5208282  76.0266037  40.0997887  71.6939468  75.4827423
  59.4585915  57.8832932  10.2889004  59.7198944  57.3583832  11.0454845
  60.0578423  57.6146278   9.5925169  64.7701035   0.0441892  48.8715820
  63.8813553   0.2457684  48.5788116  65.2685471   0.8409792  48.6901627
  72.8192596  59.4931335  66.9414444  72.7330322  59.0320587  67.7758331
  73.2356339  60.3244286  67.1690750  39.3860435  69.6350784  72.6394272
  39.9665298  69.0612259  73.1393890  39.9435844  70.3658447  72.3722992
  73.2113266  30.4456978  66.9049988  72.5473175  30.7577915  67.5197525
  74.0272293  30.8401909  67.2130585   3.5352135   0.4483082   5.3137207
   3.3077354  -0.2546989   4.7052250   4.2264795   0.0765280   5.8615913
  55.1901779  46.7586021   0.9425656  55.2450104  47.6317978   1.3308444
  55.7824593  46.7928772   0.1913934  28.3225346  59.7879677  69.9027328
  27.6368904  60.1548119  69.3445663  28.0795784  60.0568924  70.7886658
  36.3070412  22.4457130  11.5657740  35.8002663  22.4595661  12.3776979
  36.5790558  23.3544655  11.4376822  52.9062271  56.7848892  10.8430166
  52.9756927  56.3715858   9.9824438  53.0573921  56.0722237  11.4638939
  39.5946007  31.1536274  67.0309753  40.0162582  31.5595760  66.2735825
  38.7475471  30.8535748  66.7012787  53.3149109  18.4370441  85.4546432
  53.3361816  19.3217163  85.0897675  52.4283600  18.1246605  85.2738800
  62.3513184  38.6770554  87.5308304  62.4935532  39.3371735  86.8524246
  62.0304871  39.1729851  88.2840576  64.1651840  59.2291336  41.9950790
  63.2871513  58.9925728  42.2939529  64.6879730  58.4404373  42.1395836
  57.8078156   5.2634344  30.9915752  57.4775391   4.9568696  30.1470833
  57.0239410   5.5248818  31.4747105  74.1823959  51.7230453   1.3059942
  74.6534348  52.0628700   2.0668292  73.7238770  50.9494934   1.6340436
  44.7621841  41.2320671  80.9929810  44.0788040  41.6910362  80.5045471
  45.2674751  40.7717819  80.3228683  83.2509308  47.6107445  46.5229149
  83.8924179  48.0554581  45.9688797  83.1138458  46.7639236  46.0982628
  60.7946320  45.4060936   5.3912797  61.6805038  45.6147461   5.6878023
  60.2316933  46.0112953   5.8740482  47.0215569  30.2029152  59.1705055
  47.4497261  30.3839664  58.3337708  47.6998482  30.3638935  59.8264275
  80.6618958  27.5197678  29.8469334  81.1991043  27.9632530  29.1904564
  81.2534637  27.3810806  30.5865593  86.5798721  62.6589241  58.6452332
  86.1706085  62.7401695  57.7837563  86.2518463  63.4110489  59.1381264
  58.5150146  65.6676941   1.2821763  58.3987541  66.5664902   0.9741487
  57.6413307  65.3959808   1.5633885   3.1828923   7.1478138  14.2184696
   3.9154937   7.2226934  14.8299599   2.4947889   6.7120314  14.7213011
  15.3151293  27.8104115  80.7804413  15.6902075  27.9680996  81.6468658
  14.9798326  28.6638203  80.5056686  30.4078236  47.5333138  24.3571262
  30.8162842  47.6748390  25.2111530  30.3795242  48.4029198  23.9581089
  10.2502060   2.9062583  80.1168671  10.7987366   2.2910945  80.6036148
  10.6011114   3.7684064  80.3400269  29.8975773  69.2895203  59.1645317
  29.6008110  69.5114365  60.0470924  30.0330067  70.1354599  58.7375984
  43.5002327  30.2713699   7.0385218  43.6153755  29.3220730   6.9959841
  42.7820702  30.3979855   7.6585541   5.0618162  35.6698036  51.4873848
   5.1442046  34.8338737  51.9463730   5.2418389  35.4587784  50.5712547
   3.1863611  48.8585167  79.8703003   3.8745179  49.4709511  79.6103058
   2.4773676  49.4165306  80.1899567  19.9958000  38.1201668  15.3042030
  20.2416630  38.0896149  14.3796225  19.0819225  38.4048386  15.2997417
  86.2531204  46.8686981  37.0550537  86.4556274  46.9267349  37.9887848
  86.0491562  47.7678604  36.7978706  51.0013161   2.7551672   3.5920551
  50.7097206   2.2967043   4.3800998  51.1130066   3.6639354   3.8711567
  71.6264877  65.0645599  28.1385651  71.9079819  64.6371689  27.3296604
  70.9702454  64.4726791  28.5063381  48.6973915   5.8472724  41.9909210
  48.4432869   5.2205257  41.3135338  47.9542160   5.8625932  42.5939827
  49.9222450  23.0032425  32.0850220  50.2439957  22.1154671  31.9282894
  49.4498596  23.2316208  31.2844429  27.5533485  42.6334610  55.3137703
  28.1230221  42.8415527  56.0543137  27.3578892  41.7020531  55.4162712
  83.1318512  18.5951824  70.7600098  83.3938370  17.6749172  70.7866135
  83.1920090  18.8877277  71.6694183  35.4826355  64.2690506  60.8714027
  36.3921738  63.9735031  60.9116516  34.9735794  63.4645844  60.7717514
  70.6812363  63.9341316  23.0782566  71.2474213  64.0698318  23.8380299
  70.9959717  63.1189384  22.6875706  32.8062630  16.6450558   1.1125114
  32.0980148  16.7115955   0.4720498  32.9827385  15.7065325   1.1778135
  28.1581211   2.5172660  81.9330139  28.4231663   2.3900194  81.0220871
  27.8677578   3.4284902  81.9729233  36.8265228  52.5421677   6.9607224
  37.5766220  51.9635963   6.8234611  36.3826447  52.5640755   6.1129470
  68.3704453  63.8115120  52.8061485  68.5710754  64.6032867  53.3052216
  67.4242935  63.8498535  52.6662941  23.3626595  63.6237373  78.3078461
  23.3314228  63.2880020  79.2036972  22.9589672  64.4899216  78.3624802
  75.3344498  14.0051746  72.5814133  75.2044525  13.5759430  73.4270477
  75.3695908  14.9387989  72.7896042   6.8738804  60.1212234   3.1300106
   6.2621255  60.8574219   3.1294801   7.5053658  60.3350487   3.8168411
  20.4786892  56.5925636  15.3936415  21.4114075  56.5582962  15.6060019
  20.4217720  56.2371330  14.5067024   0.3830734  49.2035027  30.4534340
  -0.1576217  48.7305641  29.8208122   0.9039048  48.5227852  30.8795719
  22.6334515  43.9399681  23.3814888  22.5704556  43.0440025  23.7124138
  22.4750462  44.4902802  24.1484928  65.1041412  30.3124256  80.9800873
  66.0058212  30.4651566  81.2627029  64.6558762  30.0020103  81.7668076
  28.2979012  63.5073471  38.4877090  28.2875557  63.3513260  39.4320488
  28.9553738  64.1921616  38.3652802  38.2061615   5.6424518   1.0332307
  37.6402817   5.8631577   1.7730297  39.0941811   5.7903199   1.3584759
  24.3655586   8.0782623  88.6048965  23.4514618   8.0968628  88.8882904
  24.3352470   7.7088189  87.7223892  61.7353401  18.9060993  65.6212006
  61.2336502  18.2144623  65.1897202  61.0808449  19.5612602  65.8633423
  60.8384514  37.3386269  19.8408413  61.3457870  37.1764221  20.6361599
  60.8092766  38.2924271  19.7657166  18.4208107  53.1938972  35.1373711
  18.5635986  52.8427391  36.0163078  19.1647758  53.7775917  34.9888725
  13.4071617  58.3323288  71.7479858  13.3414392  58.9778214  71.0442429
  13.3869371  57.4866791  71.2999954  44.4976006  29.5599098  59.2098312
  44.4750443  28.7243176  58.7434540  45.3893318  29.8826828  59.0799828
  65.8178711  16.1285400  84.8795319  66.4724731  15.6486931  85.3869553
  65.1828690  15.4622288  84.6168060   8.4246883  32.5035286  56.9792671
   9.2579641  32.6527710  56.5324898   8.3889503  31.5558605  57.1091957
  22.4530983  61.1971855  68.6436996  21.9473877  61.3846855  69.4344864
  23.0478077  61.9422455  68.5574493   0.1139873  57.3163261  43.0380554
   0.8045335  56.9292984  43.5761871  -0.2060307  58.0559196  43.5546036
  42.2790565  29.3891716  63.7235069  43.0205040  29.5395546  64.3099136
  42.3730469  28.4774532  63.4475250  33.9030724  15.0589151  74.8323822
  33.6467514  14.4309673  74.1569443  34.7399368  15.4098997  74.5279160
  71.7063293   8.2137766  10.9063816  71.6849976   7.8589087  10.0176497
  72.0661469   9.0948343  10.8039045  18.6682148  64.5147324  32.5340538
  18.3994808  63.6531067  32.2152786  18.6821632  65.0659409  31.7516155
  77.8845749  40.4058380  21.4787045  77.3367081  39.7786140  21.9505768
  78.1265945  41.0560684  22.1381474  66.0920258  58.7120209  76.5740738
  66.1468048  58.4899673  75.6445999  65.1537628  58.7897148  76.7468643
  64.7141800  33.5249214  26.3363190  63.8232613  33.8730507  26.3001499
  65.2753220  34.3000565  26.3135567  51.4152870   6.6644821  56.8552742
  51.6113892   6.8509631  55.9371262  51.7295914   5.7705317  56.9905396
  21.6599789  42.1361198  88.9978638  22.4593735  41.7042427  89.2989960
  21.4939938  41.7576981  88.1344528  57.3287468  45.1856308  48.8683891
  57.4488792  44.4514084  49.4706497  58.0963821  45.1551056  48.2973900
  78.6081085  39.9048042  81.0421295  79.1071091  39.8423195  80.2276840
  78.6645203  40.8283424  81.2873306  19.5946960  35.5772362  70.0216446
  20.0848770  35.9961891  69.3142319  20.1910648  34.9118423  70.3648987
  62.0649872  48.0808258  15.2099094  62.0456390  47.1967735  14.8434286
  61.9102821  47.9554214  16.1461639  26.8166142  22.2393360  86.4115906
  27.4613228  21.5827694  86.1479568  26.5847931  22.0005207  87.3090668
  14.4423447  44.0165138  65.4408035  13.7526503  43.7476692  66.0476608
  14.4989023  43.2992096  64.8095245  69.5102158  19.8167629  51.3236809
  69.7165298  19.4425030  52.1801834  69.3073578  19.0597706  50.7740974
  86.0866394  62.3255539  46.7953529  85.6157379  61.5104752  46.9689331
  86.5820236  62.4914322  47.5974236  26.3967896  45.5314369  73.8535614
  25.9937019  46.3996162  73.8572617  27.3235836  45.6969299  74.0264664
  42.7159615  49.9752159  23.8735199  42.4873199  49.7836189  22.9639893
  41.9105644  49.8084602  24.3631725  27.4896584  43.7900467  16.5590611
  27.8051834  43.1384506  17.1852398  26.7730122  44.2322273  17.0141735
   7.2562404  46.5958061  85.5136948   7.0945396  46.3609123  84.5999603
   6.4219246  46.9502563  85.8211212  85.2799683  22.1945610  84.1881104
  84.8078308  23.0243893  84.1194763  84.7131348  21.6401348  84.7243423
  39.7450829  66.1381836  88.4291382  39.3765488  66.7981644  89.0163651
  38.9822578  65.7220612  88.0276642  44.3250923  30.8941803  19.3500080
  44.0145264  31.7861595  19.5054207  45.1634293  30.8489380  19.8097630
  75.9331207  13.3449278  20.2137108  75.0416183  13.4776039  20.5359764
  76.3384552  14.2104149  20.2672806   7.2445660  26.3546295   4.7556119
   6.3527365  26.0681992   4.9526649   7.1485524  27.2676926   4.4848218
  81.0570908  20.4728355  66.8001328  80.9207001  19.6929226  67.3380585
  81.3667374  20.1334496  65.9603882  25.8657398  52.1596146  84.2573624
  25.2210236  51.8577843  83.6174622  25.5031891  51.8987427  85.1039581
  82.9179688  17.5447540  80.4844513  82.4885788  18.3997097  80.4544067
  83.5620117  17.5751953  79.7769775  41.2124710  44.5023575  31.3893394
  42.0290146  44.9671364  31.5722828  40.5614700  45.1956100  31.2805748
  56.2201309  25.5894966  76.9716492  55.8437309  26.3907928  76.6076736
  55.5132675  24.9464111  76.9167709  19.7687149  44.9922371  58.8786545
  19.1967487  45.5390587  59.4172401  20.6434708  45.1300583  59.2420273
  14.0987349  19.1125107  56.2284470  14.5628424  18.7349281  56.9756203
  13.2888088  18.6058769  56.1686707  80.2328796  64.9950256  57.8735428
  80.1684570  64.0650177  57.6563644  80.7502365  65.3719025  57.1618347
  33.4749298  42.3408508  75.0135956  33.9844513  42.6196136  75.7744598
  33.7061768  41.4196129  74.8949432  75.0725250  46.0525131  77.1215515
  75.1453781  46.6478691  77.8675232  75.2811050  46.5949287  76.3609543
  47.0577316  41.7466774  53.9700089  46.2197685  41.9385986  53.5490417
  47.0433006  40.8001480  54.1118088  60.8953018  20.2400723  22.3347549
  60.5101852  19.8865967  23.1366119  61.8097076  20.4084282  22.5622311
   8.4666128  68.7908173  66.2394409   9.1627893  68.4034576  66.7700348
   8.9149046  69.1230240  65.4616852  11.4030151  55.3088989   6.7910748
  12.3206167  55.5763245   6.7389131  11.3917618  54.4206734   6.4344735
  71.9134064  36.3467255  62.7056351  71.6755905  35.4365349  62.5289078
  71.0965805  36.8334312  62.5954018  24.0053978  58.5569458  53.6859283
  24.7369785  58.9761696  54.1389999  23.9325047  57.6948013  54.0953484
  18.0901356  58.7251091  37.3348389  18.2297401  58.6287956  38.2768936
  18.2644787  59.6499519  37.1601906  24.7759609  43.8107986   4.7033591
  24.8809700  44.4772911   5.3823247  25.4589596  43.1671982   4.8918371
  28.6936417  23.0070038  63.1754723  28.0192146  22.8751774  62.5091362
  29.5156574  23.0188713  62.6851845  48.1054268  38.5576935  21.8950157
  48.1478806  37.9770699  21.1352100  48.8581467  39.1402473  21.7936363
  50.0116501  59.8430710  86.6775208  50.4515877  59.3131180  87.3422241
  49.0881767  59.6024933  86.7520142  53.6250916  67.7905426  78.7407837
  53.4308434  67.9018707  77.8101349  53.4897461  68.6592484  79.1192932
  63.4480286  60.7944946  74.3717728  63.1013412  60.3493614  73.5985413
  64.3288574  61.0681114  74.1158295  62.3752785  25.9378357  86.8149719
  61.4963036  25.5614471  86.8593063  62.4855881  26.3879871  87.6524887
  77.4676666  17.4973316  31.7634048  77.6418991  16.7911777  32.3856773
  76.6518478  17.2414722  31.3330498  18.1878700  63.5508423  63.4646873
  17.5935154  63.0276794  62.9268456  17.7290134  63.6531715  64.2984848
  40.9797897  56.1527863  33.4978180  41.6440468  56.2664566  34.1775780
  40.5235367  55.3472557  33.7410965  39.9203415  45.0869331  14.0315914
  40.7440872  45.5047264  14.2828321  39.6030540  44.6791992  14.8373938
  19.1317959   9.1079426  53.0052452  19.9193420   9.0607204  53.5472565
  18.7375755   9.9511299  53.2285347  80.8929520  48.2841187  39.7542648
  80.8417587  47.7464104  38.9640236  79.9822235  48.3976250  40.0261421
   4.4158974   2.5757632  20.0501060   4.7878017   3.3993368  20.3657722
   4.1380939   2.7662561  19.1541309  11.2258177  13.9684162   1.0875756
  10.9090185  13.0847263   0.9005947  10.4457321  14.4488363   1.3648744
   1.3238218  42.4382362  78.0116501   0.6288189  42.6509972  78.6344910
   1.1095880  41.5569649  77.7055435  15.3225451  10.1019316  69.1833420
  14.9838791   9.5161381  68.5063019  14.6970911  10.8260984  69.2082596
  83.6401291  50.0723267  10.4396439  83.4986420  49.4257202  11.1311045
  84.3565598  50.6176300  10.7646065  46.1639786  56.6610565  35.5597649
  46.1320610  55.8293266  36.0324554  45.7345810  57.2854996  36.1445045
   5.4150987  36.7825737   1.4946474   5.4700618  37.7218018   1.3184042
   4.8656449  36.4384880   0.7904196  61.3902130  69.5449829  21.3761692
  60.9967957  70.2222595  21.9263954  62.3329353  69.6924973  21.4519787
   5.0466280  64.0339661  52.9485855   5.3854232  64.5822372  52.2408791
   4.1234922  63.9050903  52.7307701  71.8375931   2.3504210  43.2858582
  72.0799255   2.7984278  42.4754257  72.1787796   1.4623954  43.1798630
  37.8440895  36.7485123  59.5067444  38.2367363  36.9158440  60.3635178
  38.4263763  37.1873512  58.8865929  66.4939041  15.4175806  34.3473129
  66.0364685  14.7388620  33.8510056  67.0528870  14.9339209  34.9554596
  14.7399197  18.7015781   1.1319317  15.0298290  17.7973080   1.2522584
  13.8378153  18.7084732   1.4519204   5.3851795   8.0873270  15.6854019
   5.9208550   7.3595824  15.3696928   5.0345616   7.7813921  16.5218849
  79.5259399  58.8069077  19.1710892  79.5603561  59.7019882  18.8336372
  79.1456146  58.8948936  20.0450726  80.0215912  21.7419128  33.1557465
  80.4985657  21.4822979  32.3675003  79.1683273  21.3166142  33.0703621
  76.2083435  16.3821831  54.0859337  75.8139267  15.5159264  53.9846268
  76.9761505  16.2327232  54.6376343  75.5397034  45.6660728  70.3474197
  75.3629608  45.0110893  71.0226898  75.5413513  45.1710358  69.5281754
  82.0509109  16.8563709  29.7105045  82.0048904  15.9141655  29.8728657
  82.9744797  17.0219650  29.5212250  30.4892597  50.0641518  30.5075283
  30.6612206  49.2613449  30.0154324  29.6266632  49.9252930  30.8985214
  44.4119797  21.8074951  59.6146049  45.0078697  22.4624767  59.2510872
  43.6137505  21.8944950  59.0935555  82.9419403  11.1130753  47.0862808
  82.2974396  10.9036665  47.7622948  83.0126419  10.3123960  46.5665245
  69.3613968  33.6544762  30.7569084  69.6433563  32.7416344  30.6981888
  68.4052429  33.6099968  30.7614880  45.0750084  35.2301102  74.2147675
  44.8963623  35.4922180  75.1178818  44.9560013  34.2803383  74.2130203
  65.9930954  38.3988800  65.1391983  66.3561554  37.6088448  65.5395279
  66.6554337  39.0722160  65.2946548  30.3395748  49.9492912   0.0984253
  31.0220432  49.9456787   0.7695871  30.8150444  49.8565216  -0.7271385
  28.3093967  52.3871498  29.3054562  28.3055077  52.9026947  30.1119480
  28.7995396  51.5960121  29.5292797  42.1802177  45.3985252  84.2966461
  42.4305649  45.1581345  83.4045868  42.0671272  44.5617142  84.7474136
  45.5024490  49.5913162   3.1347456  45.3978271  49.2527733   4.0239453
  45.7459297  50.5091820   3.2550213  30.4446354  23.0182514  86.9927750
  30.9270496  22.5900078  87.6999664  30.2266502  23.8828621  87.3408585
  71.9088593  70.8211746  68.5567932  72.1097946  70.7405701  69.4891891
  71.6121368  71.7252884  68.4530182  83.4438019   3.0005317  19.2164631
  83.3612137   2.8277025  18.2786255  84.3142166   3.3868957  19.3130741
  26.2669926  57.8394127  46.3691177  26.1621685  56.9265556  46.6373253
  27.2143631  57.9727440  46.3383942  48.4263687  56.3893394  34.1372070
  47.5333405  56.5931282  34.4150658  48.6874161  55.6534271  34.6908493
  47.0357208  12.6015015  85.0402832  46.7304535  12.1506872  85.8275681
  46.7393570  13.5048523  85.1514435  22.2573185  65.1247101  74.0344543
  23.0765095  64.6565475  74.1956406  22.4658012  66.0413361  74.2148972
  17.8822575  46.8983765  23.3158054  16.9803925  47.1648216  23.1372623
  18.3249722  46.9697685  22.4701462   5.3618388  48.5885429  83.4804077
   5.2606649  48.6244736  84.4315720   5.0652885  47.7104950  83.2410049
  21.1843185  17.7709579  81.2509613  20.8001537  16.8996792  81.3485336
  21.5736961  17.7644825  80.3765564  49.6764336   3.3096046  71.6793594
  49.8953629   2.3859019  71.8021393  48.7502098   3.3693838  71.9133759
  22.4096279  15.1791000  87.5548553  23.1512566  14.9125156  88.0981293
  21.6951027  14.6024294  87.8252869  26.6814995  62.9918861  67.4980774
  26.0832767  62.8503799  68.2317963  26.1110954  63.2242470  66.7653580
  52.4783707  42.5724907  50.7812119  52.9273758  43.4159966  50.7252808
  51.6850052  42.6883430  50.2583542  38.8242950   0.3273719  86.6042023
  38.3000641   0.9930295  86.1588821  38.3501358  -0.4905611  86.4545822
  67.3868561  64.3195190  45.6966972  66.6745911  64.9438400  45.5583649
  67.8836136  64.3377914  44.8786964  74.0016327  11.6663370  65.9525070
  73.3503799  12.2884026  65.6282578  74.3851013  12.0973778  66.7163010
  51.5020523  55.0877266  49.0429001  51.7036095  55.9755974  49.3383446
  51.6703720  55.1048012  48.1007690  48.2181816  44.6946754  25.9237061
  48.2073326  45.3682899  26.6036758  48.0660248  45.1740112  25.1092625
  70.4649048  29.7458496   1.6005458  70.3454361  30.1100883   2.4776378
  71.0978470  29.0376987   1.7194500  82.1646194  12.5424156  83.9570007
  82.9897079  12.6359339  84.4331436  82.0926514  11.6036215  83.7846069
  65.6304932  28.6082954  57.0549469  66.5452652  28.7376499  56.8045540
  65.1422729  28.7061481  56.2374535  62.8670158  42.3733864  34.5753784
  61.9984932  42.7716103  34.6330223  63.4708099  43.1160545  34.5650101
   6.5849957  17.4573002  70.3153381   7.3399549  17.6505718  69.7595367
   6.7729931  16.5937042  70.6828842  82.3313751  61.1897621  38.2502785
  81.5764160  60.8217735  38.7094688  82.8757858  61.5617371  38.9441681
  51.2984505  25.6820717  29.5327034  50.8814201  25.7489662  28.6737251
  50.6075859  25.9145145  30.1531143  58.8359795  56.1846313  53.0205040
  58.1654930  55.5041733  53.0809631  59.0466995  56.3947525  53.9302711
  58.8025742  34.3914719   3.4646375  58.9757195  33.5169067   3.8130424
  58.2560921  34.2383499   2.6938293   2.2157300  12.1953135  42.4280739
   1.9922450  12.5685377  41.5754356   3.0534604  12.5993929  42.6542549
  46.8026619  19.9134712  49.0886192  47.1687317  20.3672256  49.8477859
  47.5205040  19.8875980  48.4559517  43.3632889  36.5883980  52.8744545
  43.2886047  35.6523018  52.6890526  44.0632362  36.6487045  53.5245857
  18.3345299  68.8312149   0.9438660  18.6663074  69.6553955   1.3000687
  17.4348030  69.0279541   0.6830639   6.5511808  53.7572823  66.7870789
   6.8496323  53.5360947  67.6692581   7.1473966  54.4483948  66.4987717
  59.1799240   4.3015728  17.3678951  59.6542206   4.0504360  16.5753021
  58.6496468   5.0527306  17.1018162  83.4482574  44.3048820  63.9657211
  83.8455582  43.6602287  64.5512238  83.7193832  44.0316315  63.0893326
  48.8377228  33.0387344  58.8235741  48.2024765  32.7744064  58.1581230
  49.5846138  33.3686676  58.3240509  25.8625526  32.5311852  18.6288147
  25.6786442  31.6559010  18.9698257  26.0775414  33.0499496  19.4039898
  69.6378555  39.2346306  30.1439209  70.4399567  38.8914032  30.5376911
  69.9426575  39.8518143  29.4787827  50.5923195  12.4437590  85.1628113
  50.0426865  13.1869106  84.9140930  49.9847298  11.8177023  85.5566635
  54.5667038  59.1746597   5.7506285  54.8116302  59.4998817   4.8843293
  54.0981216  59.9039574   6.1565771  76.0647964  70.1642227  35.6173248
  76.2940140  70.2183762  36.5450935  76.8190384  69.7395554  35.2086525
   3.2622406  30.6167240   4.8336654   3.6883032  30.7276726   3.9837284
   3.6668465  31.2799644   5.3928051  71.6514740  60.5041199  13.6841593
  72.2482834  59.7654266  13.5642271  71.0751495  60.4728241  12.9205494
   3.0433273  19.0034847  22.0112724   3.7966976  19.1599216  22.5806522
   3.2633307  19.4514160  21.1944561  60.2877808  12.2960529   8.1172342
  61.0777664  12.4677620   7.6047225  60.1481247  11.3528242   8.0332842
  78.6490631  39.5498161  34.3101997  79.4365158  39.0076218  34.2636032
  78.2909470  39.5288162  33.4227600  79.7276306   9.9846649  71.6555328
  79.3610077  10.8167782  71.3565292  80.6548691  10.0341730  71.4231186
  14.6039639  26.2293243  13.6556005  14.2344732  25.4559727  14.0817900
  15.2534962  25.8793755  13.0457840  77.8695145  65.0320511  26.3443642
  78.7768478  64.9087296  26.6232262  77.9306107  65.2251892  25.4088440
  39.9021301  47.1127090  23.4693336  39.3235245  46.4286919  23.1323376
  40.4368439  47.3662300  22.7169762  20.0036945   9.7995548  40.3823929
  20.8692245   9.3931599  40.4263344  19.5766716   9.3738422  39.6389847
  23.7107143  10.7182446  69.8746109  23.5430145  11.5842638  69.5029678
  24.2131290  10.8923693  70.6705322  48.5320473   8.3290501   3.4206877
  47.9407883   8.4996881   2.6875243  48.6140518   9.1735353   3.8638039
  34.5860367  33.6832809  13.6356440  35.2780800  33.0260124  13.5627966
  33.9198837  33.4001083  13.0093145  84.7302628   2.4417846  16.7325172
  85.0148773   1.8332394  16.0506821  85.4962158   2.5437796  17.2974510
  74.0460587  30.6812420  82.8493271  74.3617706  30.7739391  81.9504547
  74.2240067  29.7676315  83.0726624  81.4921188  15.5604706  51.4678001
  82.0191116  15.2191362  50.7453041  80.6055679  15.2488604  51.2856827
  60.9581223  27.5725784  31.3359947  60.2468491  28.1464939  31.6204987
  60.8252411  27.4758854  30.3930073  64.4341202  58.7378845  52.7821121
  64.7534332  58.8763924  53.6737900  63.5335999  58.4335747  52.8947563
  21.4906921  50.8987999  43.5547256  22.2201538  50.7098579  42.9644585
  21.9018269  51.2875824  44.3267670   8.1179161  39.4396362   5.2059712
   8.7583599  38.8572617   5.6145115   7.3316517  39.3459129   5.7437778
  42.9074593  38.9860992  84.7972260  43.3446808  38.4949608  84.1016312
  42.3421936  39.6047783  84.3346863  61.2609100   2.9373701  85.8862305
  61.4665489   3.7107761  85.3610764  60.7593231   3.2774224  86.6271820
  53.7877388   0.0234370  71.8875122  54.6668167   0.3256822  71.6592560
  53.3775826   0.7775885  72.3109055   6.9949222  47.2189064  79.4335709
   6.8173161  48.0662384  79.8418808   6.8258395  47.3616524  78.5023041
  12.0230417  18.4241371   1.8785702  11.8452415  17.7144413   1.2613596
  11.5003195  18.2068539   2.6504390  58.7365265  66.9349594  63.9721031
  58.2033195  66.4705353  63.3269424  58.8490677  66.3074875  64.6861420
  25.7239075  55.5400696  82.9631271  25.6450195  55.8849106  83.8525620
  25.4999352  56.2799530  82.3986435  64.8454666   1.9232534  25.6691418
  65.7156906   1.5269630  25.7125587  64.7234573   2.3279519  26.5279579
  69.7991791  70.0981445  43.0969315  69.4088516  69.4938431  42.4655037
  69.5299911  69.7592926  43.9507141  62.1628838  48.1507301  48.4403839
  62.0908241  48.8880081  49.0465698  61.5467529  47.5011482  48.7789917
  25.0152969  70.7842102  37.3213730  25.5499229  71.1876907  38.0051918
  25.6469021  70.4957352  36.6625175  61.6246300  60.5928192  67.0101624
  60.9623985  60.8968353  66.3894730  62.2328033  61.3275909  67.0905380
  40.2593422   7.5464454  88.6157608  39.5800591   7.0801997  88.1285019
  41.0684204   7.0809655  88.4037476  57.2662582  64.8959427  76.4402771
  56.7905807  64.5643158  75.6787109  56.6261063  65.4328690  76.9073486
  58.9139862  65.4783020  66.3583450  59.7472229  65.0455856  66.5446548
  58.5497894  65.6781235  67.2207031   0.8734615  50.6487656  70.9047852
   0.5246071  50.9389420  70.0619736   1.3240995  51.4172668  71.2548676
  85.6964111   0.1689778   3.6149905  84.7538223   0.0046163   3.6423998
  85.8092270   0.7980170   2.9023798  68.5405121  29.5673466  68.1900406
  67.5844650  29.5221367  68.2030869  68.8203506  28.6693592  68.0124435
  68.3340225  14.2102013  35.7557678  68.7639694  13.6502657  35.1093559
  68.6895752  15.0834188  35.5905228  74.1851120   8.7900362  68.8519440
  74.3174820   8.6111841  67.9209671  73.4448242   8.2359877  69.0993805
  12.4012852  34.6292458  12.9398489  12.5376854  35.5545044  13.1436291
  11.4506464  34.5183487  12.9546556  38.5443840  66.1822205  36.0342026
  38.9948921  66.1459503  35.1904259  38.3235970  65.2710495  36.2271996
  74.5605698  52.6745186  38.4431419  73.8136139  53.2508278  38.6048546
  74.4431458  52.3777351  37.5407219  60.2521553  57.4426651  65.0012741
  60.1092796  58.3744926  65.1671524  59.6006546  56.9999275  65.5451126
  53.8260918  47.5194931  56.7584839  53.8882828  46.8719521  57.4606628
  54.6867638  47.9380531  56.7417488  13.2656841   0.0617392   4.4776535
  13.8264608  -0.7031109   4.6071353  13.7662573   0.7905743   4.8443379
  61.3902779   8.4216022  30.7837524  61.9753571   9.0121965  30.3092918
  61.6101494   8.5561657  31.7055893   9.1289606   9.8891268   7.6297450
   9.0251265  10.4032125   6.8290162  10.0210247   9.5456648   7.5798721
  86.6993103  44.3083191  17.1709480  86.2183380  44.3058434  17.9985313
  86.0302658  44.1514130  16.5046215  23.7837543  47.4897690  83.1962204
  23.2730675  46.7815628  83.5884933  23.4138374  47.5947075  82.3196487
  82.7299881  57.9598618  29.4219036  82.5997849  57.0277023  29.5961380
  83.5353546  58.1807480  29.8896923  33.9700775  11.4002390  69.9556808
  33.1133995  11.0744448  70.2317123  33.7781525  12.2145386  69.4905853
  54.4277992  53.6250877  24.5276737  54.3799934  52.7004204  24.2849102
  54.0281639  54.0871544  23.7907734  73.2292480  35.0437050  48.8703308
  74.1422653  35.1547241  49.1354828  72.8496399  35.9191246  48.9462738
  34.4012604  54.2861748  27.6870308  34.5315056  54.3336678  26.7399235
  34.1290207  53.3824425  27.8463421  62.8637772  67.5412750  11.7513142
  63.3663750  68.2383194  12.1729193  62.2080803  68.0018539  11.2277098
  31.0264969  22.4534569  62.0070686  31.0424957  21.5834141  61.6083145
  31.9308605  22.7612267  61.9467659  72.8225479  11.2372522   3.8850987
  72.0202866  10.8901215   3.4950814  72.6283417  12.1596737   4.0514007
  10.2535286   6.2300634  55.1792374   9.3487015   6.1417947  54.8796921
  10.4157152   5.4360728  55.6886559  35.9771652  27.7491417  14.4499722
  36.1601753  26.8117847  14.5140285  36.3367538  28.1190281  15.2562675
  67.9001541  54.3885117  52.9135246  68.2540665  53.6676598  52.3926086
  68.4856567  55.1240578  52.7335625  46.8317375  41.0107460  38.6643944
  47.5593262  40.5967560  39.1285667  46.6711731  40.4398804  37.9130211
  37.0747948  21.4291039  74.6612091  37.7765160  22.0339832  74.9019241
  36.9384041  21.5805054  73.7259521  46.3346214  32.2488136  64.7196579
  46.2831841  31.5049572  64.1194382  46.8979721  32.8796959  64.2714844
  65.1258240  57.1415939  13.3622322  65.7746353  57.1447678  12.6584816
  64.3004761  56.9298134  12.9261332   5.5728278  52.7212181  34.0703125
   4.7242398  52.4898529  34.4479408   6.1408691  51.9817848  34.2866516
  46.7927895   5.1364985  22.0572510  47.4907417   5.4482131  21.4811192
  46.6116905   5.8768272  22.6363430  35.7084541  66.0333099  51.3122673
  36.3001862  66.3749695  50.6419334  36.2517319  65.4407425  51.8318291
  43.4151917   6.4217610   3.3639307  43.9696693   7.1994934   3.4265032
  43.9126244   5.8165908   2.8138773  16.3638630  48.8548508  39.4334183
  15.9187889  48.0760345  39.7674637  15.6563749  49.4679146  39.2338028
  11.8405066  68.2200470  12.5138674  11.9176731  69.1668091  12.6318159
  12.6207514  67.8615952  12.9369106  79.6456757   5.5335641  38.2614212
  79.0325012   5.5818062  38.9948502  79.1054916   5.2767534  37.5141068
  59.6100922   5.7090492  50.9140053  59.5186768   6.3096995  50.1743469
  59.6056709   4.8380008  50.5171585  61.8802681  69.9339142  27.6526909
  61.1243896  69.6963272  27.1156273  61.5016785  70.3355789  28.4347172
   8.6464071  54.8024559   8.3665218   8.4305239  55.6789780   8.0481901
   9.5909443  54.8290596   8.5194063  36.4198761  50.8840828  42.1035843
  36.5693817  50.3208771  42.8629761  37.2929268  51.0337334  41.7407913
  18.8742352  61.2386169   1.1007198  19.4686317  61.7936478   1.6055590
  19.3439217  60.4101486   1.0044241  42.0204353  50.2494736  61.8040237
  42.5331421  51.0258331  61.5790176  41.8234367  49.8400917  60.9615097
   7.2375112  34.7074738   1.2062700   7.4156842  34.0442734   1.8730892
   6.7921333  35.4098892   1.6800675  19.5295734  49.9126244  12.9085293
  19.6429367  50.7543526  12.4670849  18.6772366  49.9806938  13.3387842
  33.9667549   4.9312220  67.7137680  34.1833382   5.6837058  67.1632309
  33.9519196   5.2822509  68.6041565  62.1679878  15.7008142  78.9507904
  62.3137779  16.5012836  79.4550018  63.0371284  15.3085041  78.8676147
  77.1366272  42.6711044  41.0989380  77.0060272  43.6062584  40.9418869
  77.1393433  42.5864487  42.0523834  20.5770836  61.8072815  29.1225891
  19.6613579  61.7723274  28.8460846  20.5375919  61.8396263  30.0784264
  70.7468338  22.0826492  26.8876152  71.6612167  22.1754398  26.6201687
  70.6927490  22.5490494  27.7217484  81.1029129  13.3276052  53.2574425
  80.7291107  14.1652136  52.9837341  81.1083603  12.7961817  52.4613304
  62.5724678   7.3642483  50.3885727  62.4269867   6.8219037  49.6133766
  62.4260635   6.7719865  51.1261520  20.5381069  48.7096138   6.3999491
  20.2582455  49.0939751   7.2307177  19.7304592  48.3840141   6.0025554
   9.3026686  49.6749115  49.5628853   9.3620300  49.1889763  48.7403450
   8.3628683  49.7724648  49.7161484   3.6836245  59.8685875  71.0408096
   3.1993358  59.9008560  70.2157898   3.7778578  58.9343796  71.2268372
  85.2651596  32.8228683  79.9435043  85.8120270  32.7941208  79.1584320
  85.1014557  31.9038277  80.1551590  81.9696198   2.3769939  60.5539551
  81.5140839   3.2135496  60.4596176  82.1322937   2.2975168  61.4938774
  58.6333351  21.4996777  83.9299927  59.3339882  22.0109901  84.3348083
  59.0183258  20.6345615  83.7900314  67.0417252  49.5032959  41.5581818
  67.0808945  48.5906525  41.8441544  67.9517517  49.7357063  41.3735771
  80.2204285  36.7362556   9.8287935  81.0350876  36.4622955   9.4074631
  80.4643326  37.5046082  10.3449116  42.1239357  61.8324661  14.2402163
  42.0592728  62.6184502  14.7826929  42.7820625  62.0504417  13.5802259
  79.3791504  55.3075409  37.5599060  79.7158356  56.1904373  37.7127876
  78.8232193  55.3939667  36.7854996  83.2535629  24.4275017  30.3471146
  84.1353226  24.7498951  30.1605816  83.1671600  23.6410122  29.8084145
  65.5858002  59.0878601  46.7676048  65.4754562  60.0365486  46.7039948
  66.1163712  58.8567886  46.0051498  34.6865044   6.2476335  73.4843140
  35.4317513   6.1729875  72.8882675  34.5827713   7.1892805  73.6213226
   5.6718931  50.9837723   2.7624931   4.7711687  51.2290001   2.9741304
   5.7099347  50.0424423   2.9318633  22.7798138  32.3405304  76.4800034
  22.9364128  33.2015724  76.8677139  22.9998837  32.4507599  75.5549927
  30.4538918  42.9862976   9.2747221  30.7026348  42.2229500   9.7959337
  29.6347980  43.2879524   9.6675596  53.9975624  71.4185944   6.3253436
  53.8936386  70.6673355   5.7413640  53.1084938  71.6195984   6.6175609
  10.8871775  68.1351852  67.0597534  11.4880295  68.8657837  67.2061386
  11.4339743  67.3543243  67.1464233  59.1519394  52.1963654  23.3429928
  58.4213104  52.0901489  22.7337875  59.5473061  53.0333214  23.0992260
  82.5214615  53.1014404  32.1508293  82.8296738  52.9358406  33.0417900
  82.7076492  52.2900925  31.6782990   3.1121981  56.4260483  12.5127411
   3.8538334  56.8151741  12.9761953   2.9749813  56.9979019  11.7575016
  79.6667099  66.5612564  87.0155411  79.8342667  66.0464859  86.2261353
  78.9523239  66.1000748  87.4550705  58.9086151  31.8241692  71.4417572
  59.2227097  31.1446590  70.8452301  58.7312889  31.3609238  72.2604065
  19.9328117  70.8328018  19.6689796  20.2721481  71.5936890  19.1976662
  20.6348114  70.1844101  19.6140766  22.3318977   1.6266435  26.2733803
  21.5791149   1.8700724  25.7345943  21.9627247   1.0821117  26.9686699
  52.2779655  68.3001862  67.9425354  52.3652000  68.6085739  68.8444901
  51.3362350  68.1796799  67.8206406  39.8991928   2.0591774  11.7361975
  40.3219833   2.3787963  10.9391270  40.6174660   1.9425560  12.3580589
  16.0021935  23.7258434  15.8340015  15.0484018  23.7313213  15.7534895
  16.1766281  24.1994705  16.6473160  24.3391094  11.0012751  87.4912643
  25.1555042  10.8957605  87.9797287  23.6511517  10.8837337  88.1463470
   8.2913351  45.7772751  36.5444870   7.5383630  45.9205437  37.1178436
   7.9785562  45.1528397  35.8899002  38.5095863  33.1230545  21.3172665
  38.1351509  33.2486000  22.1891994  39.3153267  33.6397171  21.3259525
   0.4965524  66.6484070  77.5126495   0.7756391  66.8319626  76.6156235
   1.1246504  67.1196289  78.0600739  26.5687218   9.3846998  25.6235790
  26.6319027   9.9938173  26.3592529  26.5537395   9.9460793  24.8484268
  63.0189133   3.8840513  77.4469223  62.2708702   3.3316286  77.6738434
  62.9012108   4.6747193  77.9734421  58.1967278  18.2408886  12.0972977
  57.5751419  18.7279682  11.5563593  58.5131683  17.5404434  11.5267944
  59.9794807  58.2579079   3.2356510  59.0449905  58.0516014   3.2554419
  60.0172806  59.2082825   3.3432982  86.3044205  11.5292206  73.6131134
  85.5771255  11.6008654  74.2312851  86.8866196  10.8769779  74.0028000
  60.3517265  22.8853703  47.7142296  60.4619827  21.9773312  47.4322014
  60.2281342  22.8285618  48.6617165  40.3623848  29.0901165  44.3862991
  40.7570992  28.8181458  43.5577660  40.7646751  29.9376030  44.5764656
  61.9133568  68.4555893  87.4858627  61.8300362  68.5322189  86.5353775
  62.7123756  67.9448013  87.6158447  17.4303513  70.1669006  59.1657906
  17.5600681  69.7385025  58.3196907  16.9840050  69.5104752  59.7006836
  62.9970894  31.8476963  84.7202301  63.1376266  31.6432762  83.7957382
  63.8213921  32.2411385  85.0065308  64.5519104  47.4880562  59.5524864
  64.8194580  48.1118698  60.2274017  63.9340439  46.9063873  59.9953613
  10.9533138  44.7171745  45.9798813  11.1041498  44.8422127  46.9168129
  11.8285160  44.6025696  45.6095848  23.8191319  50.0641212  31.1057854
  24.1651878  50.9496880  30.9951115  24.2727356  49.5449867  30.4417248
  23.9734077  29.6877384  69.0095596  23.7607937  30.6097393  69.1542587
  24.0157051  29.5982609  68.0574875  14.7242899  71.5238113  81.8591156
  14.4255238  70.6356735  81.6637039  14.1793947  72.0863342  81.3087692
  35.7910805  28.2644062  64.6668015  35.6696739  28.6608982  63.8040848
  34.9128647  28.2446175  65.0470352  47.9148293  43.0416908  76.1171494
  48.2203712  43.4563828  76.9239349  47.7699089  43.7702026  75.5134125
  57.2281494   6.1767950  61.6810722  56.4984627   5.8066182  62.1778183
  57.8178711   5.4371867  61.5346489  61.9673729  19.7355423  84.9695663
  61.8921165  18.7866192  85.0701370  61.3451042  20.0935917  85.6026688
  32.5257149  71.2226410  33.6009254  33.3073463  70.7166595  33.8228874
  32.7140312  72.1058578  33.9182587   2.1143413   6.4352441  31.0220814
   2.3415968   7.1537547  31.6122761   1.2588415   6.1347971  31.3288116
   8.7002592  28.3564701  74.5658417   8.4474535  29.0245399  73.9286499
   9.6050234  28.5717106  74.7923431  25.3085747  14.3269711  23.6176662
  25.5003853  13.8975830  24.4513721  26.0226746  14.9536400  23.5011406
  11.4031725  34.4028244  30.5156345  11.2127590  34.7709274  31.3784618
  12.1932955  34.8607864  30.2289162  41.7401466   4.3777061  30.9644012
  42.2268066   5.1605468  30.7064190  41.1395340   4.6823807  31.6445999
  71.5822144   4.3105183  64.3778229  72.1201782   3.7675252  64.9540100
  70.7332764   4.3581653  64.8174438  67.8702774  22.0422993  66.0165405
  68.2480164  22.5580978  66.7289276  68.4446869  21.2802505  65.9419022
  52.9884949  43.5463982  60.9233208  53.4829559  44.0739441  61.5505638
  53.3986359  43.7318192  60.0785522  80.1460419   5.0716267  17.7482204
  79.9538574   5.8878059  17.2865410  79.9993362   4.3869939  17.0955448
  82.6600037  17.0296745  22.8908596  81.9431152  16.5910397  23.3490105
  83.0132141  17.6455975  23.5328197  45.5747261  28.7301941  80.7626877
  45.6341591  29.6847172  80.8024826  45.9768410  28.4309750  81.5781708
  79.5941467  14.2699699  66.1956558  80.5056458  13.9875116  66.1207199
  79.2436676  13.7573738  66.9241104  17.3160877  40.0640068  21.2162952
  16.5446873  40.3512955  20.7277889  18.0577259  40.3838234  20.7025623
  47.6366463  -0.0452903  79.9064636  46.9487000   0.6197676  79.9321976
  48.1118660   0.0697160  80.7293625  62.6159859  14.4452047   7.3277135
  63.3794212  13.8775854   7.4335876  62.7609444  15.1597481   7.9479127
   8.2315474   5.1217961  24.0411205   8.4983950   5.3918157  24.9198208
   8.3006916   5.9181190  23.5145092  32.0670624  21.2159214  66.7218781
  31.2709064  21.3981934  67.2210236  32.7514839  21.7091236  67.1741486
  64.2121811  41.2695465  42.7129173  63.4583969  41.6259193  42.2427635
  63.9376831  41.2552528  43.6298027  31.8752804  45.9591446  69.0668793
  32.0279274  46.4625778  69.8665543  32.0603905  45.0533981  69.3150635
  80.5739288  16.7618389  47.6125107  80.3837357  17.4651108  46.9916496
  81.0039368  16.0876598  47.0863800  36.6705780  25.4374676  17.2838230
  36.2369766  24.7421761  16.7890587  37.5984077  25.3414364  17.0690155
  72.7753143   3.5774763  41.0040703  73.0025482   3.7414939  40.0888138
  72.6604462   4.4492588  41.3822670  45.7191238   7.3693452  81.1545486
  46.1755486   6.8533535  80.4899673  45.3758583   6.7197742  81.7681046
  66.0867691   4.3778667  73.3206177  65.3572845   3.9785211  73.7945404
  66.7263260   4.5903516  74.0003586  86.3381500  48.8439026  83.2107010
  86.7977524  48.5740585  84.0057983  87.0094757  49.2724152  82.6797333
  15.7344608  57.2419548  57.9095192  14.9470100  57.5548325  58.3547859
  15.4084902  56.6367073  57.2434502   1.0945925  49.7954636  12.9886198
   1.2823145  50.5316200  12.4063253   1.9497383  49.5391083  13.3339291
  58.9465408  17.6714478  14.7146225  59.4997444  18.4484730  14.6344604
  58.2143517  17.8363934  14.1205482  17.3911953  56.1700897  34.1701736
  17.7732506  55.6408844  33.4700241  17.5544243  57.0746346  33.9029961
  63.1093140  11.3261833   8.6983433  62.5905724  11.2040281   9.4934654
  64.0139771  11.3735666   9.0074921  48.8675652  25.0394363  84.2327652
  48.7338409  25.6683941  83.5237122  48.3598213  25.3912792  84.9639511
   6.6813140  69.2568588  72.9269409   6.6288400  68.9841614  72.0109100
   6.2479777  68.5540771  73.4112549  47.8518295  66.8728409  54.9019814
  47.0519447  66.3506546  54.8408813  48.3977356  66.5600739  54.1805992
  32.3820152  62.9934769  60.6983986  31.8580647  63.7939339  60.7296524
  31.7656460  62.2950172  60.9185600  29.0357780  41.7091675  82.1151428
  29.5478325  40.9155579  82.2707596  29.3481541  42.0340080  81.2706680
  52.2988319  62.7234306  27.4232368  52.7656937  62.9630432  28.2237740
  51.6001053  63.3735199  27.3497581  83.6284561  25.5815754  70.5543747
  82.8297806  25.9405136  70.9410553  84.0102921  26.3138466  70.0704269
  15.9537058  37.5041847  56.0979919  16.0301456  37.7361221  55.1724663
  15.0107899  37.4652519  56.2580681   5.4584966  18.3149014  12.7223749
   5.3879695  17.4986038  13.2172632   6.3999825  18.4747906  12.6570215
  30.2081032  38.4960823  69.1820908  30.2684765  39.4460793  69.2825699
  31.0598946  38.2378693  68.8299408   4.0528779  45.6146278  42.6402054
   4.9160733  45.8884506  42.9502831   4.2341599  44.9091759  42.0191536
  56.9288368  26.6400108  25.9358025  56.9290886  27.5275574  25.5773449
  56.8818283  26.0713291  25.1672821  24.9315453  67.6752167  66.7918930
  24.4976997  68.2962799  67.3769531  25.1345615  68.1860733  66.0082855
  46.0371361  28.4037113  16.9028378  46.9211617  28.1036148  17.1141968
  45.4605637  27.7748413  17.3367977  54.9199905  20.5525322  51.7294617
  55.2949333  21.2839890  51.2389297  54.0126228  20.8117561  51.8898201
  32.9027596  17.4128361  78.7228546  33.0005417  17.8659801  77.8853989
  33.7977676  17.3136215  79.0474319   6.4565663  48.8391190   7.8840518
   5.8728046  48.8120880   7.1259465   6.4502735  47.9440460   8.2232256
  12.1919689  67.8923950   4.2446012  12.8930397  68.1456604   3.6441112
  12.6091633  67.2880707   4.8585820  19.8201675  51.3488922  62.4368668
  18.8630047  51.3436127  62.4434738  20.0656013  51.4303398  63.3584747
  48.7771912  35.4921074  24.5200291  48.8264923  36.3825493  24.8677559
  48.3327370  34.9919472  25.2045231  53.1548767  62.6895523  10.8978271
  54.0115013  62.5166664  11.2883854  52.5301437  62.5038490  11.5988636
  76.2102814   9.6415796  49.2094460  77.0217361   9.8108168  49.6881218
  76.3783188   9.9745779  48.3279114  71.7351456   6.9897423   8.5985174
  72.1155777   7.4513245   7.8512268  70.8612976   6.7344770   8.3027735
  17.1907959  17.9948635  87.7365417  16.8994904  18.5509529  87.0139542
  16.3946819  17.8156815  88.2368698  40.4227562  32.8484535  86.1335220
  40.0867767  32.1121941  86.6446686  40.2949600  32.5854034  85.2220993
  81.0026093  18.1264706   6.3223443  81.2318802  18.3432789   7.2260380
  81.3583679  17.2478733   6.1891813  53.2681999  33.5109215  73.8663864
  52.6971245  32.7431679  73.8407898  53.9609146  33.3153076  73.2354202
  81.4666214  29.5652580  45.5109863  80.7604218  29.8612900  44.9366379
  81.1621475  28.7238045  45.8508186  80.2344437   0.9827771  50.2282524
  80.6875229   1.5878235  50.8155060  79.8173065   0.3494009  50.8122559
  31.8397541  56.5582314  85.3184280  31.9788151  55.6702728  84.9891510
  31.5817909  56.4371643  86.2322235  15.7751417  55.4692307  46.7017136
  15.8761606  55.5148811  45.7509537  16.6491833  55.2510185  47.0252380
  81.1164551   1.1339989  47.3643265  81.3797684   2.0218461  47.1222000
  81.0668793   1.1511270  48.3200874  73.7007370  30.4446888  70.6121216
  73.6213913  29.7734604  69.9343414  73.5879211  29.9687538  71.4349213
  16.0439281  31.1750698  82.3506927  16.1388874  30.4214382  82.9331512
  15.1044178  31.3582058  82.3472137  22.4993000  27.0200100  62.9247398
  21.5565624  26.9162617  63.0540276  22.7661762  26.2264805  62.4607124
  84.0500488  28.5694466  10.4520626  84.2431946  29.4811096  10.2334337
  83.1473846  28.4394836  10.1613092  52.1475029  45.7815285  67.2446518
  51.5358429  46.3464127  67.7168961  51.5965004  45.2845840  66.6399384
  45.6599121  19.4357567  72.3651505  46.0112038  18.8979340  71.6555176
  45.9328308  18.9855270  73.1645508   1.7117782  40.9310341  86.9737167
   1.2717911  40.2922974  86.4127655   2.0775020  40.4101524  87.6886673
  82.4640808  17.7304306  61.1638985  81.6209793  18.0120888  60.8088264
  82.7744217  17.0676575  60.5469284  79.2939224  14.0496082  80.6706009
  80.2434235  14.0635462  80.7909470  79.1340790  14.6653967  79.9554138
   6.4814548  43.7070503  59.8856926   6.0573773  43.6460381  60.7416534
   7.1458421  44.3873177  59.9955063  69.7164612  12.1989689  87.6445084
  69.0345230  11.9086361  87.0387802  69.5394821  13.1304626  87.7757645
  39.4767761  39.0377350  63.6792259  38.8719559  38.3473167  63.4076614
  40.3347130  38.6134377  63.6914062  72.8968811  47.5009766  70.0628967
  73.5778961  47.5135498  69.3903732  73.3691406  47.6355247  70.8845367
  82.7575226  24.3319149  38.2479591  81.9552994  24.6014538  38.6951866
  82.5440292  24.3910122  37.3167458  84.3690872  15.3726177  61.8110390
  84.0424271  15.7714748  62.6175385  83.7183609  15.6045866  61.1484833
  68.5368118   8.7921381  87.0045547  69.4157028   8.6107683  87.3375549
  68.5454254   8.4539270  86.1091385   9.7262220  64.4271164  23.6873474
   9.8748970  63.6233101  24.1853695  10.5347500  64.9281769  23.7943478
  55.6241302  66.1022797  77.9764099  55.3420181  65.2537537  78.3179474
  54.9216728  66.7046051  78.2213364   0.4803969  23.9532204  59.1652870
   0.1427391  23.1548309  59.5712357   0.5551971  24.5762596  59.8881035
  18.8447685  13.4468250  18.7922039  19.4058437  12.6715403  18.7731781
  19.3553982  14.1003494  19.2701111   8.0232515   9.9609013  72.2988358
   7.0728364   9.9009781  72.3955460   8.1733427  10.8383160  71.9469147
  79.3305435  33.8989258  43.4415207  79.0352707  34.2642517  44.2755394
  79.9438553  34.5491104  43.0989685  51.1014633  25.3452644  77.5884018
  50.9165001  26.2322826  77.8969727  50.8777199  24.7823238  78.3295288
  20.9116955  69.6876678  51.4034767  21.4044666  70.4618683  51.1314049
  21.4776268  68.9506378  51.1738434  46.1487312  69.1453247  23.7194309
  46.3979721  70.0363922  23.9645958  45.9397354  69.2030106  22.7871094
  49.3183975   9.5802364  75.4330597  50.2546959   9.7341576  75.3070297
  48.9762955   9.4478531  74.5489426   9.3876486  57.9999886  61.6825485
   9.3798056  58.5086899  60.8717499   8.7582169  57.2953224  61.5292778
  27.7329960  64.5625076  13.5322456  28.0183372  64.9705200  12.7147264
  27.8633957  65.2396240  14.1961317   4.4122329  37.5591888  22.0500412
   3.9359381  36.8902397  21.5582256   5.0855565  37.0727730  22.5257206
  83.0397644  28.4113426  19.6765614  82.3850555  27.8353977  20.0713692
  82.7040405  29.2948513  19.8279915  63.0613670  50.7228241   8.9031734
  62.4187126  50.0139771   8.8755188  62.5864716  51.4893303   8.5819683
  48.4683723   9.4801674  22.1041718  49.1369400   9.8744736  22.6643276
  48.9293213   9.2714558  21.2916470  40.2710457  65.8637772  84.4910736
  40.5181656  66.4018021  85.2431946  39.9160271  66.4869308  83.8571320
  68.9029388  16.0434589  38.3341942  68.6313782  15.1750240  38.6313591
  69.7937851  15.9171286  38.0076065  65.3660583  56.0862389  33.2494240
  65.2796249  57.0297661  33.1133347  64.4807739  55.7441940  33.1248932
  60.0124054  37.6648026  13.3364849  59.0911980  37.6995277  13.0787849
  59.9949379  37.6974869  14.2929668  52.2386513  55.7937393  35.8010216
  52.0632591  54.9087486  36.1208076  51.4121590  56.0746994  35.4083366
  21.7259502  63.6453094  49.7989120  21.9703979  64.3459320  49.1942635
  21.7799129  64.0474472  50.6658630  48.1077271  71.1274948  14.5525455
  48.6319695  70.3450928  14.7235603  47.7782860  71.3878021  15.4127455
  56.0699081  45.2370644  54.9180756  55.4355316  44.9700661  55.5832901
  56.6576996  45.8384285  55.3753471  52.7921104  69.3151169  70.4687195
  52.9713364  69.8388214  71.2496414  53.3940735  68.5737762  70.5341415
  82.9016266  14.5275822  49.0668068  83.3840408  13.7105885  49.1934128
  82.9760895  14.7069168  48.1295090  60.6710358  18.8385696  68.7556610
  60.4994049  19.0176640  69.6801605  60.5261116  19.6775532  68.3182373
  81.1325150  29.4455929  23.9956398  80.6395874  30.1040878  23.5061111
  80.7696533  29.4836750  24.8805771  52.4551811  54.9065361  46.3632317
  53.0219498  54.1655884  46.5777092  52.8658752  55.3085213  45.5977478
  53.9504089   1.0298879  50.9607124  53.9184227   0.2268289  50.4408035
  53.3070984   1.6072092  50.5495186  73.0008392  55.4048729  49.9395790
  72.9436111  54.7020416  50.5868721  72.1599731  55.3790131  49.4829674
  15.4638300  68.6360703  45.3695221  15.0447769  68.0945892  46.0384216
  14.9337368  68.4996719  44.5842667  59.3780022  70.2161560  59.6026154
  59.9141884  70.9088135  59.9885712  58.5396156  70.6384354  59.4154778
  37.6914558  51.8446808  26.8938217  37.3982086  52.2319374  27.7186069
  37.3783035  50.9408340  26.9288960  12.1848440  46.6095314  84.2599945
  12.3477869  47.4792519  83.8949280  12.5542545  46.0061073  83.6152878
  50.7606163  57.1251144   1.4454274  51.1922607  56.2763824   1.3476111
  49.9345703  56.9244232   1.8854253   8.6726780  44.5653152  51.4425507
   8.0530205  44.5404739  50.7134132   9.5265369  44.6863213  51.0272026
  58.8806725  52.4479294  30.0927429  59.6543312  52.0056038  30.4420738
  58.5528717  52.9707718  30.8244648  49.7323608  46.6354294  46.3606186
  50.4853859  47.0013428  45.8966217  49.8075447  45.6900063  46.2311707
  39.8649445  54.6665878   3.7585955  39.9553833  53.7204323   3.8719335
  40.3275795  54.8553162   2.9421499  49.4023819  50.4496117  56.9925880
  49.2875671  50.3082924  57.9323120  48.5181999  50.6153946  56.6655273
  54.4465408   5.1124544  88.2495956  53.5594559   4.7638159  88.3376846
  54.9686356   4.5969324  88.8643188  34.3015327  50.3477287  40.3059616
  33.4954262  50.7212906  40.6621552  34.9478531  50.4647942  41.0022392
  31.1775436  38.0334282  63.5432930  30.3540688  38.4822464  63.3517570
  31.1660290  37.2605515  62.9787102  54.1336555  61.0247765  58.5150490
  54.2896652  60.6115532  57.6658478  54.9089928  60.8081322  59.0328827
  14.5818052  55.4436493  85.3273468  13.9040031  55.9098015  85.8167496
  14.1078911  54.7601357  84.8535843  77.0855255  55.9058952  80.5624542
  77.2216034  55.5015678  79.7055817  76.1467133  56.0899391  80.5940704
  56.8581810  32.5130005  65.8966446  57.4083748  31.9488583  65.3532639
  56.5229111  33.1748962  65.2918930  32.7759743   2.1918809  34.2778625
  33.0736427   3.0859916  34.1099586  32.0622673   2.2913907  34.9079018
  51.6912346  13.3555613  51.5420761  50.8847809  13.8431215  51.3742981
  52.0530205  13.7558327  52.3327255  21.6121788  47.4233513  53.3023109
  22.3586464  47.7985954  52.8351784  20.9577084  47.2668762  52.6215630
  54.7100258  34.5590897  22.8734531  54.2580338  33.8424149  23.3187809
  55.5633354  34.1946869  22.6382828  14.8464823  27.3231792  77.2358932
  14.3296566  28.1288242  77.2435532  15.7382164  27.6087742  77.4345779
  83.0218735   8.7537136  74.0929871  82.7472763   9.6145802  73.7771835
  82.5958023   8.6642141  74.9454498  84.8889923   7.0784702  35.0431862
  84.0067902   6.7473321  35.2113914  85.3127899   7.0777168  35.9014549
  76.1328964  34.2523270  79.1346054  75.6513596  33.4358063  79.0017471
  76.0480194  34.4307747  80.0711823  33.0093307  57.4959831   1.9795787
  32.1963310  57.8019867   1.5775533  33.3961258  56.9144592   1.3250146
  81.0178452  44.7427788  75.8172150  81.4457855  44.9256477  74.9807587
  80.1230850  44.4989052  75.5802078   5.8202577  56.7649689  28.1292992
   6.4732385  56.6257629  28.8152084   6.3334746  56.9751816  27.3491402
  79.9979935  57.9206390  26.6501198  79.4692612  58.7074547  26.5174713
  80.5335388  58.1186638  27.4183693  81.3780746  62.2397957  81.9030609
  81.0979614  61.3754883  82.2042923  81.9181671  62.0616608  81.1331253
   5.5404029   5.0066733  77.2682495   5.7346582   4.5990777  76.4242325
   5.9836736   4.4516902  77.9099197  19.7642479  37.0788307  37.4581451
  19.3255806  36.2875900  37.7707787  19.2412796  37.3621902  36.7081795
  10.6203232  40.1470528  37.2993813  10.9541750  39.3038254  37.6055603
   9.9209938  40.3656998  37.9153061  85.9821548  53.9960594  17.5667934
  86.3296356  53.1042252  17.5560665  85.0859375  53.9000587  17.8889828
  74.1964417  40.8650589  34.7130814  73.4600677  41.4746742  34.7616844
  74.9149246  41.3220024  35.1503563  44.1449432  37.4637032  82.7670288
  43.4331856  37.9505577  82.3515701  44.8768692  37.5405312  82.1549759
  59.0144005  60.9141884  37.8738289  58.0606461  60.9229050  37.9545250
  59.2248573  60.0163803  37.6171608  50.0767632  27.6764660  40.3673820
  50.9156494  27.7525902  40.8220329  50.3032379  27.7180367  39.4382896
  10.3774509  15.7622499  71.8016205  11.2865963  16.0282459  71.9392242
  10.2318630  15.0663919  72.4425735  85.2588577   3.1592395  25.7807045
  84.9214096   4.0072837  26.0691166  84.4765015   2.6281722  25.6319695
   7.9439330  24.3653851   0.3583291   8.0379143  25.0232754   1.0472273
   7.5654593  24.8435497  -0.3794714   7.9858871  50.8360519  10.6783028
   7.3124928  50.3456612  10.2068262   7.4974790  51.4739990  11.1986008
  75.1852036  16.9668369  14.0369129  75.0999527  16.1670341  13.5179920
  74.5207520  16.8807716  14.7205267  65.0913391  50.8766975  13.4920092
  65.9300232  50.4963722  13.7531500  64.8247223  50.3664780  12.7272730
  73.2123489   1.0893945  14.2216473  73.8676071   1.5594034  14.7373629
  72.4067001   1.5918719  14.3427944  54.6195793  54.0597229   2.0262651
  55.0343895  54.5705910   2.7213736  55.3417282  53.5857849   1.6138140
   6.5157914  56.5723419  85.6100082   6.1318884  57.2257919  86.1946869
   6.3675365  56.9209366  84.7309494   9.6479492  35.1538849  49.8442802
  10.4841690  35.2944336  50.2883720   9.0059414  35.6017075  50.3952026
  12.4316301  51.5110207  11.1953802  11.9370346  50.7014999  11.0677519
  12.8927317  51.3818321  12.0241919  67.5685577  18.3267403  45.4457512
  67.3019257  18.0697231  44.5630951  67.0227051  17.7951794  46.0251656
  28.6864357  39.7049370   2.9783432  29.0115070  39.7288361   3.8783371
  27.7411003  39.5845757   3.0682521  68.1204758  70.8578415  23.5702171
  67.8216400  69.9484940  23.5742130  67.3857040  71.3498154  23.2037430
  17.3528805   8.9807024  73.4950409  17.7145462   9.1488647  72.6249008
  16.4325676   9.2343845  73.4250259  84.0102463  28.6311474  45.0105515
  84.0350189  28.4647350  44.0682564  83.0941544  28.8404064  45.1928139
  20.1513424  38.0173187  73.6155396  20.2903023  38.8971252  73.9660568
  20.9308605  37.8438683  73.0878067  26.1415310   5.5538111  73.3627853
  25.2997837   5.7089453  73.7912979  25.9129639   5.1550169  72.5231705
   3.1535625   6.8188024  76.8047943   3.0619085   6.7187128  77.7523270
   3.7543108   6.1195741  76.5470886  45.6886101  40.3183289  67.9010162
  45.7827301  39.3660278  67.9232483  46.5815125  40.6447144  67.7895126
  79.6361008  60.8965607  68.3705139  79.3539886  61.8080940  68.2946472
  80.0144653  60.8351479  69.2476120  47.2313499  68.8249207  76.5615158
  47.4666252  68.9566345  75.6430740  48.0673904  68.8395615  77.0274048
  37.0613785   7.8433871  17.9864883  36.4967041   7.9175091  18.7558250
  36.9252014   6.9486804  17.6747398  85.8021469  61.5694733  11.2979059
  86.6290207  62.0073700  11.4998112  85.6816330  60.9440422  12.0124283
  85.0770493  21.9773197  49.9228020  84.6623230  22.2983532  50.7235336
  85.3389969  21.0806637  50.1316528  20.9429321  14.7159977   6.1803865
  21.2947311  15.6058149   6.1540418  21.3769016  14.2653255   5.4559579
  25.8413696  47.3112221  27.1922760  26.7640457  47.0717659  27.1053162
  25.5155449  47.3398590  26.2926922   2.6976027  31.5584087  17.9884853
   3.5185919  32.0397758  17.8860340   2.9485314  30.6378651  17.9118900
  11.4482861   6.4950423  67.9573135  11.4683094   5.5790329  68.2343597
  11.2488966   6.9826808  68.7564850  30.1975498  47.1402130  64.5857544
  31.1512375  47.0592194  64.5734024  29.9806042  47.2756119  65.5081635
  79.5700989  12.7230215  72.2952194  80.3479309  13.2673206  72.4174805
  79.0788956  13.1600428  71.5995483   3.7935147  17.3750324  57.8119659
   2.8378768  17.3895931  57.7592773   4.0777707  18.0480175  57.1934814
   8.8880148  14.5697956   4.5229707   9.7720213  14.3975172   4.8471370
   8.8579130  14.1388464   3.6687992  52.4171906  26.5489902  25.7694225
  52.0783043  27.0710297  25.0421925  51.7087364  26.5466061  26.4130993
  60.7612991  23.2725601   0.3175683  60.2183685  22.9514999  -0.4024167
  60.4431877  22.7998104   1.0866877  84.2451782  47.1263580  42.5009766
  84.1828003  46.7361374  41.6291580  83.4552155  47.6609192  42.5811958
  70.1168137  52.0640335  30.7101536  70.0684433  51.4792557  29.9538956
  70.6555405  51.5911598  31.3445015  15.6919289  63.7197762   5.9351573
  14.9557657  63.3238869   6.4016013  15.4094076  63.7471657   5.0210114
  79.7519989   6.3663559  55.2253838  80.2276917   6.4283171  54.3970642
  80.2058716   5.6777978  55.7113075  61.8240738  12.7883778  56.8836555
  61.8939285  13.5474997  56.3047867  60.9954262  12.3762569  56.6392555
  73.7016449   9.9586878  37.9252129  73.1179276  10.5675068  38.3778191
  74.0695114   9.4162188  38.6228065  83.0801086  52.6486244  61.9516792
  82.9059067  51.7315521  61.7398682  82.2789459  53.1086540  61.7011833
  72.0026321  61.4369354  16.2498264  72.9500275  61.3081284  16.2042465
  71.6764984  61.1155090  15.4092560  36.0397224  31.7827759   8.6840935
  36.7814102  32.0772438   9.2126951  35.3447685  32.4128761   8.8744726
  48.2186966  34.3257370  19.4558811  48.9183388  34.2157440  18.8119602
  48.6519585  34.2129936  20.3019333  36.4226227  40.0494957  43.6351128
  37.1115265  39.3917236  43.5403519  36.1210556  40.2109871  42.7411270
  66.8000641  15.9492207   3.5714977  67.4555283  15.4733372   4.0815239
  65.9705811  15.7573318   4.0089641  61.1434593  36.5043831  74.9753113
  62.0591774  36.7061119  75.1676559  60.7812767  37.3266563  74.6452713
   0.5744618  60.7731400  88.8469543   0.2757718  60.3622665  88.0356598
   1.5296531  60.7511673  88.7890015  73.1060181  16.2739983  15.6439791
  73.0148621  15.3600817  15.9135685  72.4727249  16.7472134  16.1836510
  58.1733017  53.5744019  78.2658691  58.0780067  53.3731918  77.3349152
  59.0578957  53.2815514  78.4848785  77.4305038   3.1177437  22.5338383
  77.2907944   2.8686519  23.4474392  78.0789871   2.4918473  22.2114162
  54.5875320  51.2515717  71.4177856  55.2642937  50.7034607  71.0205460
  55.0581894  51.7896538  72.0543213  25.6325493  67.8898239  37.0667648
  25.9307289  67.3262100  36.3528595  25.9082718  67.4346695  37.8624039
  59.3207588  32.0903053   7.9599271  58.8958893  31.5807915   8.6499367
  60.1877594  31.6948719   7.8695235  30.3487968  33.2214622  74.1557236
  30.9507141  32.4899368  74.2928391  30.9155655  33.9586639  73.9287109
  49.8515167  54.8948669  65.6987610  49.2460098  54.1800156  65.5023270
  50.7152557  54.5432434  65.4830170  46.2353630  15.6881876  67.6391296
  47.0876465  15.7267561  67.2051315  45.8665047  14.8474531  67.3683090
  78.5213165  34.1944771  77.1550674  77.6862259  33.7947159  77.3980637
  78.9634018  33.5261841  76.6314468  46.9711914  34.1213951   2.7096274
  46.8947449  33.8630447   3.6281273  47.9141006  34.1698952   2.5521438
  68.8300400  10.8257122  65.7772827  68.7881165  11.7770472  65.8744202
  68.0756302  10.6073523  65.2300949  37.7994995  22.1966457  62.8180389
  38.0640182  21.3652134  62.4243584  38.5954208  22.7283459  62.8122559
  63.7620659  20.9677067  42.5096512  64.1474152  20.6014576  41.7136612
  62.8730049  20.6136150  42.5301933  66.1620712  40.4118958  82.5874634
  65.2833023  40.3219261  82.2188263  66.4212418  39.5176773  82.8098145
  56.4437866  42.9814911  74.8917465  55.8502312  42.2445145  74.7475433
  56.0397491  43.7101746  74.4205704  46.4239464  58.6458626  76.0826492
  46.9885788  58.3097610  76.7786713  45.6595116  58.9941063  76.5415573
  32.8504181  24.0507221   3.0470259  33.3805580  24.3790951   3.7732179
  32.2382050  23.4384384   3.4551184  85.1731415   6.3616004  58.0970993
  85.8758392   6.8017826  58.5753059  84.9366684   5.6171713  58.6503983
  75.9253769  42.5358620  66.1018219  75.6851807  41.6563721  65.8102112
  76.2361603  42.9742889  65.3097153  79.9289322  14.8331003  22.2903805
  79.9417496  13.9832935  22.7307186  79.9667206  14.6202765  21.3579044
   5.3789983  68.9997177  33.8174286   5.3828745  69.9499741  33.7024155
   5.1295681  68.8702240  34.7324409  29.4228420  17.7360477   8.2101440
  29.7748203  18.1018124   7.3986278  29.1741199  16.8405418   7.9811549
  22.5345516  30.5610676   4.1583610  23.1284962  31.1793575   3.7327101
  22.4385643  30.8961906   5.0498261  28.3179588  16.7881947  87.5934982
  28.6144161  16.9654217  86.7007828  27.3727150  16.6617374  87.5112991
  76.9162140  16.9692688   9.1769419  76.6350327  17.8454647   8.9133997
  76.1389999  16.5782433   9.5760355  77.5560913   8.7803850  37.6190872
  78.0618820   8.4297276  38.3521919  77.4362869   9.7059450  37.8317261
   1.7829078  71.0540924  77.4438171   1.3456846  70.4920578  78.0834885
   2.6528807  70.6683121  77.3410873  52.4623146  41.8164139  31.2490387
  52.2519302  41.8103523  30.3152657  52.2022896  40.9488411  31.5587749
  44.0806236  44.7934837  87.6350327  43.2032166  44.7803535  88.0174103
  44.4258423  43.9156075  87.7974548  44.2015762   1.3356205  70.5090866
  44.4460793   1.2128353  69.5918274  43.6373367   2.1088283  70.5051193
  52.7965317  46.0230408  15.7117805  51.9025612  46.0579300  15.3714342
  53.1431847  46.9031219  15.5650721  79.3360519  37.1298370  17.6229858
  79.0835876  37.9358826  18.0733013  80.2855148  37.0807457  17.7340641
  11.2526560  16.3516865  68.2904053  10.5506935  15.7225304  68.1241455
  11.2616024  16.4546299  69.2420044   6.6612258  46.3713150  27.3226509
   6.8887300  46.2515450  26.4006271   5.7059307  46.3144760  27.3429699
  39.2232513  29.9970894  79.5219650  39.3905106  29.7133560  78.6232147
  38.4811363  30.5972881  79.4494629  10.1226883  22.4720974  63.5932426
   9.2165842  22.2395821  63.7960854  10.5114460  21.6598854  63.2685738
  36.8074036  28.6988983  17.6562729  37.7304192  28.5117340  17.4852657
  36.5564651  28.0689812  18.3318977  71.5478745  39.6369934  59.7234840
  72.2706757  39.1034889  60.0538788  70.9712219  39.0127106  59.2830620
  56.5353088  57.4736023  36.0608063  55.9100800  58.1983109  36.0499229
  56.0982208  56.7877464  36.5655670  23.2367783   1.6245965  17.1814537
  23.4689674   2.0701411  16.3667068  23.3544579   2.2894444  17.8599510
  23.6344242  13.7378931  43.8236198  23.3250542  13.3007612  44.6169930
  23.5538921  13.0748787  43.1379395   3.7869725  12.6523972   5.8162761
   2.9565670  13.0477381   6.0815372   4.1051316  12.2120056   6.6043510
  84.0238419  65.0868378  21.9553947  83.2285385  64.8285294  22.4212284
  83.7159500  65.6677322  21.2596970  73.1189041   7.9835582  78.5527649
  73.9648132   8.3538332  78.8049088  72.6791458   7.8032627  79.3836288
   8.4909821  41.0083199  33.7789268   9.3242464  41.3953934  33.5104485
   8.1389256  40.6187859  32.9785805  75.8957214   1.5702538   6.0385780
  75.1886063   2.2141120   6.0794015  75.9316177   1.1977417   6.9195881
  17.7101383  59.4713669  11.4097776  17.3592987  59.4325447  10.5200377
  18.5595398  59.0339165  11.3516035  64.9652100  33.7308235   4.4044299
  65.0098114  34.4599037   3.7858150  64.3623352  34.0305557   5.0848255
   6.3761249  19.0147381  83.0509796   6.6780863  18.7485256  82.1825409
   6.9756365  18.5792484  83.6569214  64.5954971  61.6804199  55.2789001
  63.9292221  61.5765915  54.5995407  64.6496277  62.6257935  55.4187927
  50.6184540  14.7277994  59.2844620  50.9536629  14.5952845  58.3977242
  49.6665611  14.7032547  59.1868324  17.2425442  61.2723885  19.2505150
  16.2856464  61.2717934  19.2264996  17.5014992  61.7571220  18.4668026
  85.8272552  14.4348021  73.8779373  85.8319931  13.5312672  74.1939011
  86.2287598  14.3872395  73.0103149  59.9609604  44.0021286  15.4746008
  59.4904518  43.8156433  16.2870502  59.2724380  44.1101837  14.8184795
   7.4562802   0.7297149  20.0864334   6.5962057   1.1495688  20.1014977
   7.2650828  -0.2081820  20.0914249  13.5088720   5.2101493  75.0161591
  14.1261024   5.9406219  74.9752960  13.3454037   4.9832225  74.1007233
  34.8855019  55.7436829  75.3102722  34.0530815  55.2854805  75.1946869
  35.5312195  55.0447540  75.4141083  66.9563065   8.7213678  56.6876831
  66.0667191   9.0744190  56.6728592  66.8482056   7.7912774  56.4889908
  16.8291435  34.2290001  76.7046890  17.6743507  34.1511040  76.2622147
  16.1914043  34.2914963  75.9936218  28.2784863  58.4224930  77.1674881
  28.2658195  57.7607155  76.4760208  29.1441631  58.3353958  77.5665436
  20.5703907  39.9952736  70.0354233  19.9333038  39.6883659  69.3903198
  20.4934502  40.9491119  70.0130081  55.7695847  13.4507608  63.4413338
  55.3254395  13.3869448  62.5958214  55.0841293  13.2747183  64.0858383
  22.9140415  40.5710258  60.3703346  22.0554485  40.9777718  60.2536736
  23.2683620  40.9815445  61.1591072  67.1526489  40.4232521  38.1951714
  67.2962952  40.3295250  37.2534637  66.2151260  40.5975533  38.2782669
  23.8690929  63.6162643  68.7168503  23.8104305  64.3690567  69.3051453
  24.0998096  63.9932175  67.8677902  81.3281860  69.8020020  27.3156128
  80.7030716  70.4832458  27.0678864  81.9321747  70.2382202  27.9165668
  71.9895706  11.7853336  39.5164490  72.1189880  11.3279772  40.3472977
  72.5888824  12.5305719  39.5573883  36.2662697  41.5535431  48.8483658
  36.3452187  42.2782173  49.4687271  37.1302643  41.1415443  48.8501244
  49.0969620  42.4883080  55.9957809  48.1896782  42.5650291  56.2910461
  49.2256966  41.5497551  55.8587494   7.7813783  22.6129951  82.1546097
   8.5514946  22.9159584  81.6736069   7.0499821  22.7654037  81.5562286
  58.7769318  56.8835449  67.2938995  58.9935303  57.5561829  67.9395599
  59.3775291  56.1637306  67.4872360  30.4781361  63.2988510  54.1710472
  29.7120800  63.8121643  54.4277573  30.7685547  63.6962051  53.3500748
  10.7182484  52.7440071  42.1343613  10.3330774  53.4840965  41.6651649
  10.7835445  53.0431671  43.0412636  48.6673355   4.1861458  55.0532036
  48.9527588   3.3119330  55.3187561  48.6939049   4.7018814  55.8591461
  56.2031403  64.8758850  65.0997925  56.4012451  63.9400253  65.1337967
  56.5688286  65.2277603  65.9113846  68.9463425  65.0328674  16.2149525
  68.8206787  65.9449387  16.4767971  69.2124329  65.0817642  15.2967834
  85.7895508  24.9468002  63.6137123  85.4845352  24.5178204  62.8142281
  84.9878845  25.1675453  64.0878754  55.7740669  54.7838707  11.9070807
  55.6799393  55.1656418  11.0343714  56.5314560  54.2031326  11.8340416
   6.4458232   6.6508508  82.3393478   7.2044201   7.2193031  82.4720993
   6.8013530   5.7631474  82.3819275  30.5482941  28.7172451   4.9764662
  30.7537651  27.8383617   5.2951741  30.8052177  28.7038307   4.0544891
  43.6261024  40.4160423   9.5222101  44.1680069  41.1986809   9.6224585
  43.6619797  39.9886551  10.3779469  58.1752968  17.8226852  28.0188351
  57.5549850  17.3643398  27.4519444  59.0306969  17.6536160  27.6239433
  21.8505592  10.3270884  77.8558121  21.6342850   9.6670666  77.1971588
  21.8645840   9.8448343  78.6825333  74.2602386  54.7669106  26.9572048
  74.3706360  53.9803009  26.4230843  73.3930969  55.0966988  26.7215157
  85.5315704  45.8569031  80.1211166  85.2097092  46.5943680  80.6395645
  85.0577927  45.9221573  79.2919540   3.7976975  65.9472122  31.7841415
   3.6327002  66.3434906  30.9285870   3.8376977  65.0070419  31.6089268
  16.1818619   3.1310599  22.5951042  15.5617132   3.6860344  22.1221867
  15.9586926   3.2547405  23.5176716  59.9000511  30.8991852  68.8880463
  60.5784531  31.4562988  69.2696609  60.2229424  30.6957817  68.0102081
  47.3153877  67.2000198  34.7115440  48.2515526  67.0041351  34.6733246
  47.2439575  68.0941849  34.3774910  48.9061165  39.9084549  28.2462616
  48.5474014  40.7958984  28.2478161  49.7467957  39.9891396  28.6967945
  48.7884026  38.2467194  10.3876686  49.6502151  38.0691032  10.0108929
  48.4625359  39.0002823   9.8955460   2.2223854  41.8872566  23.9412994
   1.3636233  41.5411911  24.1841908   2.0969419  42.2437820  23.0618744
  58.5012360  66.6778793  68.8952408  58.8995781  66.9804153  69.7113495
  57.5593452  66.7071457  69.0632095  19.9644470  66.0113678  51.0535316
  19.1572380  66.3170090  50.6397362  19.7680073  66.0108032  51.9903603
  27.7233524  53.7845230  42.0616226  27.7071514  54.7353020  42.1711197
  27.6003437  53.6495094  41.1220093  67.4574356   2.1152027  76.2978668
  67.8758316   2.2233472  77.1519623  67.7524796   2.8705275  75.7892761
  57.6303864  12.5292912   4.3784237  57.5294838  12.6732569   5.3193402
  58.5504112  12.2882509   4.2703090  72.7309723  54.9634018   4.5351877
  73.1622162  54.1229515   4.6898103  73.3963318  55.4978409   4.1017127
  81.0814743  51.5862579  88.9872284  80.9437637  52.2461548  88.3076706
  80.4563065  50.8924141  88.7775192  66.3857269  57.8727188  80.3467484
  66.9040909  57.9507332  79.5458450  65.5448532  58.2742958  80.1278915
  55.2384567  31.8524876  53.8497696  55.9237175  31.9204121  54.5146294
  55.2353973  32.7081184  53.4206848  57.6311493  48.1936989   4.0553083
  57.2192955  47.3481598   3.8773582  56.9165459  48.7462959   4.3718667
  49.8861008  42.7807083  50.0251274  49.2366600  42.1013947  49.8434830
  49.5276299  43.5696297  49.6185112  50.0160294  58.1395950  54.0956573
  49.6019058  57.6357422  54.7962761  50.6919670  58.6534882  54.5375328
  31.3948994  56.5155182   4.1529193  31.9282169  56.8867455   3.4500704
  31.4890499  57.1341248   4.8772774  19.3170338  12.0612478  53.2518272
  18.4756241  11.9928331  52.8006287  19.3513870  12.9673452  53.5584869
  45.5788193  18.1775875  69.3242722  45.4820480  17.5123997  68.6428146
  46.4984207  18.1222878  69.5840912  12.5061569  18.7764645   4.9528193
  13.1777515  18.9085808   5.6219511  12.9543457  18.9526100   4.1255765
  16.5265789   1.6784972  56.5237465  15.7637711   2.1934016  56.7868614
  16.2963982   0.7771162  56.7490463  40.3518715  63.8817177  81.2786560
  40.6835480  64.0316925  80.3933716  39.9022522  63.0383110  81.2262955
  44.2459946   0.5193891  41.9444351  43.5880127   0.8208296  41.3179970
  44.3238297   1.2364594  42.5737076  74.4664307  18.0019131  11.2567682
  74.6464767  17.9486465  12.1953726  74.3219528  18.9338875  11.0931177
  39.2367897  63.9488792  38.1567154  40.1751671  64.1295395  38.2118225
  39.1835709  63.0727730  37.7748260  55.3208656  64.1544724  83.8532791
  55.0550385  63.9613037  84.7523041  54.5866241  63.8554268  83.3169098
  79.8240585  51.9697495  15.1668959  79.4488831  52.8457565  15.0769606
  80.5635376  51.9623489  14.5591593  62.5372696  36.9461212  21.9724102
  62.4565582  36.8505249  22.9214001  63.1950760  37.6316376  21.8558273
  84.3315735  41.9773598  65.3952866  83.9050598  41.1370964  65.5634308
  84.2583008  42.4529762  66.2227249  53.5395851  33.0597687  81.5863724
  52.8139801  33.0791512  80.9623947  53.9371033  32.1975517  81.4647522
  20.4753819  28.0106583  59.4458160  20.5638294  28.2874317  60.3578491
  19.5520344  27.7750702  59.3554802  83.8417358  64.2044296  59.5452271
  83.3774033  63.8131523  60.2851791  84.6801682  64.4866486  59.9107628
  77.8336411  62.9837379  66.3605118  77.9356079  63.8675461  66.7136612
  78.2465134  63.0214386  65.4977570  58.3121834  23.0521488  60.5723724
  58.8988190  22.5348434  61.1241760  57.9080391  22.4120922  59.9865150
  83.6278915  31.7748108  73.1915817  83.9711761  30.9739017  72.7954407
  83.9378510  32.4768753  72.6195145  36.0225639  36.6113396  18.2624817
  36.0046692  36.6529083  17.3063507  36.7056732  35.9710846  18.4616394
  12.1492691  21.7903976   6.7201834  12.3137941  22.6079693   6.2503538
  12.4319916  21.1051064   6.1146455  61.9531021  58.0733032  68.1496811
  62.1987801  57.5444336  67.3906174  61.9645500  58.9745712  67.8274689
   4.4388175  63.6192551  18.8402863   3.9541361  62.8984871  18.4380341
   3.7903285  64.0729370  19.3786774  33.0245590  47.7444229  15.7062168
  32.9630241  48.1490784  14.8409433  32.9860840  48.4797592  16.3177986
  85.1337814  65.1655807  77.9122009  84.5451584  65.4976273  77.2343369
  85.7872543  65.8564377  78.0213852  56.6762733  23.3943310  73.7136917
  57.3128891  24.1072292  73.7658920  56.6193466  23.0580902  74.6080856
  75.4920425  10.1983700   2.8337257  76.1463089  10.3666849   3.5118442
  74.8968735  10.9463358   2.8842225  66.7149124  45.1180954  32.0232506
  66.3021164  45.2425880  31.1686535  67.0255890  44.2128181  32.0095787
  58.6909485  47.1111984  60.3090515  59.1785240  47.6996269  59.7326393
  57.8734398  47.5753937  60.4891510  65.1485901  25.0705471  15.1020660
  65.4225464  24.1714230  14.9210844  64.2485809  25.1162529  14.7793884
  13.2188330  36.6908264  77.5749207  13.5924215  36.0528793  76.9669037
  12.7034731  36.1652298  78.1867905  70.9242859   4.8545561  17.6248703
  71.6579285   5.1745348  17.0998821  70.6230927   5.6232805  18.1092033
  44.6309814  65.1924973  31.2936306  44.0350151  65.9245529  31.1350727
  45.4052429  65.3959961  30.7689018  45.5567589  53.9992218  42.0782089
  44.9024010  54.2053146  42.7457237  46.1740570  53.4160805  42.5199318
  73.8485565  64.0580902  83.0442810  73.9205246  63.1661797  82.7043457
  74.7050018  64.4496231  82.8727112  61.0860214  11.6268215  69.6957626
  61.5075836  12.4456787  69.9565125  60.7217827  11.8101225  68.8297577
  18.5339661  52.9885941  48.1251755  17.9772949  52.8365593  48.8888702
  18.6387329  53.9394150  48.0906296   3.8747480   4.5043240  80.3541260
   4.3440685   4.3551874  79.5333176   4.2370787   3.8563492  80.9583435
  15.0322628  40.3110504  88.0816956  15.6763153  40.9339333  88.4185104
  14.3174648  40.8581276  87.7561188  74.1577225  25.6636982  73.0681915
  74.7390594  24.9032898  73.0610275  73.8924789  25.7537994  73.9834824
  80.5178833  69.6388245  12.5094204  80.2385101  69.0087280  13.1736193
  81.1587830  69.1623077  11.9817762  70.7071533  42.3065720  82.1266937
  71.1161728  42.5842781  82.9463348  69.8287964  42.6858025  82.1568069
  76.2939682  44.6104927  30.4689178  75.4476929  45.0493546  30.5551834
  76.6417084  44.9228477  29.6336060  19.1094055  23.7403927  13.6829872
  19.2107162  22.7982025  13.5479021  19.2684765  23.8667107  14.6183872
  68.0147934  42.4972992  82.6894150  68.0654144  43.1052246  83.4270477
  67.3006744  41.9022980  82.9179993   6.7356863  64.7766800  20.6682339
   6.2651262  64.5668259  19.8615341   7.6252923  64.4575958  20.5165157
  39.0495567   3.0577407  26.3836937  38.3804665   3.0790546  27.0678692
  39.8072624   2.6492553  26.8023300  32.7822380  19.7898369   5.1600347
  32.6752014  20.4789276   5.8157248  33.3291626  20.1870003   4.4822712
  51.4954338  44.8424797  30.0381260  51.5622101  44.8735390  30.9924870
  50.5647888  44.6972084  29.8677444  44.9599838  33.8123703  15.8593016
  45.2106667  34.7145348  15.6605864  45.0242653  33.7503014  16.8123207
  44.8939705  66.6458969  11.7848015  45.4938164  66.0621490  11.3204107
  44.5741768  67.2459717  11.1111031  16.8535881  69.2591629  64.6042557
  16.0543098  69.7076035  64.8804550  17.5009403  69.9582672  64.5124664
  78.9397583  36.9236298  32.5048141  78.7662430  37.7671890  32.0870438
  79.5776062  36.4989662  31.9311943   7.6744385  35.5255432  85.6882095
   7.9510756  34.7876434  85.1448822   8.4451294  36.0913734  85.7341080
   2.0059307  56.2962189  44.6341896   1.5106850  55.8976898  45.3498306
   2.5959239  56.9139328  45.0661240  33.8524895  66.9999771   3.8516235
  33.8452835  67.8188324   4.3472638  34.6925888  66.5959091   4.0688586
  85.6429749  51.8879738  59.7621231  85.4404755  51.0843010  60.2410164
  86.4340363  51.6781158  59.2657166  54.2837944  67.0646973  20.6744671
  53.3340607  67.1706924  20.7292995  54.6290436  67.9538727  20.7544994
  63.6812172  14.6371250  32.5203667  64.0191879  15.1791754  31.8074932
  63.0539894  15.2008133  32.9732132   5.2305732  29.9937611  61.3458290
   6.0181460  30.4650860  61.0741425   5.5264449  29.4206390  62.0530930
  62.0051422  30.5199947  51.2206955  61.1686630  30.1619701  50.9234581
  62.6571808  30.1068897  50.6546326   9.5897923  62.5167885  70.8531418
   9.6367359  61.8209457  71.5087585  10.2892036  63.1231155  71.0969086
  76.6212540  13.3785667  54.8409843  77.4286270  13.8751049  54.7074509
  76.7512512  12.5715380  54.3429489  79.1327744  41.0798340  49.4751091
  79.1467209  41.9632759  49.8433075  78.2482224  40.9810867  49.1228981
  82.4632111   4.9468498  42.9798737  82.6243668   4.0688243  43.3253136
  83.0114136   5.0005908  42.1970444  23.1371746  70.0349731  35.2849045
  23.6066132  70.3124313  34.4982147  23.6833687  70.3394012  36.0096283
  32.8145180  57.3102264  19.7002048  32.0764923  57.2640343  20.3080006
  32.7365265  58.1734009  19.2939053  18.5615063   2.6021054   5.5154958
  19.0616894   2.2942157   6.2713084  19.0880508   2.3445091   4.7587743
  56.4214096  26.5656967  10.2045813  55.5293770  26.8284340   9.9776974
  56.5586700  25.7472324   9.7276020  14.8418159  47.1508217   3.8145444
  15.2768764  47.3274879   4.6486573  15.5501671  47.1483154   3.1707549
  81.3778152  39.6445961   3.4783163  82.2557297  39.3416367   3.7100952
  81.3889160  39.7025757   2.5229385  -0.0156034  48.2995491  10.5285006
   0.4917125  47.5025444  10.6822643   0.2419561  48.8880501  11.2381220
  16.4510365  52.6549263  80.2976456  16.2412338  53.3105316  79.6325226
  15.9752560  51.8719101  80.0205994   1.2716198  58.9174118  34.8170586
   1.4265792  59.1741905  33.9080582   1.5438586  59.6779823  35.3305283
  50.6928444  11.3157854   2.0834506  51.6007919  11.1180801   2.3131742
  50.5954361  10.9888611   1.1890994   2.7557285   4.8155169  43.6148605
   2.2422004   4.0627260  43.9078217   2.3269711   5.0981903  42.8070908
  14.4422054  38.2227669   0.5944172  14.6717091  37.4722900   0.0463814
  14.5568295  38.9813271   0.0219828  30.4301567  53.2688103  27.9716377
  30.2599049  54.2106438  27.9577274  29.6296864  52.8859940  28.3307076
   0.8113064  63.0442429  28.3829975   0.0852434  63.4205322  27.8855305
   1.4648588  63.7427101  28.4183044  82.4671326  17.2487202  44.3428383
  82.1146774  16.6046696  44.9570122  81.9529724  17.1251965  43.5449600
  76.2686691  57.3313560  21.5322113  75.9548111  57.2798843  22.4350281
  75.7898941  56.6416626  21.0725098  51.2081566  10.8421621  50.2417297
  50.4079933  11.0688648  49.7678337  51.3728256  11.5960388  50.8081093
  48.0029144  63.8974838  28.7865257  48.0185699  62.9538651  28.9464302
  48.1081657  63.9815979  27.8388538  61.1086617  12.5113554  62.9752617
  60.4767761  13.1878643  62.7317657  61.2908173  12.0482941  62.1575661
   9.4896688  17.2925568  17.9961052   9.7890320  16.9126358  17.1701069
   9.2758961  16.5370979  18.5436611  31.5748234  51.3645515  85.2409744
  32.2052803  51.0208511  85.8739243  30.8798161  50.7069283  85.2139359
  63.6095963  30.0360508  48.5126495  64.5204620  30.2832890  48.6721268
  63.1744270  30.8580093  48.2862816   4.7711878  30.5625877  82.1017532
   5.0910106  30.3249035  81.2314377   4.0337338  31.1493015  81.9339447
   0.4109395  67.8964157  44.4395103   0.4173763  67.0318985  44.0286598
   1.3324654  68.1533356  44.4713440  63.3939857  62.6597672  68.2126999
  63.6579361  62.6521721  69.1327591  64.1085587  63.1099815  67.7622375
  75.5824280  65.5480576  30.6192131  75.6084061  66.0575256  31.4291496
  74.6735153  65.2562180  30.5488777  40.1471863  47.3739700  54.7728882
  39.6330528  48.1507034  54.5524635  40.2003098  46.8815269  53.9537964
  77.7279358  34.8168831  54.3355980  78.6633148  34.9965668  54.4305153
  77.4752197  34.4169693  55.1677246  29.7107410  18.0384026  68.3558655
  30.2243729  17.2363815  68.4516525  29.4588871  18.2697430  69.2498856
   7.5940104  11.0112104  85.7251358   8.0222311  10.1556835  85.6946182
   7.1101675  11.0664034  84.9010696  62.7694817  63.3167229  43.0717049
  62.5585365  64.1949463  43.3886566  62.7890282  63.4043007  42.1187210
  13.1961155  42.5636711  18.9375668  12.6291790  42.2716942  18.2237301
  12.6104422  43.0323448  19.5321789  32.7892685   2.7220881  85.3129883
  33.5850639   2.2282021  85.5105209  32.8503494   3.5041153  85.8615570
  42.5405960  42.0658684  63.7197189  43.0343361  41.8950539  64.5217667
  43.1164246  41.7672768  63.0158043  51.4285431  20.4216080  16.4523983
  50.9119492  19.6159420  16.4361420  52.1236839  20.2733822  15.8112745
  77.4955673  24.4744473  12.2741785  78.2471313  25.0126686  12.5225649
  77.1592712  24.8855782  11.4778681  30.8537579  60.5441856  43.7772484
  30.5142097  60.7116928  44.6563873  31.6148624  61.1196022  43.7007904
  72.9039612  60.6749802  73.4960861  73.2155228  59.8958015  73.0355988
  71.9854965  60.4875069  73.6897430  24.1213875  70.8726044  32.7434273
  25.0605335  70.9992294  32.6085052  23.7988453  71.7345734  33.0064964
   9.7566166   3.1428542  50.4385338  10.4551239   2.8917377  51.0429001
   9.0912743   3.5464802  50.9958839  39.3014717   7.4366689   4.7668328
  38.6728134   7.7869191   4.1356845  39.6227646   6.6306195   4.3627439
  64.9110107  39.0017700  62.5783386  65.5799789  38.9347267  63.2596779
  64.4333725  39.8038902  62.7897491  45.7240791  67.9569626  16.9482956
  45.6200104  68.2116013  16.0314770  46.5906601  67.5523376  16.9876080
  80.2723923   4.8664508  66.7677536  79.4588928   5.3708687  66.7720337
  80.9641037   5.5276966  66.7450256  80.9236832  46.3479767  44.9591179
  81.2356873  47.0432625  44.3799248  81.1247330  45.5378036  44.4906807
  50.1712227  67.1246109  34.5131454  51.0695992  67.4540253  34.4879494
  50.1096840  66.6603165  35.3479347  83.0337372   1.6442944  26.1250153
  82.4577179   1.2122602  25.4943123  82.4464722   2.1811841  26.6570873
  68.0932236  18.8209839  56.1207123  67.1502533  18.9713860  56.1871872
  68.3732834  19.3746891  55.3918724   6.6620498  56.4889832  43.9841576
   6.9790430  55.6470184  44.3110199   6.5149250  56.3430977  43.0496521
  28.7295113  54.3359756  62.9282570  29.0322037  55.1747627  63.2761688
  28.6227703  54.4904823  61.9896584  55.0640182  54.3982811  61.3084679
  54.1814766  54.5390091  60.9656181  55.0810013  54.8842812  62.1329346
  69.8462524  22.0506783  71.6571655  70.1208420  22.6267376  72.3705978
  70.6636658  21.7840729  71.2364807   2.0169024  22.5760746  32.6257896
   1.5056723  22.3960991  33.4147644   2.9048607  22.2948627  32.8464279
  19.6935120  68.9636536  59.9666176  19.3015461  68.7713928  60.8184547
  19.0605488  69.5381775  59.5359001  64.2495804  50.3436890  47.5062675
  64.9010849  50.5902176  46.8497620  63.4687653  50.8436508  47.2683640
  72.9697800  20.1754589  34.3072853  72.8060226  20.1761780  33.3641968
  72.5276413  19.3888168  34.6265564   1.3611320  40.1569824  76.1278992
   2.2551296  39.8738403  75.9359818   0.9144399  39.3609581  76.4160767
   6.9776225  50.3149147  69.9821396   7.0506244  51.2334290  69.7228470
   6.2865629  50.3071976  70.6444168  58.0815659  28.1747303   0.1758069
  57.8424072  27.7107735  -0.6265515  57.4365997  27.8852901   0.8211527
  63.2332039  54.0885773  12.6756563  63.1849060  54.8774872  12.1357336
  64.1072769  53.7364655  12.5075951  85.6721954   1.6974715  28.2035713
  85.2422104   2.2941055  28.8162460  85.7399368   2.1973772  27.3900986
  18.0732574  16.4748802  70.3017349  18.9769440  16.6988144  70.0793991
  17.9569778  15.5863199  69.9653244  26.0053749  16.7909985  75.7565765
  25.5653820  16.8299980  76.6057663  26.4186783  17.6491013  75.6613388
  47.1942596  24.4797268  53.0314980  47.0754128  24.4941349  52.0818138
  47.6869621  25.2776432  53.2233543  12.4961681  61.4154510  42.3717194
  11.8924408  61.0268936  41.7386589  12.9702644  62.0810127  41.8732300
  78.1509323  44.3732147  36.2276154  78.2193451  44.8620529  35.4074974
  78.4935074  43.5043793  36.0178642  68.1891174  45.6386719  13.5904799
  68.7603378  46.3214493  13.2386990  68.7890701  44.9575462  13.8943911
  68.6033325  36.2383308  76.6858826  69.1226807  36.5328178  75.9376907
  68.5802841  35.2851677  76.6011353  19.6345730  51.7651634  75.2071838
  19.5702896  52.4724274  75.8489685  20.5735149  51.6730461  75.0455322
  86.1222153  56.2659607  32.5040817  86.1928787  55.6925163  33.2672310
  85.3486252  56.8021355  32.6781921  70.7627792  68.0808258  18.8134136
  69.9309998  68.1672821  18.3476849  70.7313919  67.2053833  19.1992245
  54.1322289  10.9063272  67.3228455  55.0469055  10.9782867  67.5956497
  53.8966942  11.7896643  67.0391693  19.6787090  68.3555908  70.2561646
  19.3272610  69.1349335  69.8256531  19.1884308  67.6284485  69.8726044
  55.6481056  28.1193142  76.4001999  54.7089157  28.2949905  76.3428268
  56.0248184  28.5842762  75.6531143  62.9763374   5.0284057  52.1493645
  62.5327492   4.6085072  52.8863487  63.7971001   5.3547621  52.5182419
  80.3295746  60.4641647  55.0715065  79.4806442  60.5947075  54.6490059
  80.1152649  60.2613754  55.9820976  66.8892975  22.8779202  33.8545647
  67.0193405  23.7237186  33.4256783  67.0625992  23.0495701  34.7801628
  23.3563709  68.8215942  21.3083801  24.2305756  69.2098846  21.2732830
  23.0242882  69.0571213  22.1746826  11.5259867  47.8592682  45.1300545
  11.6498919  46.9253273  44.9608498  12.0835333  48.2954445  44.4857559
  79.6545105   9.1592979   0.8945134  79.7901001   8.2596025   0.5971990
  78.9711761   9.0907936   1.5612851  75.9551086  18.1414566  79.8538132
  76.7493134  17.9687462  80.3594284  75.8651428  17.3795338  79.2814407
   2.8866587  50.3187408  32.8367119   2.6394656  50.0421715  33.7191162
   2.4183409  51.1429405  32.7040329   6.8328767  63.5551567  17.3891659
   6.7053108  64.5018005  17.3273335   6.0290608  63.2312012  17.7955685
  53.1400261  64.3112488   5.2127657  53.7394981  64.3519135   5.9578900
  52.2713890  64.4280548   5.5975518  77.8437195   9.1195154  79.5197525
  78.7324677   9.3939152  79.7457199  77.9644241   8.3421650  78.9744186
  82.2117004   1.9120322   7.4591279  82.6327209   2.7714071   7.4803081
  82.4815598   1.4929097   8.2762852  72.8377533  64.4309692   4.2522287
  71.9682312  64.0398102   4.1675758  72.8465576  64.8070145   5.1324239
  49.3193703  24.1610260   6.8309932  49.6967773  23.2872086   6.7298102
  48.6238136  24.1989956   6.1744971  84.5721207  47.5231895  81.8533325
  85.2983475  47.7729607  82.4246826  83.8098755  47.9646530  82.2279358
  80.3453369  48.3983192   6.2040243  80.3499603  48.6348457   7.1315289
  80.3941422  49.2357788   5.7430358  57.1174164  36.3079224   4.3861856
  57.5978355  35.4802933   4.3647366  57.4379158  36.7907181   3.6243331
  15.7049322  65.6254349  42.3406754  15.1969748  64.8284302  42.4923172
  16.6071453  65.3761902  42.5409775  55.7195740  62.3164635  46.1942444
  55.2983322  61.9115639  46.9524269  56.6445808  62.0869331  46.2832108
  74.2999725   3.8927536   6.5645800  74.4667206   4.8050251   6.3275428
  73.9757767   3.9344649   7.4642406  26.1493168  48.6496353  84.6165924
  25.5662441  48.0720329  84.1240158  25.7620525  49.5196762  84.5202179
   9.8424749  69.0906143   4.9393911   9.4440126  68.4371948   5.5142817
  10.4883289  68.6002121   4.4308558  50.8021545  25.2589245  21.0414410
  50.8656921  24.6225414  21.7536278  49.8735008  25.4884396  21.0074615
  49.6846428  59.8808289   9.7238617  49.2639580  59.3395920   9.0557919
  49.5847206  59.3815842  10.5344172  44.2476387  46.5392914  21.7418194
  44.8886719  46.7119675  22.4313793  44.3485794  45.6071815  21.5489235
  66.3984909  26.5778141  35.6317215  65.6830597  26.5637112  34.9959564
  67.1697311  26.3132420  35.1303062  60.7543907  37.8023949   2.4951165
  61.6506462  37.5221748   2.3095515  60.8194656  38.7499542   2.6139894
  35.8023987  20.3180885  66.7584534  36.7409668  20.2082729  66.6059418
  35.3996925  20.1460381  65.9073029  44.0820808  36.6648216  62.9996529
  44.8390541  36.3704338  63.5061684  44.3726883  36.6232719  62.0885773
  61.9110794  29.9715481  39.5676041  61.8312950  29.0193176  39.6235161
  62.4201927  30.1228943  38.7712822  50.9598045  41.8135529  28.8901863
  50.2248993  42.4042053  29.0553207  51.0499153  41.8039322  27.9372845
  38.8249855  35.1091156  85.4679337  39.1688385  34.2251892  85.5970459
  38.8419037  35.5025024  86.3403931  15.0794497  55.7548714  55.8422890
  14.3981295  56.2686806  55.4086609  14.7835846  54.8481369  55.7614555
  79.2011871  58.1628189  15.7300739  79.4182358  57.9073715  14.8334866
  79.0325470  59.1035461  15.6769285  42.9849358  42.2933617   0.7727324
  42.5792084  41.5508804   0.3251411  42.5898209  42.2924728   1.6445776
  35.9280739  69.4714432  61.1677895  36.4450302  68.6871719  60.9836464
  36.1661034  70.0840530  60.4718933  11.1193686  36.5511131   7.7254877
  11.6799765  35.8105850   7.9569345  11.4393282  37.2723122   8.2674551
  86.5649414  51.9074364  26.6606216  85.8140411  52.3804321  26.3019333
  87.1826935  52.5940514  26.9119778  42.6840897   6.8401971  73.2889328
  42.0822372   6.2152719  72.8846207  42.1167107   7.5272136  73.6386795
  72.1882248  11.5033302  21.8435307  72.3895950  11.4192514  20.9115372
  72.7922668  12.1753302  22.1594086  43.5227966  66.4488983  16.1684799
  43.8314476  65.8708801  16.8662338  44.0837097  67.2219162  16.2321529
  15.1861229  47.1001778  88.5615463  14.5806313  46.3966331  88.7952957
  14.6245947  47.8623962  88.4203415  21.3785019  48.0448608  62.0104713
  21.4644852  47.1030502  62.1582375  22.2637672  48.3345032  61.7899132
  29.3851414  54.1987495  77.8404160  28.4916687  53.8571739  77.8048706
  29.7747898  53.7713547  78.6031342  56.2018890  22.1194229  85.1368332
  55.6874771  22.4780331  84.4136429  57.0025139  21.7958221  84.7238998
  65.6889191  33.5278702  86.8307114  65.4121704  33.6406937  87.7400589
  66.0147858  34.3895645  86.5708542  71.1121902   4.5744610  88.8235092
  71.8677139   5.0749950  88.5154877  70.9442368   3.9407506  88.1260529
  68.4372101  31.3726082  58.0020714  67.6341400  31.1148319  58.4546814
  68.1813202  31.4446068  57.0825233  52.9820671  67.6675339  26.0319653
  53.3930969  68.2014160  26.7118568  53.6505089  67.5904694  25.3511715
   2.6610658  54.6035767  85.3694382   1.9150969  54.1226807  85.7279129
   3.3733628  54.4352188  85.9863052  32.6456985  33.3968773  65.5302505
  31.7271004  33.2473450  65.3065414  32.7140617  34.3452568  65.6404343
  74.0333252  70.8602676  63.5459709  73.7173843  70.9152451  64.4478531
  73.2950439  71.1589050  63.0149384   5.6050234   7.6415534  77.7692871
   6.0460978   7.9145103  78.5737686   5.5027022   6.6943445  77.8617935
  75.1800385  53.2242546  42.8296547  76.0804443  53.2704201  43.1511765
  74.9128494  54.1383743  42.7336121  41.1040764  26.1937885  69.8679504
  40.2912178  26.5542850  69.5136414  41.4346046  25.6220856  69.1750259
  24.4399719   2.5963719  85.0414734  24.9147205   2.1440258  85.7387772
  24.5947533   2.0634201  84.2615814  71.3672485  27.2457886  66.4309387
  70.5829086  26.9233017  66.8748474  72.0053482  26.5390053  66.5284805
  67.4690094  64.6343765  57.1019325  68.3298798  65.0423203  57.1953087
  67.6188202  63.7104111  57.3021202  49.9673119  14.0484591   1.2664635
  49.9735756  13.0913057   1.2734717  49.2654839  14.2878199   1.8717531
  20.2308102  45.7077675  70.4654846  20.5575886  46.5991364  70.5876007
  19.3384342  45.8224754  70.1387787  27.1055946  63.4262772  35.4857063
  27.5761185  63.7842178  34.7328987  27.1737080  64.1061249  36.1560745
   5.8464522  58.4055290  37.7806282   5.7945037  57.6187363  38.3232994
   5.0999260  58.9369736  38.0572128  61.8534966   1.4182062  33.5626602
  62.6554871   1.8869841  33.3318100  62.1586571   0.6116678  33.9781189
  24.0573063  61.6523743  18.5875435  24.9428005  61.8315125  18.9038372
  23.6084557  61.2647171  19.3388691  23.9400177  11.2985630  12.5334606
  23.4008503  11.0659256  13.2893772  24.5211926  10.5475035  12.4135609
  46.7674065  49.6890602  85.6215515  46.6953583  50.6431961  85.6472549
  45.8622437  49.3795319  85.6547470  50.5989151  68.6336670  25.0133114
  50.0050354  68.0275726  24.5703831  51.3224373  68.0835724  25.3135548
  67.6300278   4.4201593  65.5125656  67.0788574   3.6447377  65.4069214
  67.0119858   5.1501799  65.5488968  55.0116348  70.2303162  36.6766319
  54.2475967  69.6684494  36.5470772  55.5892487  70.0222321  35.9422646
  35.5637779  21.8839321  85.4752731  34.7059898  21.6784649  85.1035004
  35.3750916  22.1707230  86.3687897  70.0594177  71.2448578   9.2522373
  70.9310379  70.8735886   9.1156187  69.6372147  71.1865463   8.3951635
  70.4005966  56.6405830  46.4948807  70.3431091  57.5759583  46.2999611
  70.3792191  56.5933418  47.4506760  38.7154388  41.0342865   6.2598977
  38.2312622  40.9567299   7.0819602  38.5256996  41.9208412   5.9528980
  65.1593781   7.2888350  35.7901421  65.7228622   8.0249147  36.0286903
  65.7447128   6.5314927  35.7833366  39.4316177   0.8394908  15.5943317
  39.8325844   0.2567914  16.2392483  40.1288910   1.4512123  15.3580303
   0.6743959  14.5002813  22.6501408   0.1027251  14.9217558  23.2918434
   1.1943760  15.2165298  22.2856674  32.9773369  66.3982849  84.4679871
  33.4190674  65.6482162  84.0698700  32.5251770  66.8242035  83.7397232
  75.4345245   8.5484381  14.5598927  76.3581848   8.4874296  14.3162384
  74.9760056   8.6791706  13.7298946  33.5815811  70.9371338  86.7088318
  33.4193268  70.2648849  87.3706436  33.7361526  70.4462891  85.9017334
  73.8589172  25.7167664  25.0284615  73.9902725  25.3601208  25.9069729
  73.9501266  26.6632805  25.1381111  51.7157784  19.8369293  54.4593735
  50.9341354  19.4046822  54.8035049  52.0466270  20.3538532  55.1939240
  33.0877457  50.4947929  17.5262432  33.8004303  50.7644081  18.1055679
  33.1876068  51.0468903  16.7507133  37.8298073  37.0139008  83.5173111
  37.1030388  36.7138519  82.9714127  38.1061440  36.2337532  83.9981918
  55.8751068  71.1380844  64.6266251  56.4702606  71.7368393  64.1754990
  55.0401611  71.6053848  64.6535339  66.8016815  57.7726784  21.4362164
  67.6516190  57.4886742  21.7726269  66.3468628  58.1249771  22.2012386
   3.8604596  25.7644520  63.1540947   3.6840913  25.3754406  62.2974739
   2.9937222  25.9371262  63.5217628  51.5812569  63.5215683  38.0060501
  52.1588211  62.9847641  38.5487213  51.4137459  62.9851112  37.2312050
  19.8333740  28.3639793  62.2397881  18.9017525  28.2806435  62.0363922
  19.8536701  28.7245770  63.1262360  47.2024460  48.0585899  46.4533348
  47.9890594  47.5299072  46.3193016  47.5325623  48.9127808  46.7319221
  21.8545017  57.2251472  55.6415634  22.6667976  56.7214394  55.5897751
  21.1609917  56.5690384  55.5723114  44.5967255  47.3693352  84.6793365
  43.7798653  46.8703957  84.6733551  44.7886353  47.5257301  83.7547073
  61.3085136   8.8733969  69.5305176  61.2222672   9.7651224  69.8675919
  61.3710518   8.9810972  68.5814514  18.5788803  64.0022583  88.5863800
  18.4620895  63.1441116  88.9940262  18.2289371  64.6213837  89.2270508
  16.6866837  66.4134369  49.8976822  16.2600784  65.5809097  49.6948280
  17.2835274  66.5617065  49.1641769  28.9701500  59.8073540  53.8190765
  29.3403950  60.1378670  54.6375580  28.6010094  60.5811882  53.3934669
   4.5353465  50.0640907  73.0673676   3.5933685  49.8945618  73.0543747
   4.9307427  49.2071838  73.2273636  55.5400848  60.3840599  23.5686569
  55.8366814  59.5937614  23.1173306  54.6763840  60.5624771  23.1966095
  74.7877960  62.5208054  81.0175095  75.4142075  63.2317123  80.8816757
  74.1003113  62.6805534  80.3709106  83.8731003  42.1610527  59.3490410
  83.2651291  41.4232712  59.3968048  83.5847321  42.7543259  60.0426559
  22.6868134  64.7520142  22.7215672  23.5963669  64.8821182  22.4532070
  22.1707134  65.0695114  21.9805737  30.9488392  64.0988998  88.6620026
  31.7393551  63.7279587  89.0540771  31.2670994  64.6052856  87.9146652
   4.8975024  39.3578644  49.3733635   4.2346582  38.7324867  49.6662331
   4.4931626  39.8047638  48.6297073  40.7021828  64.7141495  55.6230354
  40.0595741  65.3593369  55.9180374  40.4847488  64.5628204  54.7032242
  62.4804573  34.6801033  64.2926025  61.9738159  35.2055168  64.9118652
  63.2483444  35.2165108  64.0955124   8.5022182  51.4946098  15.8901606
   7.9403429  50.7198753  15.9078436   7.8977103  52.2310486  15.9821415
  40.5130157  18.6689072  72.7262421  40.3585014  18.1308231  73.5026550
  39.6407471  18.9565201  72.4566956  37.5364723  60.3852196  67.5775986
  37.4569702  61.2078476  67.0946960  37.0807838  60.5473709  68.4036026
  32.7704659  58.8823853   9.8926334  32.1824913  59.6253014  10.0290031
  33.3303680  59.1506538   9.1640902  17.4538708  49.2453537  84.5902634
  17.3642673  49.8076782  85.3596725  16.9846573  49.7105293  83.8976746
  70.8288803  34.3113976  41.7208595  70.0215607  33.9842834  42.1176796
  70.7484131  35.2641945  41.7648392  66.1100159  60.7419281   7.7487116
  65.2470093  61.1409264   7.6380086  65.9456100  59.9565315   8.2705908
  23.0557919   3.7138548  71.2112961  22.7942886   2.8225062  70.9803238
  22.5216293   3.9296975  71.9757004  41.0268898  28.3639641   8.6245060
  40.3512535  28.9740849   8.3286982  41.5287399  28.8581905   9.2726707
  48.1123047   8.2294254  25.5378857  47.9150047   7.9866896  26.4425316
  47.7873840   9.1258888  25.4541378  79.3000641  47.8996315  83.2209778
  79.4192657  46.9909973  83.4973984  78.4753494  48.1671448  83.6265717
  75.3403397  27.0232124  31.8279629  76.2635498  27.0338402  32.0805359
  75.2154694  26.1699276  31.4125786  48.9078941  46.7056732   1.4236822
  48.9657936  46.7547722   0.4694975  48.2162895  47.3260803   1.6539098
  39.4616318  64.8622742  17.5692940  38.9711685  64.2019043  18.0587673
  39.9243431  65.3635025  18.2407894  35.0061226  43.3040733  70.5459824
  35.5915756  44.0567055  70.4621887  34.3986359  43.3902054  69.8112946
  17.5195236  66.1862946  59.6627617  17.3945808  66.9091797  60.2776260
  17.8125648  65.4561081  60.2079086  58.4743347  34.5923576  63.4361954
  57.6239090  34.4335175  63.8457947  59.0265236  33.8737450  63.7442818
  11.0379267  31.2817020  83.8968124  11.0500460  30.5884628  83.2368851
  10.6984301  30.8567009  84.6844330  83.1825333  68.1133499  10.7955914
  83.5582733  68.9860535  10.6796980  82.8118057  67.8966599   9.9401150
   7.3820429  54.9550209  13.3526249   7.9666066  54.4981041  12.7478571
   7.0304542  55.6837997  12.8412590  78.9109116  66.9299393  37.0320625
  79.4808273  67.4772186  36.4917717  78.7916794  67.4314346  37.8386078
   5.5975623  53.7868271  79.4407425   5.8819480  54.6477089  79.1337585
   5.0032973  53.9757919  80.1669464  46.1188240   4.5499263  80.1824112
  46.6011887   4.0215607  80.8183289  46.4354668   4.2481766  79.3309860
   1.2577444  43.4857674  57.0940895   0.9714679  42.5875130  57.2596817
   2.2089889  43.4567413  57.1966705  68.7272110  69.9423065  83.9645157
  69.0968323  69.8025360  83.0926895  67.8936996  70.3844223  83.8032227
  49.8620415  53.0988197  70.2381439  50.5638390  52.9537544  70.8727112
  50.2498436  52.8656464  69.3946609  82.3120956  33.9546623  25.0417137
  82.2006302  34.4687881  25.8413906  82.8917313  33.2370377  25.2971916
  46.7483292  49.9118042  35.1682777  46.5923882  50.0771637  36.0981026
  46.3989105  49.0331879  35.0193672   0.3475611  66.0552521   1.5919654
   0.7687294  66.8913269   1.3924059   1.0646694  65.4212570   1.5980520
  15.7366018  14.5838623  10.7409954  16.6177807  14.2476110  10.9043694
  15.1941996  14.1706562  11.4127789  84.0232773  38.3424187  87.6407700
  84.5704117  37.8729858  87.0110779  84.2588654  39.2627296  87.5234604
  64.3741226   3.2532980  37.5112915  64.7428055   2.7002029  38.2000504
  63.4700317   3.4068332  37.7856712  41.2416878  26.7900944  63.5331688
  41.4003181  25.9758434  63.0556107  41.5184479  26.5998631  64.4295197
   4.0877476  38.7867851  43.3413773   4.8031850  39.1648827  43.8526726
   3.3260090  39.3225136  43.5626907  51.3431816  61.6742516  44.0618019
  50.7143974  62.1962166  44.5602150  51.2545967  60.7896194  44.4165001
  65.3718872  46.6338463  77.7136917  65.4048843  46.8593750  76.7840271
  64.7774124  45.8849106  77.7575150  20.3423023  46.1967430  73.8321686
  19.3990440  46.1475334  73.6770096  20.5406857  47.1328163  73.8068619
   9.8339586  39.7538109  20.2655983   9.6423874  40.6289978  19.9285831
  10.2128277  39.9080276  21.1309929  69.9409180  63.9437752   4.1570807
  69.7246628  64.1892242   3.2575111  69.2803574  64.3850174   4.6911211
   3.8092275   4.3551922  16.2142944   3.7869725   3.4040430  16.3194256
   2.8913369   4.6062946  16.1110649  45.1629944  57.4770050  47.0850143
  44.2696991  57.7633858  46.8946495  45.1439285  56.5291595  46.9528999
  81.2997208  58.3486671   5.9254956  80.8213654  58.9426727   5.3470836
  81.8000183  58.9266014   6.5016246  80.5362778  11.7429800  33.4214401
  80.1149826  11.3581648  34.1899834  79.9995804  11.4530869  32.6837769
  64.9382477  22.3394604  77.9014587  65.0486069  22.1549759  78.8342133
  65.5313416  21.7282104  77.4646072  14.4649773  38.1375999  19.6311550
  13.6082411  38.4748726  19.3694611  14.6468811  37.4353600  19.0066528
  55.8062744  21.9061069  54.9945526  56.3651505  22.6826935  55.0228806
  56.2455902  21.3171082  54.3811111  17.7140656  69.3539200  46.7265511
  18.3970966  69.7191544  46.1641426  17.0184784  69.0957794  46.1217728
  39.4155121  39.6091652  14.2230387  38.4742928  39.4560738  14.1399508
  39.7119217  39.7705078  13.3273029  32.1744118  35.1253510  81.4029160
  31.2211208  35.0513382  81.3583145  32.4886322  34.2248764  81.3214035
   5.2478027  48.4490929  39.8558159   6.0624747  48.0120392  40.1038589
   5.5272689  49.2925339  39.4998169  53.1516876   0.9120646  42.4594383
  52.7944374   1.0621214  43.3347015  52.6216393   1.4658666  41.8862152
  56.5641975  30.2114220  42.3796577  56.8341141  31.0278797  41.9592133
  55.8710594  29.8690968  41.8152046  13.4287682  40.8150597  35.8787575
  12.4737368  40.8071480  35.9426689  13.6724396  39.8913612  35.8184357
  78.6663437  10.3896437  50.4145737  79.5702896  10.4292383  50.7268867
  78.4915619  11.2673874  50.0750885  60.3189621   9.9481325  39.8203392
  59.8465233  10.5760250  40.3669548  60.6704826   9.3084278  40.4395676
  39.5661354  61.1808167  14.4141207  40.3723602  61.6967316  14.4222012
  39.0609856  61.5142212  15.1556702  22.1319351  56.3669586  61.5169525
  21.2442513  56.7078743  61.6266022  22.6242313  57.0970345  61.1416283
  79.8844604  21.5410156  26.5856457  80.1405106  21.6429596  27.5023136
  79.1806641  22.1777630  26.4613209  76.2870712   5.5450902   3.8495882
  75.6736298   5.0797086   3.2809565  75.7296295   6.0111117   4.4727354
  35.4617157  39.8177757   9.6066046  35.6114502  38.8733826   9.6505604
  36.3305206  40.1914101   9.4589310  71.3539505  42.5285225  84.9926071
  71.0727234  42.3739853  85.8944168  71.3773117  43.4817772  84.9090195
  82.9948807   9.5349865  62.6464272  82.1311874   9.4612293  63.0524063
  83.6059494   9.2684975  63.3333130   1.1234293  40.6610413  41.5793686
   0.3769139  40.3607941  42.0978241   1.6336410  39.8684616  41.4128189
  71.7965393  67.6631470  64.6300659  71.5753555  67.8227158  63.7125397
  72.7527161  67.6992416  64.6557159  75.1848297  11.7415133  17.8528671
  75.5600281  12.2361650  18.5814133  75.0297089  10.8676510  18.2113838
   9.8212318  60.8098145   0.1037169  10.2558146  61.6563225  -0.0001635
  10.5170822  60.2164421   0.3864450  76.7930145  54.3192711  75.0127945
  77.4062805  53.7176819  74.5906296  75.9545746  53.8578072  74.9954605
  75.9240799  70.9978256  70.5557098  75.4348831  70.4246216  69.9654846
  76.3343964  71.6418762  69.9785843  42.9572716  46.9330597   0.7082931
  43.4413033  46.5068970   1.4156336  43.6312256  47.3639412   0.1825931
  23.8886719  62.3615456  54.1605568  23.2771225  61.7302208  53.7815208
  23.9894524  62.0809669  55.0701447  22.4408035  11.5612640  64.3993073
  21.6299763  11.0683565  64.5251465  22.2320957  12.4461451  64.6987381
  48.3172035  63.6812820  54.7548676  48.9410973  64.4045792  54.6929436
  48.5223236  63.1231651  54.0047607  76.1058197  29.0370960  58.5253525
  75.7394867  28.1557140  58.5974579  76.9184341  28.9192181  58.0334320
  80.2943192  40.8836937  56.5883560  80.3824844  39.9566116  56.3670464
  81.1422882  41.2656822  56.3619232  65.5199051  47.5815811  55.7366867
  66.1303711  47.7662163  55.0229111  64.8928528  48.3042450  55.7085228
  58.2765312   4.0153837  26.5008907  58.7737503   4.0340862  25.6831760
  57.3969154   3.7423923  26.2401543   1.4457599  18.2943840  51.0071487
   1.0515227  17.4948883  51.3558846   2.1794910  17.9871044  50.4747505
   9.8641062   0.7001643  11.7724543  10.5256567   0.1455258  12.1859255
   9.9223213   0.4884129  10.8407869  22.6335087  57.7718887  63.7188225
  22.5961571  57.2856789  62.8951530  22.0961838  58.5485802  63.5630493
  83.3314285   2.9854577   4.8719931  82.4609451   2.8447978   4.4995756
  83.7459183   2.1230903   4.8444867  86.0689926  12.9986839  65.3128281
  85.2791901  12.9914932  64.7721024  85.8275452  12.5042334  66.0960617
  56.8989525  56.9624786  10.0232077  56.5446815  57.0770721   9.1413946
  57.7944870  57.2957306   9.9667187  44.5002937  52.4535599  79.3798523
  44.1177597  52.6900978  80.2248077  45.2867699  51.9560585  79.6038589
  85.8583145  61.6949196  30.7221375  86.7537460  61.3577538  30.6946182
  85.7997894  62.2810326  29.9676342  51.4751472  57.0555229  17.0471001
  51.3120651  56.2082405  17.4615307  52.2669907  56.9192352  16.5268669
   5.2527151  30.3111992  57.1725426   6.1278005  30.1603985  57.5299149
   5.3175011  30.0384693  56.2573090  24.1472149   9.4204264  21.9870911
  24.9966202   9.8523436  22.0775986  23.9306507   9.1298714  22.8730412
  67.0133591  54.0999031  55.5407143  67.5957031  53.9470673  54.7965736
  66.7753296  55.0245323  55.4726181  50.8933907  30.2442837  44.1071892
  51.6531677  30.1590595  43.5312538  50.4706688  29.3861008  44.0745850
  33.1876831  40.7410545  38.6853180  33.7650452  40.4467354  37.9808617
  32.3299942  40.3821335  38.4577637  20.4139481  23.7852726  64.6022720
  19.8945446  24.5853443  64.6818771  21.0374069  23.8313484  65.3271179
  19.0027199  59.3644409  75.1029282  19.5680580  58.5938110  75.0504379
  18.1355686  59.0121422  75.3033371  11.5499392  31.2006092   9.9574804
  10.7110653  31.3847160  10.3801222  11.9119911  30.4663601  10.4534922
  30.1958771  45.4197540  18.8046741  29.7484760  45.3391609  17.9623146
  31.0308628  44.9696655  18.6764183  81.7875214   9.4590855  49.0301056
  82.2990723   8.7106800  49.3374100  81.4416656   9.8570547  49.8290024
  41.9389877  49.2676010  42.7721443  41.7156372  50.0834656  42.3241386
  42.8952789  49.2712250  42.8137245  63.8668480   1.6566579  43.2606697
  64.7178574   1.5227795  42.8434296  63.4731407   2.3812284  42.7746391
  80.6762238  45.5747871  37.8980026  80.1150665  45.7866974  38.6439438
  80.6847839  44.6180687  37.8688850  66.4741135  37.7982750  21.9113655
  65.9627304  37.2812424  22.5337753  65.8298721  38.1194000  21.2804489
  52.8496094   1.4320747   2.1505668  52.2735481   1.0696452   1.4774897
  52.2734108   1.9675715   2.6959779  13.3520126  54.1295090  11.9421177
  12.9021959  54.1125565  12.7868719  12.8827982  53.4885712  11.4080143
  62.3963966  65.7993698  43.9756775  62.2436066  66.1180496  43.0861092
  62.7536736  66.5547104  44.4426308  74.3790894  17.5238590  27.9389153
  73.6424103  17.2267056  27.4048443  75.0979462  16.9375706  27.7028236
  64.6170044  42.4055405  48.7338142  64.2453613  42.5116577  49.6095161
  65.5275116  42.1542397  48.8888779  40.9692001  67.8020630  86.6678848
  40.6855278  67.5612488  87.5497971  41.2437172  68.7157440  86.7457123
  57.1388359  64.6674881  70.8855438  57.9625244  64.2285995  70.6730652
  56.5953751  64.5468979  70.1068649  16.5620708  18.9870567  70.0848465
  17.0156574  18.1477203  70.0073395  16.8781643  19.3548145  70.9101105
  22.0720100  35.6104774  64.1983719  21.2188187  36.0085564  64.0256729
  22.1491489  34.9160461  63.5441170  46.9961586  20.3073311  65.5810394
  46.3489037  20.2503719  66.2839279  47.0503693  21.2417183  65.3805084
  80.1894379  69.8928909   4.8521152  80.1300430  69.7147903   5.7907219
  80.5246887  70.7878799   4.7989011  32.8606834  24.0852947  84.5471191
  32.0049057  24.3958626  84.2514496  32.6682625  23.2904816  85.0445862
  80.1529541  44.4162674  40.8631554  79.4433212  44.2406158  41.4810524
  80.1433640  43.6666451  40.2680054  85.8976593  29.9079571   7.0545778
  84.9696426  29.9020424   7.2890706  85.9095306  30.1559353   6.1301332
  37.9880447  63.1704445  70.4974747  37.4148026  63.7218056  69.9649124
  38.1634064  63.6929016  71.2801132  70.0747147  68.8231659  53.3986588
  70.5331192  69.3311920  54.0679932  70.7377548  68.2229156  53.0576286
  40.8254776  45.8350449  72.5826416  40.5768089  46.3600388  73.3434143
  40.1456718  45.1638870  72.5222397  69.7343750  27.0306721  17.7811089
  70.4743500  27.0315437  18.3882923  69.3104401  26.1840134  17.9213905
  65.4588547  11.4328318  88.4464340  65.8352966  11.6146479  87.5853500
  64.5402985  11.2308302  88.2684631  10.4828396  54.2071228  19.2684345
   9.6454477  54.6690903  19.3083572  10.2434349  53.2838097  19.1883831
  55.5815468  40.6132240  23.6920013  55.7914200  40.2945366  24.5698528
  54.8317604  40.0848885  23.4182911  58.5949249  61.7509460  17.1917400
  59.2552032  62.4438400  17.2045650  58.8704376  61.1706657  16.4820957
  64.3132629  50.6604080  50.6789207  64.5352402  51.1841965  49.9091148
  63.4587631  50.2816048  50.4725952  20.9202385  42.7576180  70.2849808
  21.2554417  42.4837494  71.1387177  20.8714924  43.7118912  70.3417053
  84.0427094  54.2686005  42.3920631  83.8236618  53.4714508  42.8745575
  83.2647476  54.4509964  41.8650551  10.3234177  57.1197281  16.0265713
  10.5491076  57.6516609  16.7896862   9.3721685  57.0242958  16.0739975
  11.6189575  41.1036377  13.1322231  12.0897446  41.8912621  13.4046926
  12.2672653  40.5927010  12.6475868  44.9158363  14.6383505  81.9909592
  45.1949883  13.7376833  82.1555862  45.6432838  15.0300093  81.5075836
   3.0504489  30.9368362  63.6055489   3.8706117  31.3556614  63.8666039
   3.2834194  30.4095192  62.8414192  62.9386711  58.0171776  36.6188698
  63.6968307  57.4592018  36.4454155  62.1868515  57.4913635  36.3458939
  27.6708927   4.1022935  84.6652832  28.0466919   4.5796304  83.9255829
  26.9767647   4.6747355  84.9919815  21.4775581  49.3386230  48.4236755
  21.2219772  50.2552261  48.5273666  22.4342690  49.3579483  48.3999786
  83.4903870  63.5600624  11.8455200  83.9385681  64.3342438  11.5049295
  83.9854889  62.8214340  11.4912024   3.0285382  16.7650795  53.4306793
   3.8327513  16.5117702  53.8837891   3.3239965  17.3275833  52.7147713
   7.3445010  21.8882809  64.0950775   6.9304128  22.5000896  63.4864273
   6.6129999  21.4720592  64.5510330  67.5678635   2.3642328   4.6154294
  68.2590332   1.9014201   4.1418033  67.8821259   2.4045763   5.5186696
  23.5629997  34.4238701  78.0687561  23.5435085  35.3787613  78.1322784
  24.4915638  34.2085457  77.9813690  36.1040077  34.5912247  80.5572510
  35.8489304  34.4836845  81.4735489  36.4677048  35.4754829  80.5120773
  70.0359650  65.6278687  58.0074120  70.1016464  65.8786163  58.9288483
  70.7990189  65.0701599  57.8559761  81.5153961  55.4007912  56.4724388
  81.5650024  54.6525383  57.0673256  81.9195480  55.0899277  55.6623421
  79.7768784  47.2792473  64.7821884  80.3989487  46.8168144  64.2205658
  80.1411057  48.1602287  64.8684387  68.9425049  39.6118584  50.4531403
  69.6388168  40.0194511  50.9681625  69.3312683  39.4773254  49.5888519
  63.1580200  26.5541210  68.0281906  63.2244797  27.0772171  68.8270569
  63.8116951  26.9316521  67.4396210  48.3555717  21.2740307  58.1497231
  48.7692947  22.0863857  57.8579254  47.8945656  21.5151997  58.9531784
  75.6621780  70.6907349  28.9268436  75.9405975  70.2523041  29.7308960
  75.9623718  70.1147766  28.2237148  67.2972336  44.8730087  49.7001381
  67.2253571  44.0123520  49.2874222  68.1835709  45.1665115  49.4892197
  21.4612617   8.6093197  12.4306898  21.8739281   9.1752234  13.0831404
  21.6533546   9.0302258  11.5927343  57.9456863   6.2549191  59.1671333
  57.6156769   6.3478494  60.0608253  58.8845482   6.4268141  59.2394180
  65.6097565  32.8303070  36.2462311  66.0522232  32.9337730  37.0886955
  65.4016190  33.7239609  35.9736633  72.6141357  18.3756523  75.8250351
  73.3070221  17.7345562  75.6664810  72.6321106  18.9432602  75.0544968
  25.4087086  55.0808640  13.8199968  25.2355766  55.0334511  12.8797789
  25.9297428  55.8765640  13.9277658  27.3067245  69.4339676  87.4799500
  27.0929661  70.2740631  87.0740280  27.9956894  69.0682907  86.9251175
  20.4572048  26.3980255  12.9027967  21.2655640  26.3654518  13.4143858
  20.1272469  25.4996357  12.9188223   9.9879780  41.7736092   4.6787066
   9.3672562  41.0911140   4.9339190  10.5908375  41.3363686   4.0773664
  66.1178818   1.1051637  73.8668900  65.5592728   1.6856812  74.3837891
  66.8945465   0.9734290  74.4106445   2.8459530  40.1188583  80.9263077
   3.5404963  40.2311287  80.2772751   2.9764984  39.2335739  81.2661057
  67.4771347  45.2187271   8.1029387  66.9613419  45.4101562   8.8862324
  67.3059006  45.9562187   7.5172606  48.2871742  63.8074455  87.5747452
  48.6442719  63.4834366  88.4016266  47.7504082  63.0860329  87.2466049
  83.5768356  36.3889732  62.5122223  82.9045715  37.0688286  62.5580139
  83.0944061  35.5886955  62.3047256  58.8283043  16.8602333   9.5798206
  58.1756821  17.1929111   8.9636726  58.6969681  15.9120865   9.5790834
   4.5578547  63.9769554  66.6433640   4.0255351  64.4808731  66.0277863
   4.9926481  63.3188438  66.1010818  34.5809479  59.3560181   2.9748459
  34.1047401  58.6665916   2.5120776  33.8974457  59.9396706   3.3040941
  19.0877571  54.7651443  43.3117104  19.2618904  55.4490204  42.6650047
  19.9253273  54.6380005  43.7572861  45.7057381  61.0263901  38.7397766
  45.7619553  61.6042366  39.5008049  45.2236023  60.2617989  39.0546913
  64.7444000  10.1045933  16.8098679  65.5476913  10.1513090  16.2914314
  64.0681000  10.4656477  16.2367268  66.3135071  20.6260548  46.5171814
  65.5059128  20.8617115  46.0605850  66.6979599  19.9323521  45.9812660
  22.1420307  22.2240200  78.5387573  21.1888084  22.2461987  78.6230545
  22.4574223  22.0625019  79.4279556  60.4582634  10.3414793  13.3628397
  60.0481110  11.2062912  13.3732252  60.1385345   9.9151945  14.1580048
  14.0950851  23.2130585  78.7577362  14.3275681  23.8323498  78.0658798
  13.5761194  23.7279625  79.3756180  64.5809479  11.0470705   2.5672643
  63.8076820  11.6110573   2.5526047  64.2419434  10.1709967   2.3834031
  13.5622950  44.0326958  31.8790817  12.6315403  43.8727264  31.7230740
  13.9929953  43.7448654  31.0741711  77.6028137  69.4476318   1.8515526
  77.8794708  68.5806046   1.5549918  77.6698456  69.9998779   1.0726026
  65.1044846  66.6730194  69.4208984  65.6033173  66.0582123  69.9588699
  65.7685089  67.1447144  68.9180984  76.1651993  64.6045914  63.9187126
  76.5234070  65.2859116  64.4876785  76.9245377  64.2634506  63.4462166
  33.8667984  10.2189617  65.9175034  34.3922043  10.9722853  66.1870956
  34.1511154  10.0368690  65.0218277   0.0517963  32.7723389   5.1762123
   0.4817911  32.9850693   4.3479123   0.7469495  32.8386040   5.8308902
  56.2681046  22.2343483  71.4938507  56.2555809  22.8857651  72.1950836
  55.7655067  21.4978924  71.8420639  76.8402557  50.8980827  85.3921204
  76.3477402  50.7548065  86.2002869  77.2883911  51.7326698  85.5295029
  79.6273956  66.8899841  60.0732613  79.8234787  66.0910034  59.5839539
  78.7174072  66.7837906  60.3505249  61.2966270  57.9112663  72.6551819
  62.0399132  57.5006752  73.0969620  61.5917664  58.0329742  71.7527924
  24.1765842  50.2668686  83.5853348  23.8873558  49.3674049  83.4318924
  23.4702492  50.8088531  83.2338028  28.7327709  65.9611588  40.5056267
  28.0410423  66.0376205  39.8484383  28.5570278  65.1278000  40.9425049
  57.1146698  30.6514874  61.4664688  57.0804749  31.6045380  61.3842621
  56.8455467  30.3271465  60.6070442   4.3818164  69.6878052  56.3491249
   4.1971216  69.2623749  57.1864586   4.4970727  70.6119461  56.5702858
  74.0292892  28.4175453  72.7191238  74.9178391  28.7266865  72.5426559
  74.0323410  27.5040131  72.4333267  11.3171148  48.3249855   5.4835768
  10.9025640  49.0971565   5.8684564  10.8074245  48.1486053   4.6927938
  65.0709381  54.2686691  85.7733383  64.1914597  54.5953865  85.5835724
  64.9344025  53.5729446  86.4164200  38.2461739  45.7357216  76.8727722
  38.5631638  44.8329315  76.8994904  38.1567459  45.9854851  77.7924805
  13.6486330  30.4746094  73.2661362  14.1959896  30.8907013  72.6001740
  14.2666559  30.1842575  73.9369354  50.8837013   7.6181574  88.6315079
  51.1911888   7.2062006  89.4389572  50.9789696   8.5572538  88.7904205
   9.8138685  45.0667725  77.7564850   9.8132181  46.0226974  77.7071457
  10.0467081  44.7814941  76.8729477   4.6241708  13.5560017  41.8008995
   5.0188918  12.9065504  42.3828278   5.1499572  13.5129089  41.0021973
  38.5059509  63.2988472  88.6289978  38.8544350  63.8602028  89.3215790
  37.8837090  63.8550301  88.1602707  36.2560806  39.3469276  59.8193779
  36.4424858  38.4222984  59.6564407  35.3816147  39.3499870  60.2086525
  42.2369995   8.2861500  85.6084442  42.4743347   8.3486576  86.5336456
  41.7464752   7.4668937  85.5418320  36.4826431  47.4351921  54.3194962
  37.1239586  48.0992508  54.0665627  35.6394424  47.8855629  54.2703819
  23.1422348   3.5740039  48.5680046  22.5177860   3.6354344  49.2908630
  23.9947338   3.4875903  48.9946327  64.6733475  37.6361465  60.2396851
  64.7776260  38.1544533  61.0376320  63.7265625  37.5347214  60.1419868
  83.7700348   5.5129724  55.9827080  84.2657013   5.8653846  56.7218666
  84.1255341   5.9660530  55.2181358  75.6587906  44.8752098   3.9546266
  75.5381699  44.1701355   4.5906730  74.8881836  44.8222198   3.3893018
  30.4087067  14.3410416  87.9777527  30.0308189  14.0348635  87.1533203
  30.2053375  15.2760782  88.0018005  13.5046625  41.5311432  33.4356728
  13.2851667  42.4482460  33.2714348  13.1435328  41.3501358  34.3034592
  28.6540241  68.1455231  28.6597595  28.3843765  68.1560059  27.7413845
  28.8347473  67.2241364  28.8458195  62.4646339  39.9247627  82.2061615
  61.7240601  40.1257324  81.6339798  63.1232719  39.5486259  81.6222534
  77.7477036  64.9596558  39.3046532  78.0738068  64.8190308  38.4157715
  78.0350037  65.8450089  39.5279007   4.3830862  12.6174183   3.0264528
   3.5800991  12.4954071   2.5199380   4.1725569  12.2752380   3.8952575
  53.0460358  40.6857147  18.2307606  52.3204765  41.2426491  18.5129242
  53.2792778  40.1826363  19.0109806  65.1178284   2.8580143  20.7202644
  64.9216537   3.7500639  20.4339123  65.8134079   2.9623799  21.3694935
  83.7953873  -0.1992817  77.3247681  82.9747391  -0.1033385  76.8414841
  83.6702423   0.3250662  78.1157379  86.1538467  54.7992897  86.0975723
  85.5385895  54.1050720  85.8614655  86.6495361  54.4399719  86.8333893
  34.6552620   9.2516708   5.6967921  35.3068581   9.9528112   5.7043891
  33.9665833   9.5710220   5.1137242  47.2005615  64.0680847  68.7849808
  47.1198006  63.6389160  69.6367569  47.5965538  63.4051552  68.2193451
  67.3201981  46.8609810  42.5742912  68.0649185  46.7758942  43.1695900
  67.5845718  46.3805161  41.7897606  44.1231766  68.9062881  34.9702568
  44.8089638  68.4511261  34.4816284  44.3474808  68.7611923  35.8894234
  33.9219017  60.7887840  15.3026133  34.1572990  60.7810669  14.3748407
  34.7218246  61.0642052  15.7503872  31.4358425  23.0653553  64.8049469
  31.1093140  22.7327042  63.9689102  31.4999504  22.2900372  65.3626175
  34.1332359  17.0063248  67.6104431  34.4673042  17.6644974  68.2199020
  34.8776817  16.8052635  67.0433426  38.5377998  64.2765656  20.7924709
  37.7707710  64.0511322  21.3188553  39.1512794  64.6639862  21.4167938
   9.0177584  65.9931335  38.9784317   8.3680191  66.5871506  38.6026421
   8.6428661  65.7285614  39.8184853  34.5705795  20.1705399  64.0271606
  33.6530380  19.9770851  64.2193222  34.7592964  19.6713009  63.2325706
  82.4926071  12.4346504  15.2575960  82.9623795  11.7844076  14.7353649
  82.7735138  13.2770872  14.9003515  32.1089439  52.6784554  31.5877571
  32.6667976  51.9987411  31.9659348  31.3783073  52.1988869  31.1973553
  26.0117569  50.3212318  51.3661385  25.3521729  50.7888069  50.8537369
  25.6826935  49.4238892  51.4183121  20.5804386  41.2242203  12.7474461
  20.9093685  41.6880646  13.5174370  20.5318584  41.8950310  12.0663557
  33.4006348  49.5866241  86.4685287  33.0135117  48.7697754  86.1536789
  34.3447800  49.4325867  86.4354477  81.1457367  18.6130619  68.8033600
  81.8178940  18.5472088  69.4816666  80.7950821  17.7257080  68.7266922
  68.6605072  22.5950069  45.8340149  67.7291183  22.5074253  46.0366859
  69.1017532  22.0756340  46.5061607  55.8232994  11.5985899   8.2464857
  55.7417679  12.5359716   8.0707016  56.5464172  11.3122730   7.6884923
  83.6973953  42.7762337  31.3942757  84.2874832  42.2087173  30.8983288
  82.8231583  42.4336014  31.2084370  20.4104443  15.2030821  11.1440926
  21.0649185  14.7483702  11.6743107  20.7379227  16.0999889  11.0766611
  52.8493423  31.7477894  36.2972794  52.3378525  31.5739975  35.5070877
  52.5811615  31.0642414  36.9113426  74.5927429  68.9280853  69.3459091
  74.8929443  68.0193329  69.3627167  73.6377945  68.8646011  69.3292847
  56.4923477  23.1805820  69.1385651  56.3497620  22.7244167  69.9679108
  56.1346970  24.0567055  69.2825317  57.1798782  17.7563381   7.5695996
  57.0838585  18.6998272   7.6993680  56.4316292  17.5121136   7.0248919
  64.1696091   2.7518785  75.0152283  63.8038254   1.8678682  75.0461807
  63.6374931   3.2530339  75.6332321  67.1162949  65.1666641  70.8454361
  67.5326157  65.1225510  69.9846420  67.6229858  65.8233719  71.3231735
  79.0645752  69.7578430  15.7274971  78.2514954  69.8868866  16.2158413
  79.3316498  68.8633423  15.9390688  62.5545311  32.9045753  81.1952133
  63.0531311  33.3093262  81.9050064  62.3791237  32.0152016  81.5025864
  84.6940384  28.2135887  64.5919876  84.2862549  27.8589859  63.8019180
  84.9293976  29.1113453  64.3577499   6.0658979  25.5396290  82.0033646
   5.5874119  26.0423050  82.6626053   6.7844954  26.1141090  81.7391205
  45.5815392  34.4501610  11.1595697  45.8056450  35.1317863  10.5260086
  44.6437683  34.3052444  11.0338097  86.1506805  41.6779747  84.7268219
  85.5497055  40.9355354  84.6647949  86.9144745  41.4112473  84.2152405
  45.0452766  45.6165924  59.7124634  45.7635460  46.2152481  59.5076866
  45.4467773  44.7477531  59.7003021  73.3013000  47.9167404  72.8791046
  73.4750519  48.4392929  73.6620331  72.5921707  47.3277016  73.1368027
  37.9088478  31.2052479  19.3733215  38.0446777  30.4021111  19.8760681
  38.0070839  31.9088707  20.0148010  70.9262390   8.6293688  13.5876837
  70.4971695   9.4704647  13.4305563  71.4624634   8.4847040  12.8080902
  28.0353088   3.1115649  65.9104462  28.6353073   2.5361092  66.3848724
  28.6037006   3.6431174  65.3531189  86.4021225  51.1212349   6.1614680
  85.6807556  51.2025070   6.7853713  85.9900589  50.8000755   5.3594117
  32.8780060  69.1650925  14.7483597  33.4468994  69.2955246  15.5070286
  33.4664993  69.2200470  13.9954386  81.0337219  21.5848122   2.5860386
  81.4146423  21.5114841   1.7109653  81.0189590  20.6867199   2.9168618
  27.5314083  61.0946159  77.9593582  27.0793800  61.4629364  78.7184677
  28.0129490  60.3444481  78.3080750   4.4275074  64.5887756  34.6551628
   4.3010864  64.0240173  33.8927307   3.6901131  65.1984177  34.6265526
   3.2410371  56.2668304  27.5956039   3.3711419  55.5344658  26.9931526
   4.1254616  56.5175285  27.8623905  43.1238747  43.1739311  58.7414703
  42.6286659  42.3582001  58.6667175  42.9247398  43.6497612  57.9351463
  85.8578262  33.9865036  11.1830778  86.0509491  34.1235733  12.1105175
  86.5748901  34.4219856  10.7222004   1.1574388   0.7973509  67.7169876
   1.9457620   0.3047879  67.9453735   1.2886233   1.0488645  66.8027878
  10.1178303  54.0528679  82.3562164  10.0679617  54.8443336  81.8201904
   9.3240709  53.5648232  82.1371460  25.9533596  59.8823853   2.0100591
  25.4590874  59.2930794   1.4402838  26.3275547  59.3100014   2.6798255
  84.3743973   8.2072897  54.9427795  84.4399948   8.3207293  55.8909645
  83.5474472   8.6282301  54.7078400   7.5188437  10.5804186  10.3464279
   7.1969814  11.4673080  10.1849842   7.2080679  10.0726881   9.5968552
  36.1504288  58.4345665  13.4595633  35.4972343  58.8900223  12.9284086
  35.6448860  57.8033180  13.9716043   3.0013916  24.7992363  73.7527618
   3.4692357  25.0692310  74.5429916   2.0955017  25.0669079  73.9075089
  67.3599243  68.0718079  88.4370956  67.7617035  68.2419815  87.5851288
  68.0775681  67.7441254  88.9791718  45.9477272  56.2116547   5.2174473
  45.8628616  55.5427284   4.5380597  45.3762779  55.9097672   5.9235220
  16.9578819  20.8615265  77.1145935  16.2164516  20.9440918  76.5148468
  17.4362316  21.6850872  77.0188751  22.6928082  28.1855202   6.7613182
  22.5773659  27.5725117   7.4873519  22.4273529  27.6910915   5.9858794
  84.2190781  32.0535889  60.3017464  84.3828583  32.4193840  59.4324951
  84.9747543  31.4910164  60.4711380  75.7436981  15.5407219  67.1501312
  76.1432190  15.5136824  68.0195541  74.9285278  15.0481920  67.2457123
  68.6047058   5.0830727  88.9751816  69.5329742   5.1955204  88.7704849
  68.4749756   4.1347661  88.9859161  68.7150192  38.4192963  62.1472244
  69.0230331  37.7267151  61.5626793  68.7013397  38.0128784  63.0137520
  42.1731720  52.5411949  65.4365082  42.6411781  51.7950401  65.0617371
  42.2327690  52.4105034  66.3828735  51.6317825   9.8851585  45.6341667
  50.7885094  10.3379383  45.6448212  52.2642517  10.5503664  45.9056625
  29.4361916  47.3803291  86.6303864  28.5237026  47.1827164  86.8414459
  29.9443340  46.8455811  87.2403564  22.9457550  62.4449615  75.9374619
  23.8090878  62.0356789  75.9955902  22.8002815  62.8215179  76.8053818
  31.5516624  52.0844879   3.7798486  30.6155472  52.1344376   3.5863922
  31.5936775  51.9476585   4.7262864  47.0142746   2.0978074  87.4597321
  46.2781639   2.3140986  88.0320892  47.3188438   2.9437091  87.1312256
  38.2336349  39.5738831  26.1083813  38.9666290  39.0985184  25.7172585
  38.4817543  39.6834755  27.0263443  69.9001083  18.9154835  15.5888863
  70.0327988  18.1196270  16.1038971  70.4150772  19.5828629  16.0423603
  68.5961761  48.7214584  77.5931625  68.7009430  47.7754135  77.6944046
  68.2308731  48.8293648  76.7150192  19.0005798   0.7330171  58.5701599
  18.4143295   0.1768830  59.0832443  18.4201488   1.2095978  57.9766960
  79.1864319  30.8337364  64.8232956  79.1305771  30.2583237  65.5861893
  79.0065384  31.7080040  65.1690216  26.9522038  63.3502312  43.7796936
  27.3268909  62.4766731  43.8925400  26.8497715  63.6838760  44.6709976
  13.4518261  17.6018848  79.5916443  12.5095158  17.6745510  79.4399719
  13.7014198  16.7843666  79.1608276  30.2488880  48.0824699  80.4144745
  31.0895519  48.3759117  80.7657700  29.8697243  47.5501747  81.1138535
  31.2527294   3.8372638  67.2584686  31.1530151   2.8855414  67.2358093
  32.1445351   3.9771373  67.5768280  28.2991581  15.5146942  66.0207443
  28.6756878  16.3441277  65.7266388  27.3786659  15.5647745  65.7630310
  80.1926422   1.5634571  84.9229279  81.1380463   1.7128747  84.9121246
  79.8568726   2.1992638  85.5547791  60.8904991  55.0004120  29.5789051
  60.7378197  55.4582405  28.7522774  61.8357239  54.8508072  29.5988083
  55.6157684  59.6879196  16.1842651  56.2236481  59.7926712  15.4523191
  55.8569641  58.8493538  16.5777893  56.0935822  55.0872688  74.8897476
  56.5271988  54.2463989  75.0351715  56.4331932  55.6547279  75.5817642
   1.8602670  25.0407581  18.9728813   2.6637568  24.5406227  18.8296986
   1.1561574  24.4062996  18.8389969  41.9231567   1.2291749  88.3108978
  41.4286766   1.8665760  88.8261108  42.3716621   1.7536187  87.6475525
  61.8667030  27.1331577   0.0890279  61.5932388  26.8732891   0.9687543
  62.0331497  28.0732574   0.1578663  64.9086151  12.5448332  66.3861618
  64.7590942  11.9433641  67.1156235  64.6086960  13.3939791  66.7105560
  13.9524479  13.7851391  12.5888815  14.5776796  13.9029608  13.3040276
  13.1747704  14.2680264  12.8686476  50.3529701  67.8165894  50.4156380
  50.3748245  66.8597794  50.4319572  51.2029800  68.0694733  50.0554123
  81.8201141   9.0187197  53.9497795  81.5476303   8.2057753  53.5242119
  81.1655045   9.1623802  54.6332092  71.7855530  32.2973289  20.3649578
  70.8946762  32.5223274  20.6332035  71.7277679  31.3839626  20.0844994
  59.8044739  60.1198578  15.2971382  60.4523239  60.7173653  14.9236298
  60.2445297  59.2699928  15.3146687  61.4794693  15.7334900  16.8851528
  62.1293068  15.0482407  16.7290249  61.0259705  15.4565926  17.6813316
  84.2677460  55.1606636  81.0335541  83.4204636  54.9603348  80.6357880
  84.8362503  55.3713417  80.2928391  23.1930695  40.4560585  87.1000977
  23.5101109  39.5532494  87.0746155  23.9591103  40.9719124  87.3517075
  70.8207092  46.4639130  76.0356140  70.1815796  46.0817184  76.6370010
  71.2157593  47.1817627  76.5304413  76.3451080  51.0401802  54.9927826
  76.9761581  50.8685150  54.2938271  76.6076965  50.4533958  55.7019806
  22.2594261  19.5803852  68.6090393  22.5792236  18.6813908  68.5330505
  21.4778786  19.6040535  68.0569077   9.4603424  60.4641571  81.1451797
   9.2653456  61.2255859  80.5988922   9.4374514  60.8000603  82.0412140
  68.9960251  36.6129608   2.7864439  68.2587509  36.4195061   2.2074549
  69.7012711  36.8777428   2.1958909  68.1508102  53.4535027   2.4001944
  67.5690536  54.2120514   2.4491591  67.6995773  52.7729645   2.8996840
  41.8028336  45.3319397  35.0581894  41.9333801  45.0254860  35.9555626
  41.0009422  45.8531570  35.0973625  53.4330177  56.3420982   0.1198073
  54.2982330  56.2969284   0.5267401  53.0619736  55.4691658   0.2484352
  25.9455566  56.1640549  66.9054565  26.4735012  56.4174690  67.6626205
  25.2551231  55.6099930  67.2695312  52.9447327  27.7211914  35.2153053
  52.1440697  27.3348866  35.5701866  52.9400978  27.4746170  34.2904205
  34.5241280  43.3959198  64.9627457  33.7633057  43.9242630  64.7214127
  34.6919899  42.8521614  64.1930847  18.2490025  40.9221191  50.3389969
  17.4217644  41.3771210  50.4967308  18.4250813  40.4552078  51.1558342
  39.9037323  46.8281822  70.2406921  40.0201340  46.4173317  71.0973663
  39.1308403  46.3998795  69.8726883  37.3237572  51.2296486  15.4271545
  37.8843651  51.7596474  14.8605375  36.4372025  51.5425301  15.2472734
  33.9396095  66.3265839  24.1807022  34.7400932  66.6716003  24.5762062
  33.2437172  66.5828629  24.7859211  21.4372559  31.7104855  86.7937622
  22.0975361  31.3999805  87.4133148  21.1476288  32.5492249  87.1527405
  43.5002174  50.1879578  66.3671036  43.6034050  49.2615471  66.1495209
  43.3966370  50.2004166  67.3186035  44.2808990  65.2028046  27.3839874
  44.6251373  65.2092667  26.4908504  43.8773270  64.3400421  27.4788857
  13.1019716  24.1477795  81.3908768  13.8068705  24.0646038  82.0330887
  12.4847946  23.4533787  81.6213760  38.5253754   9.6675396  72.1331863
  38.7204323  10.0722723  72.9783936  37.7020798  10.0712938  71.8585968
  62.6624947  19.1574783  31.8463650  61.9031563  19.6373386  31.5156479
  63.1360550  18.8869419  31.0597382  76.6157532  27.7685795  23.5381355
  77.0428391  28.2989826  22.8654537  75.6890259  27.9989223  23.4721985
  46.7023430  36.3884697   9.1987019  47.1594391  36.6457405   9.9993954
  46.5153999  37.2149734   8.7535353  79.6449280  41.1790237  65.1316605
  79.8782959  41.5288658  64.2717819  79.1203461  41.8695717  65.5368576
  54.9441490  33.2276917  68.0602951  54.2876587  33.2667503  67.3647919
  54.9036331  32.3254929  68.3775101  73.4817963  42.1275291  17.7446289
  73.2174530  41.4594383  18.3770905  74.3604279  42.3862457  18.0226650
  57.1581345  45.3916473  30.7111416  56.5098114  45.4496346  31.4129562
  57.9740753  45.6890678  31.1136532  10.1934118  17.4106655   3.8019319
  10.3189363  17.8320675   4.6521649   9.5632458  16.7105961   3.9722979
  54.0347710  11.9912386  82.8956299  53.0944328  11.8986282  83.0486603
  54.2190399  11.3956203  82.1693268  74.9406967  39.2212982  58.1037483
  74.7933960  38.2755241  58.0967903  74.4733734  39.5421638  57.3324623
  50.8673401  56.2974243  59.4352417  51.3803749  57.0688286  59.6759949
  50.0280495  56.4199524  59.8788795  44.6592064   6.7341533  76.1176224
  44.2187004   7.2345471  75.4307480  43.9467278   6.3475380  76.6266708
   7.2909956   3.7139382  86.3203430   6.6376181   3.4671013  85.6658249
   7.0829339   3.1731625  87.0822525  44.7840576  67.7731628  65.4497681
  44.9154701  67.0242310  64.8683395  44.9174156  68.5376816  64.8894501
  51.7092476  21.3297653  56.8689728  52.3311844  22.0039005  56.5951691
  51.1489563  21.7670155  57.5101585  49.7259445  38.7221985  39.8477821
  50.3071327  39.2089996  39.2634239  49.9920425  37.8086357  39.7437172
  39.6008492  51.6631393  25.2086124  39.7487144  50.7177696  25.2339401
  38.9248276  51.8175888  25.8684387  75.7787323  42.7752151  22.6809883
  76.6814728  42.4830437  22.5547562  75.6906357  42.8782883  23.6285362
   4.0900054  61.7871819  40.6140366   4.5283461  62.3944855  40.0179901
   4.6620178  61.7491379  41.3805771  32.5398254  66.2643661   8.9152679
  31.6566162  65.9187088   8.7860460  32.7896767  65.9626999   9.7886553
  36.7877388  25.9600735   5.2733827  36.2280731  26.2179852   4.5409298
  37.2615395  26.7587147   5.5055757  46.8794441  12.0909929   5.2908211
  47.2764702  12.6819839   5.9306121  46.2532616  12.6376181   4.8161345
  54.6964035  25.9499664  27.4994793  53.8721733  26.2671967  27.1303768
  55.3285522  26.0400257  26.7863789  57.5839348  33.1825867   1.4526731
  57.4650383  33.1480713   0.5035136  58.0938492  32.3991852   1.6588273
  16.2468758  55.0791359  44.1859818  17.2014771  55.0087471  44.1819458
  15.9705925  54.6352501  43.3841934  81.9478455  22.6837273  88.0808792
  82.2733307  21.8576984  88.4386063  82.5883408  23.3362770  88.3640366
  74.5692902  14.6633005  34.1623726  74.6910858  13.7575722  33.8776741
  75.4147720  15.0813789  33.9992905  61.7243805  16.8907089  84.5163498
  62.5002785  16.3703842  84.3078461  61.0080643  16.4439545  84.0652008
  66.7250900  70.9107437  19.0044460  67.5270157  71.3918839  19.2085152
  66.4121552  71.3017883  18.1887321   2.7893012  10.0943918  25.4849052
   3.5658555  10.0345783  24.9284725   2.3225715  10.8654699  25.1626740
  60.8891449  67.3538361  67.9094620  59.9997597  67.1634521  68.2077560
  61.4500237  66.8209457  68.4730911  37.0182686  53.5538902   1.6711116
  36.7505608  54.4187164   1.3602476  36.6049080  53.4696922   2.5303426
  14.3965321  37.1571960   6.8912840  14.8960714  36.4438934   6.4939289
  14.9890003  37.9085197   6.8643575  81.4884720  45.7435417  78.4703140
  82.4075241  45.4761581  78.4788742  81.1769867  45.5023918  77.5979233
  26.4277420  19.4336338  75.5556564  25.5223751  19.6520576  75.3346710
  26.8803749  20.2768917  75.5721664  78.9915619  28.6863632  70.2707672
  79.9266968  28.6734695  70.4747086  78.6077118  28.0424843  70.8659973
  66.6030731  67.2229462  56.8173103  65.9040680  67.3421860  57.4602776
  66.7989273  66.2864761  56.8473396  46.4895134  65.8440704  39.5035629
  47.2452164  65.2817383  39.6736259  46.8003502  66.4723663  38.8517494
  10.8067169  69.0007324  56.1455612  10.3600988  69.8472137  56.1304054
  10.1217871  68.3648148  55.9388962  28.1982422   1.3460197  84.5023651
  28.7364693   1.1476064  83.7360916  27.7685204   2.1733856  84.2854919
  45.0271912  57.2256966   2.7893703  45.2060547  57.3136482   3.7255881
  44.1127777  57.4921837   2.6941564  47.5619850  37.1606331  19.6727753
  47.0722618  37.3289604  18.8677502  47.7758064  36.2284889  19.6325817
  46.8180237  58.1007881  21.4928570  47.0550613  57.7189407  20.6477318
  47.2761955  58.9409714  21.5130196  16.4845295  62.2991562  86.1857986
  17.0215092  61.5074005  86.1541290  16.5110188  62.5699730  87.1035080
  16.8532906  16.1655445  20.0309906  16.7636776  15.2884235  20.4036312
  17.3859787  16.6427765  20.6671696  26.6875114  51.3038483   7.8120313
  26.0973911  51.6590691   7.1473427  27.3239441  52.0022354   7.9651375
  80.2726135   4.5664692  60.3752975  80.0320206   4.7639537  59.4701195
  80.9225922   5.2319150  60.6009979  75.3149261  60.7061386  63.7181282
  75.3692627  59.8624077  64.1669006  75.8931274  60.6124344  62.9610710
   2.0327852  69.9340973  54.7668304   1.9839929  70.7713776  54.3055153
   2.7466006  70.0476379  55.3943710  64.8228607  58.1418991  23.4711304
  64.7252579  59.0652771  23.2385807  64.6959152  58.1190643  24.4195995
  79.7982559  67.1968536  16.2112999  80.6805115  66.9972610  15.8982096
  79.4434280  66.3504639  16.4832420  83.2507172  19.2486477  19.5192604
  83.4791718  19.1384792  18.5962753  84.0923843  19.3487053  19.9640312
  32.9866982  43.3235435   4.1531281  32.1226768  43.4081955   4.5562773
  32.8254700  43.4328423   3.2159567  39.7270813  57.6294289  61.2765884
  40.0736732  56.8352470  60.8699188  40.4678307  57.9929428  61.7617531
  52.0079498  45.7976990  18.8399906  52.4587097  45.5465469  18.0337830
  51.2982597  45.1611481  18.9258690  10.1035500  63.2603378  60.0021858
  10.2072039  63.6711540  60.8605118  10.9328251  62.8064270  59.8521919
  51.9032135  30.0735188  20.8237057  52.4840546  29.7999458  21.5336437
  52.3284149  30.8455811  20.4504051  38.7036591  45.3156242  86.4899521
  37.9450531  45.0497322  85.9702911  38.3763885  45.3552628  87.3885956
  11.3405704  10.7929573  70.0231705  11.1685467  11.7012615  70.2714081
  12.0984297  10.8432875  69.4406357  57.8154488  50.1457825  39.6527786
  57.8352051  49.2482491  39.9848595  58.7370224  50.3854713  39.5553932
  11.0170593  61.7900963  29.5208721  11.7417288  62.1345291  30.0428391
  10.3243513  62.4444351  29.6115818  46.7124214  52.1684151  13.0244770
  47.5882072  52.2704926  13.3970480  46.8637733  51.7985725  12.1546841
  22.1550674  45.2912254  25.6376400  22.8678188  44.9909248  26.2015858
  21.3792343  45.2649422  26.1976604  13.1115971  65.6800079  52.2780609
  13.0489311  66.4577866  52.8324699  12.2687349  65.2396317  52.3870697
  19.0732555  55.8420982  57.4218712  18.3908672  56.1252861  56.8132820
  19.7540073  55.4691734  56.8617516  39.6476440  61.7823563  53.8357391
  39.2486572  61.9971085  54.6789017  40.4241638  61.2703133  54.0616989
  80.7330475   6.9629951  52.5165749  80.1118088   7.2911062  51.8664703
  81.0500641   6.1376681  52.1497383  85.8725510  68.6653748  60.2313614
  86.2128067  68.2340164  61.0151901  85.0774841  69.1083527  60.5277824
  85.0498276  48.1835632   5.2890692  85.2189636  48.0056381   6.2142549
  84.5756226  49.0150375   5.2878637  79.4070282   4.7244573  51.2964096
  78.9449081   4.3174553  50.5635834  79.7324142   3.9874969  51.8133659
  82.7354431  71.2976379  14.1574955  82.2742157  70.6569672  13.6161566
  82.1047974  71.5350876  14.8373032   5.4159069  56.8826370  73.8681870
   5.0689878  56.4305000  73.0991211   5.0201044  56.4283142  74.6119308
  39.4065514  68.9548721  76.3052902  38.9412994  68.1525192  76.5419540
  40.3282776  68.7539520  76.4674225  52.7446404  54.9631805  22.9368172
  53.0350647  55.7004051  23.4738350  52.5287666  55.3540039  22.0901260
   8.9639206   6.4576654  79.7634277   8.8076038   5.5643711  80.0697250
   9.8172941   6.6904130  80.1292343  58.0708923  54.4542618  62.8709259
  58.9158630  54.0057411  62.9038963  57.4427719  53.8054199  63.1882591
  74.0215607   0.5800475   2.1810873  73.8306580   1.0606004   2.9866045
  74.4353867  -0.2303880   2.4780333  74.2161942   0.6478188  21.5554676
  74.5398865   0.4561537  22.4356499  73.3899536   0.1684040  21.4944592
  62.4065971  39.2456741  48.4880333  62.3257332  38.9629974  49.3989601
  62.9138260  40.0561905  48.5329018  16.8883553  21.3240700  15.4309998
  16.6523933  22.2506523  15.3862724  17.6632748  21.2471161  14.8743935
  66.4355011  30.0933704  22.1198368  65.6845093  30.6868687  22.1207218
  66.1672134  29.3667679  22.6822453  29.1347408  36.3667336   6.2043581
  29.7113247  35.6046104   6.1500163  28.7870235  36.3409233   7.0957952
  58.9136925  41.5520897  88.8481903  58.5627289  42.0607071  89.5791931
  58.2070656  40.9503860  88.6139603  52.2931290  35.1975708  86.0717773
  53.0059547  35.8335152  86.0111313  51.5659294  35.6075096  85.6034164
  58.8825417  17.8460503  33.6872597  58.4471207  18.6642761  33.9263191
  58.7370415  17.7637978  32.7447662   6.6985025   2.7740982   5.5929561
   6.4111791   3.6831074   5.6788573   7.6505475   2.8142419   5.6836824
  81.5378342  25.6521568  57.7607307  81.5103455  25.4262753  56.8309708
  82.4683609  25.6334496  57.9843483  32.9284439  66.2929077  39.0004082
  33.7737350  66.1299133  38.5819016  32.4447975  66.8213577  38.3655357
  21.6610832  32.2443848  35.6178131  22.2134933  32.1429329  34.8427086
  21.7271748  31.4037132  36.0707283  83.7118530  46.4721489  72.8494949
  84.3416672  46.2732353  72.1566772  83.8600616  47.3963547  73.0497818
  60.5116730  51.0172424  34.1044807  61.2017899  51.5326767  33.6869926
  60.9077682  50.1575813  34.2470322  62.3831444  56.6874275  11.8274803
  61.8991318  56.3046036  11.0957613  62.5241051  57.5987282  11.5707817
  12.1497641  60.5865746  21.6641121  12.8612719  60.3412437  22.2555523
  12.2780075  60.0341034  20.8930340  84.9586716  39.0117722  48.9169807
  84.4271622  39.7994576  49.0322418  84.9088898  38.8242836  47.9796448
  19.3232937  49.2059593  78.6441727  18.6725464  48.5040970  78.6320343
  19.9624710  48.9514885  77.9786453  11.4142447  56.4485130  20.6916275
  12.3672590  56.4303627  20.7791862  11.2051649  55.6630363  20.1861172
   7.9008780  65.0859299  41.4755402   8.5740213  64.6918259  42.0303268
   7.4364586  64.3399887  41.0959053  60.6476364  13.1915159  74.7465515
  61.4228249  13.2252035  75.3070679  59.9412460  12.9164295  75.3310013
  86.6459351  40.2826843  36.9579277  86.3115692  39.4248428  37.2197113
  86.3529816  40.3878975  36.0527534  32.6055374  31.4726429  73.7929764
  33.1891479  31.7414284  73.0834808  32.7687149  30.5350018  73.8951187
   2.1733313  61.3603134  59.0208168   2.1642096  60.6790810  59.6931763
   1.3093287  61.7678719  59.0810509  73.9420776  29.9462719  15.5451307
  73.7604218  30.6489658  14.9210691  74.1139374  30.3981361  16.3712730
  12.3437948  35.0739174  79.6172867  13.2501783  34.8346519  79.8108139
  11.9343634  35.1760330  80.4764557  76.5183640   0.0632894  45.8694077
  76.7283630   0.0831905  44.9357414  77.3661194   0.1396258  46.3072586
  12.6258907  39.8127289  68.7086563  11.8464308  40.3197708  68.9357758
  12.7052975  39.1678162  69.4115143  25.6513805  36.4459000   8.3334322
  26.1051025  37.1202507   8.8390188  25.4994526  36.8490105   7.4786506
  73.7403564  16.4603958   7.5513735  73.8701324  17.3264847   7.1650038
  72.7949448  16.3174553   7.5067844  79.5868683  16.4047298  75.1578827
  79.0480881  16.8865929  75.7853775  80.2229996  17.0478401  74.8448639
  50.3231926  43.6246376  59.8501587  50.7328796  44.4820976  59.7354813
  49.4245834  43.8219490  60.1143684  77.1627502  40.2695389  29.2055531
  76.7857742  40.3193245  28.3271217  76.7174835  40.9599609  29.6967583
  68.7686310  23.3291759  79.8677368  69.7011795  23.1364059  79.7706604
  68.4052277  23.2017899  78.9914093  86.2294159  31.2035542  58.5530396
  86.2390137  30.4055614  59.0815735  85.9423141  30.9138489  57.6870842
  57.4110222  53.1330833  84.3712692  56.8532104  53.8747139  84.6059189
  56.8131981  52.3865280  84.3326263  82.8823013  41.5211143  56.4357262
  83.3265381  41.0612068  57.1480293  83.5888519  41.7999001  55.8532257
  22.1818085  42.7571831  50.3631592  22.4093361  42.0011940  49.8219185
  22.9331570  43.3446579  50.2820282  75.7554626  16.1567650  46.9471397
  75.6489563  15.4463902  47.5797958  75.5985489  16.9538574  47.4533539
   5.9905858  29.3909645  42.6320267   5.9329429  28.7129841  41.9587860
   5.1859660  29.8992271  42.5296135  14.6116219  56.0243721  10.4286003
  14.2728634  55.5345802  11.1779881  15.5493584  56.1082191  10.6013737
  16.5574913  58.1135216  43.9560432  15.8247166  58.2009964  44.5656509
  17.0206871  57.3288841  44.2493401  20.1342907  66.5273819  76.3739853
  20.5116997  67.1155548  75.7198792  19.8746071  65.7515869  75.8770523
  64.4098816  18.2285748  19.3453159  64.7099762  18.2886314  18.4383602
  64.5385742  19.1086922  19.6989594  40.4750824  34.8729744  30.9518166
  39.6600266  35.1808434  31.3482113  40.5520134  35.3759041  30.1410294
  57.5077858  13.3341951  11.7684898  57.5176659  12.3882427  11.9144640
  57.9588165  13.4522600  10.9325066  62.7056351  21.4907455  16.6274605
  62.2761078  21.4632053  17.4824352  63.1281166  20.6358910  16.5440235
  42.7594032  55.7451210  44.1480408  42.0608444  55.0942421  44.2158928
  42.4211731  56.5090561  44.6152000  27.6900349   8.3547773   5.2604346
  27.2690105   9.2141323   5.2823701  28.1997738   8.3584108   4.4502592
  72.7889481  44.4984398   6.3492022  72.2264099  45.2678642   6.2610483
  72.3910217  43.8438034   5.7753220  48.1908493  45.6929932  60.4388275
  47.9095573  46.3586121  59.8110847  49.0323639  46.0118408  60.7650414
  32.1254082  46.1988144  75.7380524  31.7018509  46.7753944  75.1021423
  31.7718296  45.3301811  75.5464859  62.2427597  57.2691879  63.2510719
  62.9313850  57.3823471  63.9062195  61.4383888  57.1794281  63.7621117
  61.0431976   6.7673821  76.4733505  61.0983734   7.6736279  76.1701889
  61.4272308   6.2533984  75.7630157  22.7416439  66.1889496  67.8754272
  23.0067806  66.4024124  68.7700653  23.4516678  66.5251083  67.3285370
  23.7743893  45.5813103  50.2252007  24.7258606  45.5436172  50.1276817
  23.6373577  45.9737320  51.0874443  37.7414284  65.2279053  52.8076401
  37.7641754  64.2736511  52.8790855  38.1699333  65.4158478  51.9725990
   4.6826496  55.6505928  66.8021927   5.2499151  54.9178925  67.0421677
   3.8075464  55.3755379  67.0756302  84.1129761  23.2697315  71.7287598
  83.9390564  24.1600914  71.4234009  83.8972168  22.7134037  70.9803085
  38.3716469  65.0978241  72.7165070  37.9575653  64.7499695  73.5062943
  38.0642204  66.0027695  72.6636200  65.4430466  51.9221230  55.8264923
  66.0208511  52.6851883  55.8367729  65.0483551  51.9322853  54.9545135
   1.7316478  16.4988441  69.2973404   1.5920578  17.3270435  69.7565079
   2.6255200  16.2451897  69.5273056  72.7959976  16.6875477  33.3379211
  73.5963364  16.2118168  33.5601196  72.2077408  16.5241451  34.0751343
  71.9474335  60.2608757  10.8080873  72.1457520  59.4045944  10.4290218
  70.9919510  60.3153076  10.7900610  66.2948227  16.6056881  47.3132362
  65.4341888  16.9670486  47.5252724  66.4431686  15.9339933  47.9788551
  53.7370911  33.0514870  87.4437866  53.2462540  33.7095108  86.9515305
  53.1091080  32.3440323  87.5899963  57.7778893  32.5484200  34.7151947
  58.1403313  32.1435966  33.9271698  57.7951202  31.8521042  35.3717613
  83.1109085   2.7680430  50.0086746  82.4993820   3.4299393  49.6859360
  82.8620758   2.6379762  50.9237671  50.0659637  41.5021400  86.0319138
  50.1146317  42.0722237  86.7992935  50.3050346  40.6358719  86.3615417
  57.0963058  25.0027390  23.3310719  57.3684120  24.1524200  22.9858952
  57.7413101  25.6193657  22.9847031  17.0404758  18.1998196  77.8454132
  17.1243172  19.0866489  77.4950714  17.7550526  17.7119980  77.4359741
   4.2609911  18.0352001  80.1730652   5.0658469  17.8910637  80.6707230
   3.7624502  17.2256718  80.2842026  11.2350283  25.6480942  60.8862534
  10.7797766  26.4286976  60.5705986  10.8708620  25.4945450  61.7580528
  48.1528168   2.9542582  81.7030869  48.8907318   2.3476918  81.6415405
  48.0533867   3.1160693  82.6412582  45.5949135  70.0633698   7.1641445
  46.4122505  70.5061035   6.9357109  45.4482994  70.2900467   8.0824890
  16.3695946  58.3310623  69.0478745  16.5260220  59.2740402  69.0984116
  16.7851620  58.0629196  68.2283401  82.9847488  47.7952271  75.8595505
  83.2559433  48.6495743  75.5237350  82.2001114  47.5780792  75.3561325
  34.8932419  57.8175354  42.3452759  34.9406090  58.7111626  42.6850128
  35.2643814  57.8760109  41.4648972  53.9067879  70.4279633  30.5675964
  54.3703804  70.2053146  31.3749008  52.9853325  70.4675980  30.8236866
  61.6119423  51.7090225  55.4088402  62.3473015  51.7245979  56.0214043
  61.1928902  52.5629311  55.5159225  70.1225433  24.3570766   5.5587592
  70.2362595  23.4066811   5.5656133  69.3874359  24.5146179   6.1512365
  44.8637428  44.0764580  82.9372101  44.6750793  43.8238029  82.0334396
  45.1592140  44.9848022  82.8752670  82.6001129  50.6740150  58.3926697
  82.4957504  49.7327690  58.2534180  82.4875412  50.7904968  59.3360634
  32.5505791  31.0028629  78.2713547  32.4708061  30.0553360  78.1615372
  32.9042130  31.3117218  77.4372177  27.9575539  50.5819130  57.4071693
  27.2811241  51.2576027  57.4531860  28.7231121  51.0332298  57.0515442
  73.8812943  25.1847935  27.7651463  74.4412766  24.9942284  28.5176983
  73.1039734  25.5961132  28.1430721  37.9814987  35.8673935  76.9199371
  38.2025642  35.7333527  75.9983139  38.7125893  36.3764992  77.2700119
  83.2693481  36.7900925  69.4314270  83.9237061  36.3120651  69.9408798
  82.6517029  37.1198273  70.0841293  60.7956200   1.2718351  26.0046444
  60.8733864   1.1474212  26.9505329  59.8566055   1.2063853  25.8308601
  74.3055038   5.4652677  76.8119431  73.4871445   5.8854065  77.0765381
  74.8394547   6.1791539  76.4633865  43.6210518  10.6019707  54.9366913
  44.3241539  10.1959019  54.4297523  43.5421448  10.0545902  55.7179604
  10.6850080  18.5563354  73.6460495  11.2406445  17.9380341  74.1206055
   9.7918406  18.3049698  73.8812103  19.1848106   4.9012899  66.0949326
  18.9598236   5.1487622  66.9917984  18.8118134   4.0263672  65.9871521
  46.8836136  50.3353729  52.5033264  46.8700066  50.1494942  53.4422073
  45.9785881  50.5638123  52.2912521  39.4538155  18.9375782  83.0586014
  39.7865715  19.3990059  82.2888031  40.2355080  18.7333889  83.5719223
  63.8984680  52.7315178  52.9656868  64.1518173  52.1525078  52.2468033
  64.5899353  53.3927269  52.9957237  72.4272842  53.2907181  62.9844589
  71.9680786  53.9142952  62.4218597  71.9903564  53.3666267  63.8327293
  46.4533768  45.4162521  43.0003242  47.1232262  44.7707329  43.2258072
  45.9508896  45.5316925  43.8068047  41.2968979  62.3778114  74.8893661
  41.6974945  63.0276527  75.4668274  41.4326439  62.7248306  74.0076752
  40.0479622  15.3111753   3.4200077  40.0038643  16.2348690   3.1728690
  40.1658478  15.3227386   4.3698506  49.8238258  49.7124405   7.1855154
  50.0279579  50.1733780   7.9992094  49.7104759  50.4082527   6.5380373
  63.0198593  62.5359612  28.1207542  62.2123070  62.3497086  28.5997143
  62.7310333  62.7212868  27.2271843  67.5709991  39.8942642  55.4017220
  67.7967758  39.9110451  54.4716835  68.2023087  40.4852180  55.8121529
   1.5703272  65.9489365  33.2597694   2.1231272  66.2789841  32.5514526
   0.8429210  65.5152359  32.8136520  68.6772003  68.7014160  57.8016129
  69.4784317  68.2327576  58.0353432  68.2309036  68.1203918  57.1856155
  77.2477188  28.3406601  72.3412170  77.4031906  29.0963516  71.7746582
  77.4025803  28.6693420  73.2267761  72.4007111  10.2519245  63.2700348
  73.2140350  10.7549667  63.3110886  71.7851868  10.8283243  62.8171310
  33.7294197  13.5047417  30.6163158  33.4416695  12.5926428  30.6551304
  33.9843445  13.7139120  31.5149212  69.7516556  61.1428185   4.4554834
  69.5999832  62.0527229   4.1999478  69.8105469  61.1688805   5.4105148
  73.3269196  68.7959290  50.1250648  73.7309875  68.6516495  49.2694130
  73.1896820  67.9162292  50.4765282  37.3066673  70.7963638   6.5761323
  37.4680824  71.7396088   6.5975556  38.0938263  70.4277115   6.1752405
  11.7513332  58.5241470  76.7226105  12.4064274  57.8296165  76.6539917
  11.0040064  58.1989479  76.2206345   2.5856731  47.8804016  68.2715759
   2.3283465  47.0034828  68.5562286   3.5244281  47.8101158  68.0982819
  35.5155258  42.1408081  76.7441483  35.8428116  42.5301971  77.5550079
  36.2689323  41.6754112  76.3808060  12.1295347  39.1977921  62.9817848
  12.7025728  39.3723755  62.2352028  12.4979467  39.7206573  63.6939049
  18.3474541  69.0959778  56.3846397  17.8844204  68.3364334  56.0312080
  19.2017040  69.0778198  55.9531784  44.2405434  50.4167938  15.8167133
  43.8950272  49.7779388  16.4401817  44.9207039  49.9418030  15.3392210
  15.4050817  64.5712204  68.1618195  15.6678171  64.2050247  69.0062714
  15.0770807  65.4456558  68.3715820  41.1940727  52.2566795  76.5380630
  40.3452225  52.2275467  76.9794617  41.0112648  52.6703033  75.6944199
  79.9323807  21.9634609  45.7013779  79.3271790  22.6576405  45.9622879
  79.4501953  21.4590950  45.0461349  29.1136932   9.3815203  69.5800705
  28.9900818   8.5457869  69.1300735  29.2563534  10.0139332  68.8758469
  29.8030033  54.5838852  58.1299210  29.9494762  55.3830452  57.6238403
  29.0351562  54.7781258  58.6674271  50.0135918  60.4580154  64.1263733
  49.5666428  60.2875443  63.2972755  50.0756760  59.5998764  64.5458679
  85.2133179  49.6062050  79.4649582  85.1805878  48.9761124  80.1847839
  84.3250504  49.6087570  79.1083069  51.0377960  50.4590912  25.0409164
  51.8135567  50.2069321  24.5400734  50.9947815  51.4112434  24.9526577
  16.2636051   4.6626997  77.0391617  16.1112442   3.8918154  76.4925766
  16.9529076   4.3934045  77.6462631  36.1880798  51.4996948  11.1572475
  36.0892067  50.5789833  11.3996181  35.4718628  51.9448357  11.6101446
  40.6013451  47.3656044  75.2083435  41.1750221  48.1096649  75.0252914
  40.2395515  47.5496902  76.0752029  70.9706955  12.5098600  30.8604660
  70.1430969  12.8454475  31.2049923  71.4287033  13.2863979  30.5388260
  23.2345638  14.3619661  54.5797157  23.4915237  15.2828264  54.6268311
  23.8756695  13.9642487  53.9906158  15.5622025  52.4491997  52.7897797
  14.7702532  52.9858932  52.7579842  15.2425938  51.5591888  52.9379654
  27.5029812  45.1760559   8.7183628  27.2410355  44.3851852   9.1896772
  27.3014050  44.9866104   7.8020062  43.7671242   0.9848467   5.7897816
  44.1526299   0.5225769   5.0455217  44.2868118   1.7846488   5.8702369
  25.7725735  71.0487213  69.9191360  26.5932064  71.4634323  69.6530304
  25.1979580  71.7794342  70.1474075  34.6700211  41.6207199  45.1283188
  35.2219276  42.2065086  45.6464729  35.2846794  41.1426277  44.5716705
  58.2583923  12.9062891  70.5688934  57.7501945  12.7761936  71.3695450
  59.0010071  12.3087759  70.6568222  64.8540344  55.5797920   8.6956530
  64.9648590  54.6802635   8.3877611  65.7452850  55.9235268   8.7568188
  22.0846272   9.8016872   9.9632702  22.5449429  10.0331268   9.1565619
  21.4460258   9.1415768   9.6936893  15.9672327  30.1975498   9.3825626
  16.0487251  30.1895161  10.3362541  15.9710398  29.2731781   9.1340580
  20.0227318  46.6830406  48.3875008  20.2512989  47.6067696  48.2839851
  20.8649540  46.2285881  48.4065552  58.5603714  62.0227737   2.6502106
  59.2770042  62.6546516   2.5919113  57.7690048  62.5455399   2.5210490
  68.6670914  65.0388336  76.5245438  68.2661209  65.7510376  76.0263138
  68.1647797  64.2620468  76.2785568  60.3116913  13.9889250  41.3461380
  59.7596779  13.3390932  40.9111290  60.8507004  13.4790306  41.9508743
  29.8184395  55.0719566   6.0623307  30.6110363  54.8496704   6.5508094
  30.1278286  55.6175880   5.3392839   2.5986300   5.9305968  88.5708542
   2.6700718   6.8825231  88.6413116   1.6688430   5.7715745  88.4082489
  17.1021137   5.1071563  14.8911619  17.7085552   4.3675766  14.8526449
  16.4661312   4.8606768  15.5627317  47.8301620  50.4387817  48.0514221
  48.5640755  49.9428749  48.4143028  48.0026283  51.3445129  48.3086014
  72.2541122  29.0900269  80.3478165  73.1463547  29.4204292  80.2430801
  72.2982483  28.5203838  81.1157913  74.3972015  27.3211937  16.4183674
  74.6945190  27.6104984  17.2810001  74.4198303  28.1120300  15.8795738
  19.9390717  31.3477936  75.9798965  20.8209667  31.1832905  76.3137131
  20.0211697  32.1567764  75.4748840   8.0671940  31.3696079  66.4395523
   8.5882463  31.1072083  65.6806793   8.6780586  31.3284054  67.1753387
  78.0433273  49.3332748  10.9439068  78.8706131  49.8142509  10.9659719
  78.2701187  48.4527893  11.2431374  23.1848984  52.6858864  71.5816193
  23.3890572  53.0438995  70.7176895  22.8600960  53.4352684  72.0807800
  66.9363327  45.2575760  37.4935837  66.1855392  45.8359871  37.6277122
  66.6230698  44.3929863  37.7592506  25.3829117  50.9712524  76.3500671
  26.0805016  50.3163948  76.3225327  25.0922604  51.0499306  75.4414597
   5.0158544  68.4848175  36.4469528   5.4859610  67.6519394  36.4076118
   5.3867836  68.9335556  37.2067375   5.9886098  20.8098564  46.6476021
   5.4469109  21.5918007  46.7541733   6.6464286  21.0607605  45.9990997
  76.7995605   4.6559486  81.5633469  76.8496399   5.6082730  81.6458282
  76.6433487   4.5041509  80.6312561  41.6969414  55.7972031  87.4225769
  41.3543510  56.0141220  86.5555115  41.0120773  55.2621689  87.8237381
  79.3607178  68.1801834  19.5131283  79.3610229  67.4390335  20.1188755
  80.0557785  67.9779358  18.8868542   5.5005813  51.0792694   9.4620771
   4.6137280  51.3828773   9.2683058   5.6690722  50.3997231   8.8093472
  22.1813068  17.8145027  78.5888596  22.7288742  17.1248417  78.2136688
  22.7072029  18.6099186  78.5053177  64.4233322  52.2559776  17.2213726
  64.0441437  51.5956230  16.6413879  65.3426361  52.0025024  17.3042297
  17.1968117  40.4330826  82.3319397  17.3080673  39.5386772  82.0096207
  16.5637722  40.8269882  81.7316666  19.5076103  41.5187454  84.2719879
  19.5288506  42.3461952  83.7912521  18.6392689  41.1588821  84.0911102
  22.3760643  20.1789646   9.1847029  22.6725330  20.2729950  10.0899620
  23.0150547  20.6728363   8.6708813  78.0923920  45.0620232  19.0162354
  77.3228760  44.6506920  19.4097939  78.1250229  45.9342651  19.4091244
  75.8384857  24.5758743   9.9613810  74.9518890  24.2756977   9.7612057
  76.1939087  24.8529949   9.1169205  12.8804750  45.2035942  71.7542114
  11.9825220  45.0166893  72.0280304  13.1882133  44.3841782  71.3668060
  71.5863800  36.3009567  58.1864433  72.4725723  36.6475868  58.2900887
  71.7119141  35.4339523  57.8007278  85.6159363  26.5297928  44.5908585
  84.9861298  25.8285236  44.7576065  85.1957169  27.3166504  44.9379959
  84.0211029  49.2947617  25.0559521  83.5155487  50.0601692  24.7824669
  84.0046158  49.3261223  26.0124950  26.4314766  33.6674156  77.3098450
  26.7603302  33.4692574  78.1866684  26.8564968  33.0233955  76.7434311
   2.2343261   7.7584233  57.6212425   3.0591409   7.3253078  57.8410683
   2.1727729   8.4851646  58.2411537  25.4048767  41.2344360  50.4040794
  25.6311226  41.8360710  49.6947975  25.9219151  41.5384102  51.1500702
  82.0125351  43.4571495   4.2128901  82.4389954  44.3076096   4.1075878
  82.2916031  43.1546478   5.0770922  37.4786186  71.4837799  24.2363739
  37.7888794  71.4142990  25.1392269  38.0273514  70.8711014  23.7467289
  72.5895996  52.0939865  81.4598465  73.1136475  51.8197250  82.2124329
  72.1508560  52.8930054  81.7519073  37.6629829  42.4059982  72.8428726
  38.3034744  42.2590218  73.5388641  37.3324966  43.2897224  73.0042267
  55.1484375  54.4019165  20.1996689  54.6114693  54.0710983  19.4796314
  54.9663086  55.3413582  20.2222729  19.1969776  23.9683666   3.4572756
  18.6323910  24.5911255   3.9151466  18.6796532  23.6856766   2.7031589
  12.2567215  45.0438156  39.7000275  12.8314190  45.2203178  40.4448776
  11.7665043  44.2624130  39.9556274  39.7241859  58.1669884  41.2295952
  38.9111862  57.7823601  41.5572052  40.3916168  57.5045700  41.4084015
  75.5796127  51.5754051  76.9852066  74.9400787  51.4851608  77.6916656
  76.3367538  51.9897881  77.3990326  81.3060608  63.8350639   7.5554123
  80.6896591  64.0625839   6.8593454  82.1233749  63.6396294   7.0971179
  37.4221764  46.4792290  49.4039841  37.2150879  46.4192657  48.4713821
  38.3411942  46.7457504  49.4286041  58.3536530  59.3881111  47.7332077
  59.1868210  59.5281181  47.2832527  58.4909554  58.5941315  48.2499084
   8.1264324  23.2470131   7.7123971   8.5709057  24.0694695   7.5068774
   8.8158312  22.6834717   8.0636568   5.8219218  61.9231987  50.6900177
   5.2783322  61.1428108  50.5816765   5.6683416  62.4342728  49.8953781
  77.0364761  52.8404694  48.9945641  77.3071213  52.4570465  48.1603165
  77.6479111  53.5633202  49.1355133  53.7653580  36.5685997  10.7005777
  53.0956459  36.9670334  11.2564287  53.6473274  35.6264038  10.8212852
  68.2916641  12.3127737   9.8828878  68.7540207  12.9383068  10.4407129
  68.9833984  11.8853292   9.3778820  53.6011200  61.4057541   6.7082911
  53.8625755  62.3203239   6.6013718  53.1067390  61.3922195   7.5278268
   6.6261177  43.1316566  32.0247803   6.8877311  44.0045929  32.3176498
   7.4444256  42.7138176  31.7564259  72.2851257  64.0861206  60.3685455
  71.8699875  64.9447861  60.4496841  72.9818802  64.0939636  61.0248222
  41.6939430  16.0752754  12.5289412  40.7942963  16.3480816  12.7090626
  42.1725616  16.2834759  13.3313198   9.0132008  44.5007744   6.2249880
   9.0810947  43.9539566   5.4422941   8.4358425  44.0105667   6.8102961
  16.0870342  47.0939903   6.8865514  15.2276735  46.8029518   7.1915545
  16.0042458  48.0444031   6.8085198  65.1833496  58.8347740  59.2413521
  64.5012665  59.0988388  59.8588219  65.5729523  58.0537910  59.6344223
  22.7753162  57.4675560  24.3806286  22.6847210  57.6112175  25.3226395
  23.1060200  56.5724411  24.3055668  10.8693686   6.3135633  14.0201025
  10.3283253   5.6691670  14.4764547  10.2430449   6.8549309  13.5396109
  70.9352036   4.5329928  68.0655441  71.0502167   5.1421881  67.3362427
  70.5046768   5.0515957  68.7452011  86.3545074  70.1152878  12.8548117
  86.9872284  70.0494690  12.1395741  85.5096970  70.2236633  12.4180307
  11.7810955  52.7953568  32.2165489  11.6211061  52.9790688  31.2908688
  11.9379826  51.8516884  32.2498207  51.3796234  38.0214500  78.2943802
  52.0022583  37.3561630  78.5875549  51.4895821  38.7422447  78.9145355
  58.0342789   2.3718576   5.0384817  58.4535370   1.9889858   4.2678561
  58.4757690   3.2126479   5.1584411  50.2782173  12.9414072  68.7383041
  50.8859291  13.0378160  69.4715347  49.4118919  12.9296255  69.1452026
  49.2097740  52.2388496  40.3401031  49.6643486  51.4067421  40.4712067
  48.4662781  52.2030182  40.9419022  48.0356102  17.4807663  33.1184044
  47.7456741  17.6882439  34.0067291  48.4793892  18.2745590  32.8197670
  59.6419487   1.2529299  39.6378937  59.0146332   0.5708731  39.3980904
  60.4723091   0.7884626  39.7427979  25.1382885  34.0749435   4.2210550
  25.2492237  33.8445396   5.1434646  24.8222065  33.2705612   3.8096015
  60.2142296  20.7483330  54.9312820  59.2731285  20.6248302  54.8075562
  60.5985985  20.5249844  54.0835762  33.2574539  41.7583275  52.1935539
  32.3323288  41.7392311  52.4385223  33.7255745  41.7888527  53.0279198
  23.3937016   7.0855498  14.3510361  24.2358227   6.6969447  14.1142864
  22.9212742   7.1570435  13.5216188  35.2352829  41.3512268  13.7419100
  34.5472145  41.9172058  14.0918503  36.0485497  41.7252197  14.0809660
  77.6385498  15.4693022  20.1476059  77.5124435  16.2872105  20.6286030
  78.5635147  15.4763937  19.9014111   4.3443570  37.7647781  67.9475708
   3.4941778  37.3457260  68.0810699   4.3450136  38.0163078  67.0240097
  57.8073273  42.2226295   2.4913621  57.6935387  43.0806389   2.0825720
  56.9770851  41.7718849   2.3372223  18.2228775  16.3911114  50.6219063
  18.6856213  16.5827084  51.4376221  18.1827545  15.4353504  50.5881042
  51.4795876  27.2411613  23.1041164  51.5016670  26.5289631  22.4649620
  52.0177765  27.9298973  22.7139511   6.9572353  56.7078018   7.8220749
   6.3747230  57.1400604   7.1975255   6.5174932  56.8051682   8.6666918
  39.8390961  58.5775070   4.3548470  39.2782555  57.9190063   4.7648048
  40.2497101  58.1194038   3.6215217  27.5453053  55.7989845  10.0127068
  27.9627399  56.2023926   9.2516270  28.0241013  56.1509552  10.7631083
  27.5864544  63.9241943  88.2573242  28.4256458  64.0967865  88.6841736
  27.1166191  63.3604431  88.8718719  35.9827423  57.0702362  52.2168465
  36.4881287  57.8273277  52.5128632  35.9237556  57.1779556  51.2675591
  15.4155893  43.5059547  15.7055178  15.6027431  43.0142250  16.5051479
  16.2180347  43.9988289  15.5340872  46.6284561  67.8270493   9.0972881
  46.4209709  68.1998749   8.2404432  46.4764709  66.8877640   8.9929638
  73.5593262  28.7599506  32.8113365  74.2082748  28.1486988  32.4628105
  73.9038162  29.0122890  33.6680069  20.7802982  45.1262894  62.5784950
  20.8444481  44.3742256  61.9898376  21.4626274  44.9770355  63.2330017
  48.0476646  45.8672180  16.7375050  48.0359764  46.7905655  16.9895496
  47.3334198  45.4731750  17.2383213  58.2057037  39.5003662  70.7848663
  58.1300201  38.5590324  70.9410629  57.9224739  39.6161919  69.8778992
  20.1371460  34.5318718  53.8978081  20.5164242  34.1296577  54.6792183
  19.7289829  33.8045197  53.4281349  35.2719803  50.6996918   5.2461920
  35.2450180  50.0540276   5.9523244  34.4919090  51.2372246   5.3832402
   1.1893348   6.2567129  27.5860844   1.3946575   7.1906705  27.5436897
   2.0378280   5.8210502  27.5055275  58.5754929  48.8634529  79.7293854
  57.8202286  48.3591309  79.4269562  59.1534119  48.2131653  80.1285934
  67.2696762  49.3052597  13.6933689  68.0282974  49.2893791  14.2768660
  67.5504456  49.8388519  12.9499445  45.8098564  50.9129295  32.8327103
  45.9209938  50.5578575  33.7146454  46.2325172  51.7711487  32.8650208
  28.7861271  58.1687965  86.3596039  28.0116978  58.1038551  86.9184189
  28.7127609  57.4252701  85.7612534   0.2556677  12.9636707  87.1861954
   0.0678083  12.2290640  86.6019897   0.0295917  13.7404394  86.6745758
  10.5710154  37.5613251  11.2838278  11.2206831  37.8868484  11.9068832
   9.8862600  38.2301521  11.2804308  19.0210037  32.7726059   6.7277131
  19.7891445  33.3202896   6.5657368  19.3811550  31.9108696   6.9373159
  50.0050774  65.5447540  37.0092392  49.6767883  65.9128494  37.8295822
  50.6997833  64.9434204  37.2776031  66.0846176  62.2142181  65.5764618
  66.0079651  63.1141510  65.8934479  66.8210068  61.8493309  66.0671921
  36.2735367  25.0954628  61.6760559  36.6715164  24.2746315  61.9660263
  36.9734268  25.7432213  61.7584763  67.2996292   8.3839788  75.3073807
  68.1236267   8.6792698  74.9199982  67.3477707   8.6699476  76.2195969
  59.8532524  69.1611710  78.5492172  59.1412468  68.6083984  78.8712692
  60.2021675  69.5837326  79.3340302   6.9859676  35.9758720  37.5681381
   6.2856379  36.0536308  36.9202766   7.7806301  35.8547478  37.0484505
  85.1157990  23.0491199  39.0664253  85.8638840  23.5650463  38.7657204
  84.4045486  23.2901134  38.4728966  42.8895073   8.7505465   8.7136621
  43.4782104   8.1536999   9.1756525  43.4161606   9.5348415   8.5595503
  64.7776031  36.6846428  27.1592064  64.9537201  36.3948021  26.2641029
  65.4330673  37.3622475  27.3248882  78.3929443  19.2530384  68.3591080
  78.3150253  20.2066975  68.3327789  79.2973251  19.0939922  68.6293640
  53.5127411   6.6007462  40.3990784  53.9231071   7.3538079  39.9739532
  52.5737457   6.7362118  40.2719269  69.7361145  34.4489899  38.8591805
  69.8192978  34.9788437  38.0663567  70.1087799  34.9943695  39.5519371
   3.2948821  32.1218681   8.4665070   2.9428475  31.2447548   8.6180897
   4.2331538  31.9841862   8.3364210  75.9771652  43.7587814  72.2211380
  75.4528122  42.9607506  72.1545868  76.8503571  43.4966545  71.9294739
  76.4099274  34.1571121  21.1528034  75.5514450  34.3229828  20.7632809
  76.2150726  33.7611046  22.0021820  18.7460804   4.4246278  48.7532578
  17.8644543   4.7218671  48.5282784  18.7420750   4.3645053  49.7085609
  58.1796761  30.7189980  44.5080795  57.4070930  30.6967411  43.9434090
  58.6674728  29.9282513  44.2778549  25.8403683   9.0438023  61.4971962
  26.3504524   8.9376278  60.6942177  26.2943230   8.5020771  62.1427116
  76.4925919   5.8093395  33.5896492  77.0672684   5.2210913  33.0998116
  77.0816193   6.4678750  33.9578972  12.8378601  12.1429520  78.0418854
  12.3485537  12.2169046  77.2225266  12.2055378  11.7891684  78.6673737
   3.2992318  25.0146294  50.1854897   4.0873470  24.4719238  50.2095146
   3.1692157  25.2071533  49.2569084  58.4053535  61.9629478  45.3965530
  58.7431602  61.0813026  45.2390175  58.1342697  62.2734833  44.5326576
  28.5840340  61.2164917  88.4405746  28.7697773  61.9405975  89.0384064
  27.6332417  61.1125717  88.4783707  68.6395340  12.6221313  48.5235863
  68.0081635  11.9035387  48.4884720  69.4334412  12.2260733  48.8828583
  22.3957386  61.6522789  43.3123741  21.4455566  61.5365906  43.3137474
  22.5552330  62.3318100  43.9673767  70.7177048  40.0255547  23.5343323
  71.3394394  40.5227165  24.0658588  69.8611298  40.3788795  23.7744694
  85.4397888  37.1526566  66.9716263  86.0827332  36.6653061  67.4867401
  84.6095963  37.0075073  67.4254456  55.2245903  11.3400135  11.0589752
  55.7950172  11.4733725  10.3019695  55.0873413  12.2186098  11.4131842
  40.2973442  59.5102768  85.8137131  40.2755814  60.4421425  86.0313950
  40.9214745  59.1338844  86.4342194   0.7897577  32.0501671  64.3900375
   1.5965780  31.5784492  64.1832733   0.5795593  32.5282707  63.5878754
  61.5853004  51.4287453  47.1183319  61.1580086  51.4818382  46.2634430
  60.8633118  51.3618202  47.7432175  73.8961487   4.2474217  13.2072811
  74.5623016   3.5631950  13.2729483  73.0673447   3.7709696  13.1592216
  68.7966995  11.5799580  42.9790573  68.8790894  10.7160692  42.5751534
  69.2482376  12.1703844  42.3759499  80.8148651  35.9492645  85.3202057
  80.8408737  36.3925819  86.1681595  81.5993500  35.4008522  85.3124847
  68.0201797  60.4469261  42.4961281  68.5939026  60.9816666  41.9473763
  67.3427353  60.1312943  41.8980713  65.4056473  54.4639435  38.9770737
  65.7526474  55.3559341  38.9639435  66.1495438  53.9213829  39.2387543
  40.2165222  42.1795540  53.0315628  40.8277817  41.8129082  53.6704407
  39.8014870  41.4154930  52.6313248   5.6377592  32.6584244  44.1118050
   5.2623267  31.7782307  44.1351166   5.9507842  32.7615738  43.2131348
   1.2297409  34.0028191   2.8439748   0.9297726  34.8797073   2.6045625
   0.6393214  33.4118156   2.3766904  19.3066292  30.9724674  14.5522432
  20.0293064  31.5207787  14.8577375  19.2428455  31.1601620  13.6157951
  59.3687439   7.7773371  71.0052567  60.0224915   8.1162167  70.3936920
  58.7411499   7.3126106  70.4517365  64.7171631  50.7428169  73.2885666
  64.0077667  51.0643730  72.7321625  65.0279312  49.9521904  72.8474731
  65.2718048  43.9320755  82.4615173  65.1446533  44.8171082  82.8032532
  65.6014557  43.4320717  83.2082138  81.9118500  44.5010223  11.5078859
  81.2589569  44.8593102  10.9065628  81.4053116  44.2119637  12.2668953
  84.5425568  37.7962532  31.5638657  83.6920166  38.0333862  31.9334240
  84.9896774  37.3311691  32.2709808  44.8650208  43.5771675  21.7971897
  44.1481133  43.3652153  22.3949795  45.6578712  43.4373894  22.3149548
  18.7922306  15.4639874  85.8932648  18.3247414  14.8461857  86.4554138
  18.5294170  16.3264427  86.2147217  85.8564682  50.6755943  62.1597786
  86.7082214  50.8242340  62.5704651  85.7506409  49.7242813  62.1653366
  74.3882751  51.6537399   7.7697358  74.5692139  50.8573341   8.2689676
  74.6552582  52.3662910   8.3504448  75.8690262  11.0346613  12.7829037
  76.2845535  11.6590691  12.1881886  76.1551666  11.3073893  13.6546698
  14.5154037  53.7065926  18.8230648  14.3427496  52.7881165  19.0300102
  15.3773823  53.7004013  18.4069080   2.6107824  40.7062798  36.1991539
   1.7473559  40.5597878  36.5855026   2.4628627  41.3722229  35.5276833
  40.5554314  50.2314606  72.9245682  39.8101807  49.8297234  72.4779816
  40.9563446  50.7945099  72.2623901  11.6213226  64.7462387  40.4841156
  11.4750643  65.1664963  39.6366310  12.5706835  64.7720795  40.6036072
  14.8679218  47.6794319  85.6363449  15.2846518  47.1114159  84.9883270
  13.9726667  47.3477440  85.7051468  27.4809055   6.3075294  22.4965229
  26.5722218   6.0086818  22.5313988  27.7682114   6.3076344  23.4095879
  27.7098732  25.1912708  10.0569944  27.4667778  24.7830410  10.8879480
  28.3462696  24.5891209   9.6714468  18.0457325  71.4272003  71.6774139
  17.2199287  71.8027573  71.9827652  17.9044647  71.2643814  70.7448044
  22.6549034  61.1941643  73.2931442  22.5472012  61.6394806  74.1335754
  23.5242920  60.7967072  73.3423691  29.8906860  45.7606125  71.9609833
  29.4880848  46.0117188  72.7923050  29.2673492  46.0516472  71.2954178
   6.9854779  65.8268433  61.3211517   6.5634151  65.0575409  60.9387093
   6.9667048  65.6661530  62.2645798   9.5452938  58.7194214  85.2704544
  10.0181475  58.1029739  84.7113190   8.6557140  58.3688240  85.3147125
  14.6170883  64.0623245  50.9326439  14.1856079  64.8245392  51.3187714
  15.4905491  64.0576706  51.3241501  10.9511347  31.8330193   0.0760747
  11.8076687  31.4089794   0.1287355  10.3242083  31.1266670   0.2318383
  17.0876598   0.5388777  29.2651157  16.8385658   0.5570021  30.1891594
  17.0737553   1.4571432  28.9952507  48.7515526  28.6448231  64.1767960
  49.1904640  27.8799019  63.8046646  49.3300972  29.3781948  63.9677849
  59.5941238  31.6407471  28.9211407  58.9472046  31.7859554  29.6115341
  60.3369217  32.1910934  29.1693382  40.0815086  61.5567932  62.3296318
  40.0042763  62.1325150  63.0904236  39.5741844  60.7798805  62.5647049
  82.0452271  30.9097538  48.1564407  82.1485977  30.5179291  47.2892494
  81.2151337  30.5597763  48.4799995  61.7849083  63.6394958  46.1838722
  61.5415306  64.2565079  45.4937286  62.7254105  63.7719345  46.3028030
  71.5624619   4.1770773  78.6413193  71.7167053   4.9841900  78.1503906
  70.7184677   3.8592262  78.3205795  27.8813076  43.1314316  76.7684479
  27.0115547  43.4988441  76.6110764  28.3799725  43.8524818  77.1527023
  86.2471542   4.7849536  61.1907387  86.9400711   4.7340660  61.8491516
  85.8629227   5.6529422  61.3139915  71.8801041   5.3400240  42.7817154
  72.4975204   5.9579625  43.1731071  71.5245514   4.8532982  43.5252914
  85.9960709  10.2135696  26.1529484  86.5662537   9.6072636  26.6257286
  85.5946503   9.6796169  25.4673920  28.8522911  61.0005798  29.9761696
  28.6480560  60.1588058  30.3835201  28.5509892  60.9086342  29.0722923
  43.1252480  47.1735497  65.1453476  42.2746811  47.0158577  65.5551071
  43.7015533  46.5116234  65.5273972   1.2560275  61.5737610  37.1556435
   0.8668522  60.8960571  37.7083549   0.5067133  62.0358734  36.7798615
  80.2803192   1.9858905  10.8530312  81.2340775   1.9109989  10.8220940
  80.0530548   1.7784939  11.7594376  53.5470924  11.3484392  59.8008423
  53.2794266  10.8521872  60.5743523  53.1781311  10.8611803  59.0641747
  29.6082001  42.3887482  79.4381485  30.2541580  42.0656929  78.8099747
  29.9791317  43.2093697  79.7625198  36.2146187  53.0539932  82.2823715
  35.4159241  53.2851639  82.7565918  36.4694633  53.8608284  81.8348236
  29.7480640  63.6272469  21.6064625  30.4834309  63.1409302  21.2336845
  29.6229057  64.3660049  21.0108089  64.8782196  45.1539040  39.5267830
  65.2476959  44.7718315  40.3228607  65.0734329  46.0883751  39.5966873
  23.9928074  41.8833466  62.7142639  23.1172791  42.2524834  62.8301201
  24.4986725  42.2316856  63.4484253  51.2326584  62.5781479  31.1654873
  50.2930641  62.6565361  31.0004139  51.6361008  63.1875305  30.5473251
  25.3734455  55.0133247  60.9784012  25.4195747  55.7310257  61.6100693
  25.3041725  54.2247353  61.5165138  18.2842884  69.1919556  10.8003569
  17.6005859  69.8450394  10.6511478  17.8163395  68.4280777  11.1376276
  13.5736380  33.0943604   6.9109540  13.0458450  33.5053482   6.2262964
  14.3803759  32.8329849   6.4670076   1.0903733  36.8170891  14.0090065
   1.8622370  37.2412224  13.6340799   0.5996702  37.5304031  14.4172058
  64.1889496  60.5066948  64.7699280  63.6270103  61.2603493  64.5897598
  65.0628662  60.8808441  64.8817902  76.2836914  40.2971191   2.4695628
  75.4733963  39.8482475   2.7107470  76.9389038  39.9505043   3.0751882
  63.3194008   8.7275705  19.3761368  63.4722900   9.4601746  18.7793560
  63.8296165   8.0069933  19.0064354  18.6346016  70.8279419  84.5675430
  18.2110004  70.4633789  83.7904434  19.5254116  70.4786911  84.5408249
  85.0130386  44.3204155  76.3639755  84.5896912  43.9250336  75.6019516
  84.5096664  43.9982185  77.1116638   3.3426340  38.7126083  78.4519730
   4.1167769  38.2642097  78.1115799   3.2577200  38.3948822  79.3509064
  79.6572418  38.8264809  69.6777344  80.0552597  38.6221046  70.5239334
  79.7209702  38.0113792  69.1799622  62.4551392  21.1457367  69.0110779
  63.3579254  20.9051228  69.2191925  62.2007179  21.7483768  69.7098770
  52.7154388  35.1977272  34.8351746  53.3833542  34.5993195  35.1698875
  52.7764320  35.9662590  35.4025116  74.2312851  55.9698410  53.1956596
  74.4823990  55.7572289  54.0945320  75.0090103  56.3835564  52.8211975
  61.1828575  42.2328491  78.5166779  60.4606094  41.6131783  78.6196136
  60.8451462  42.8965225  77.9152451  18.9889984  66.0473557  11.5966930
  18.1922932  65.5438843  11.4293547  19.2891083  66.3163834  10.7284813
  60.3998184  12.4689093  50.1596146  61.1191864  11.8520546  50.2946510
  60.6818314  13.0076199  49.4203644   4.8586330   6.9304981  43.8660736
   4.1529646   6.2871838  43.7996597   4.9508495   7.2773261  42.9786949
  72.9250031  60.3275337  61.9760017  72.3466339  61.0823250  62.0855827
  73.3749084  60.2464485  62.8169823  33.7850838  39.0314369  21.2077942
  34.0017052  38.8595161  22.1241741  34.6316109  39.0528107  20.7615128
   5.2910762  62.9880943  26.1458321   6.0346651  62.5189552  25.7673893
   4.5223999  62.5126762  25.8306351   9.7156792   0.4028299  17.0702419
   9.2958727   1.1819123  17.4349689  10.2482624   0.7340589  16.3471413
  64.1517410   3.3684149  65.0219040  63.7841377   4.1561899  65.4225388
  63.5367241   2.6725261  65.2536850  41.9119263  33.3017807  60.5619736
  41.8108559  32.7210732  59.8077888  42.4452057  32.8015099  61.1796913
  48.8362999  50.2154465   0.6302794  49.5360146  49.5825958   0.4686232
  48.0315895  49.7417107   0.4199238   7.8005028  39.4528961   2.3028951
   7.5112867  38.5496178   2.1737609   8.0148935  39.5049019   3.2343261
  50.0175552  17.9850006  55.8484001  49.5444450  18.1828136  56.6566505
  49.4157028  17.4348049  55.3471107  58.7366104   6.6101055   6.9413528
  58.5199699   5.6971545   7.1306124  59.6385612   6.7103033   7.2457771
  85.2898712  39.5075264  20.7506466  85.8522568  39.1211090  21.4219437
  84.4788666  39.7216301  21.2117958  47.6895142  57.0162125  78.1113052
  46.9092751  56.6000710  78.4777603  48.2652626  57.1505432  78.8641052
  77.8575439   2.8500955  49.7027092  78.5401611   2.1802483  49.7422829
  77.3815002   2.6594825  48.8944473  48.2576752  33.7014427  75.8700714
  47.8662567  34.1464577  75.1184158  47.6179695  33.8117714  76.5735168
  74.6833344   7.1858764  10.6140041  73.7915421   7.4919195  10.7791395
  75.2403870   7.9193721  10.8745995  83.5535049  19.1671543  32.2062454
  82.9793930  19.3818932  31.4710503  83.5693283  19.9628220  32.7381248
  42.4614372  64.3443604  38.0992699  42.1746407  63.4399338  37.9728050
  42.8311615  64.5988235  37.2538185  17.4307365  51.1189423  20.9206009
  16.6505470  51.1306305  21.4750385  17.1588078  50.6454277  20.1344280
  27.6406879  12.0758953  85.4613876  27.1208858  12.4867525  84.7705688
  28.5368900  12.3660374  85.2914810   6.3756714  65.1416550  32.6734657
   5.5984607  65.4247971  32.1917953   6.0321083  64.6086960  33.3905067
  69.3893204  17.3057690  86.8449249  69.4623337  18.1520882  87.2861099
  68.4825287  17.2719135  86.5402756  42.8801231  25.7399368  41.1164360
  43.5431328  25.9302254  40.4527817  42.0591431  25.6885319  40.6269646
  68.6396637  56.5873108  76.1392441  68.0469360  56.2256584  76.7981186
  69.4593048  56.1095505  76.2664032  28.0007114   0.6728815  21.2708359
  28.2460518   0.8162053  22.1848927  27.9323311   1.5528415  20.9003944
  53.9206047  25.9439564   8.5045891  54.0503654  25.3777313   7.7438107
  53.4322243  26.6937122   8.1646185  56.3953362   0.6864322  12.2379122
  56.4143600  -0.1402440  11.7557545  57.0471878   0.5751259  12.9299603
   8.2553959  42.0632401  43.4121323   7.5406547  41.4685097  43.1848221
   9.0441914  41.6203270  43.0993042   5.3154254  27.0942955  22.1277332
   5.3432641  28.0484715  22.1984806   4.4816604  26.8486271  22.5286255
  63.5462532  23.3802357  40.2465782  63.8467331  24.1911659  39.8362923
  64.3331833  22.8392830  40.3124847  21.9230995  64.9818192  18.9124508
  22.8144894  64.7132645  19.1350155  21.8966007  64.9548874  17.9559956
  52.0922737  61.7889175   0.3722312  51.8758965  61.1701927   1.0697916
  52.6842270  61.3040657  -0.2028676   6.1179309   0.3604066  72.5807724
   6.3507290  -0.5291254  72.8468018   5.7961717   0.7735570  73.3820267
  81.2952271  16.4355392  55.3137093  82.1984482  16.3170929  55.0197754
  81.2429810  15.9418201  56.1320877  62.2536201  58.3286400  21.0343971
  61.8642120  59.1907234  21.1806870  62.2129097  57.8992996  21.8889389
  56.3258476  36.1631241  57.3638992  57.0293007  36.8120728  57.3480492
  56.7774696  35.3196182  57.3361549  78.1764221   7.3659754  66.5433578
  77.4230423   6.8183742  66.7642212  77.8319092   8.0084076  65.9230194
  48.5743141  43.4734726  82.5928116  48.0789948  42.8960686  83.1737518
  47.9071007  43.9100990  82.0632706  19.2830372  68.3332672  62.7868347
  19.5346546  67.4759140  63.1301498  18.5529480  68.6084442  63.3413429
  19.1924572  20.9918404  13.6327362  19.1680317  20.0717335  13.8954859
  19.9443455  21.0527878  13.0435162   4.4200606   9.4822292  75.7350616
   4.4895525   8.7800207  76.3818283   5.2783084   9.9058638  75.7483292
  64.0486145   7.5733776  44.6964035  64.2159882   8.0588093  45.5042229
  63.1783180   7.1946731  44.8204918  63.5183296  53.1560059  44.5961075
  63.8757591  52.3110809  44.8691978  64.1301270  53.8009033  44.9511261
  62.9670639  46.5735054   6.4249215  63.3077126  47.4247093   6.6999555
  63.6959305  45.9682961   6.5616674   5.2753057   1.7514253  13.1406517
   5.3292923   2.6490276  12.8125858   5.8195829   1.7510623  13.9280491
  53.1084175  14.7392025  84.6302490  52.6254616  15.5544901  84.4950027
  53.1923637  14.3624249  83.7543335   6.2805119  53.6772194   8.6921711
   6.4765615  52.8994064   9.2144823   7.1133828  54.1459274   8.6386051
  19.1482296  68.5543518  53.0163383  19.6797886  69.2005920  52.5515251
  18.2579880  68.9039154  52.9774971   5.9113479  23.3938522  71.4199371
   5.4010067  22.8952389  70.7818375   6.3303657  22.7276096  71.9647064
  20.6413631  14.8401127  20.2319069  20.0541859  15.5222044  20.5578003
  21.4028339  14.8831596  20.8103027  86.2554398  43.6772575   1.5959448
  85.8325500  42.8251801   1.7025665  87.1023941  43.4761620   1.1978819
  52.3315468   0.9089105  14.8942642  52.1288300   0.6362710  15.7891417
  52.3880463   1.8632668  14.9416313   2.7403245  60.2469254  76.3815079
   1.9114052  60.6939583  76.5526352   3.2130990  60.8358612  75.7934036
  35.5243378  50.7139969  69.1668777  35.0747299  49.8780289  69.0434113
  36.4275856  50.5417175  68.9010010  43.8632622  18.3725300  13.1900873
  43.0166626  18.5774956  12.7932377  43.7537422  17.4907322  13.5459948
  67.6547852  24.7440434   1.3411132  66.9216385  24.4657440   0.7922215
  67.2634201  25.3409805   1.9788686  32.9124603  36.8280258  16.0486660
  33.7062187  36.2968674  15.9850235  33.1357460  37.6464424  15.6052990
   7.0040460   1.8221296  -0.3269220   6.4668756   1.9728814   0.4508657
   7.8894119   2.0667486  -0.0576261  21.1477108  66.1088486  56.1094704
  20.7564220  65.2368240  56.0575104  20.7892933  66.4846649  56.9135399
  11.5271072  43.3653412  84.8442535  10.7310171  43.7336121  85.2274628
  11.5603189  43.7334061  83.9612732  85.8061829  30.6671677  30.9793797
  85.5473709  29.8617020  31.4271240  85.3258209  31.3589821  31.4342117
   1.3807490  59.2634087  81.3672791   0.7190846  58.6407280  81.6684494
   1.8958006  58.7740402  80.7258224  33.3564568   6.3144035  15.0522366
  33.2905884   6.0463147  14.1357098  32.8920212   7.1504736  15.0912008
  18.3029537  57.9882545  79.3808899  17.7608795  58.6262779  79.8449097
  19.0168266  58.5060806  79.0087662  53.4446793  20.1662312  82.8293991
  54.3585052  19.9361000  82.9972992  53.4585953  21.1123772  82.6850281
  14.3760939   6.7930403  78.0573807  14.3112812   7.4813251  77.3953400
  15.0895920   6.2330031  77.7515869  64.6391144  22.4416599  71.4846725
  64.8409729  23.1577988  72.0868607  63.7118721  22.5573807  71.2771606
  24.8053265  44.7145767  37.6341858  25.7557487  44.8107719  37.6947975
  24.5688572  45.1749840  36.8289909  59.8339691  58.0515137  34.1677856
  59.7069359  58.3062859  35.0816689  59.7532082  57.0977364  34.1715889
  48.9662781  18.5999794  58.2489433  48.6287422  18.3221722  59.1004829
  48.6727142  19.5066128  58.1591263  47.7270813  54.0152740  55.0314293
  47.5080681  53.4213295  54.3134499  48.6808090  53.9687538  55.0983009
   9.9014912  61.1321182  52.9344406   9.3485146  61.6341667  52.3357811
  10.4234047  60.5688705  52.3629570  22.1158123  24.2194424   0.9748390
  22.0241241  25.1200485   1.2858591  22.5557938  23.7621880   1.6914743
  57.0611191  28.6672573  38.7862701  56.5657578  28.2882042  38.0602074
  56.8099365  28.1433086  39.5469360  23.9640369  42.4778023  82.6960754
  24.8179607  42.4298134  82.2662506  23.3659058  42.0406570  82.0899582
  45.9338036  41.0544167  13.2849064  46.0696335  41.7615242  13.9156075
  46.8149872  40.7368851  13.0876293  17.6156464  19.1629829   5.7026749
  17.1484451  18.5785465   6.2996573  17.5283775  18.7483082   4.8443851
  46.4283142  64.0342712  50.8384819  46.3656502  64.6443024  50.1035194
  46.5341721  63.1756973  50.4287567  57.2972603  60.1289368  14.0740423
  58.1302376  60.1567154  14.5447903  57.3500099  59.3359909  13.5404825
  77.4998322  56.0116196  11.2715750  77.0009308  56.8138390  11.1173668
  76.9668350  55.5134926  11.8912716  41.7006531  48.5653687   5.7351794
  40.8753166  48.4413757   5.2664881  42.3128700  47.9691353   5.3039870
  25.1876144  59.3084984  29.6065083  25.0830917  60.1091003  29.0923634
  25.4958744  59.6109695  30.4607449  16.8168812  30.7108879  88.8349228
  16.2644615  31.4925327  88.8250427  17.6923313  31.0388947  89.0404205
  16.0738335  22.5325890   4.4063978  16.3856926  21.9482975   3.7153273
  16.1796284  22.0277424   5.2127285  63.8931885  28.4516087  25.1468430
  64.1436996  28.0400028  25.9739189  64.1231842  29.3739700  25.2590084
  85.5713959  27.8771572  12.9223871  85.7967834  28.7460403  13.2547655
  85.0204468  28.0483894  12.1586037  12.5083952  16.2304363  13.4202318
  13.3002758  16.5211563  12.9678612  11.8021469  16.7321987  13.0131960
  75.4073486  36.3228874  15.0563030  76.0054932  37.0428505  14.8560486
  75.6142502  36.0838547  15.9597864  21.0302734  22.2623520  73.0317993
  21.2004013  22.7848911  72.2480621  21.7542572  21.6370487  73.0645752
  13.5679398  41.8513641  55.7659302  14.0946827  42.0724716  54.9978943
  12.7323751  42.2946129  55.6189842  44.1099892  70.5797729  10.0220356
  44.0562897  70.8948517  10.9242945  43.5317383  69.8172989   9.9997911
  85.4371033  52.6598129  52.8240814  84.8288269  53.1769218  53.3521194
  86.3028870  52.8920746  53.1597977  83.5046692   6.1010880  29.7257938
  82.9676514   6.7382021  30.1968880  84.3144150   6.5710492  29.5266209
  25.7426701   4.1404891  70.8182297  26.1276646   4.0080638  69.9519272
  24.8700695   3.7522483  70.7544250   8.2163830  20.8838253   5.5022168
   8.2329836  20.2706528   6.2370477   7.2896838  20.9604130   5.2750702
  67.0458603  46.6042442  58.1774750  67.0624542  45.6649284  58.3608818
  66.1805954  46.8902130  58.4703522  75.8200989  15.0067434  80.2508774
  75.9761124  15.1267414  79.3141327  75.1694336  14.3062553  80.2975159
  64.1612701  27.5711155   3.5733070  63.4285164  27.0591946   3.9157045
  63.9118500  28.4816437   3.7312915  79.0712967  38.7087212  66.2306290
  79.7888336  38.0866318  66.3505402  79.4830322  39.4752846  65.8317719
  39.5141945  38.2526550  58.0524368  39.1530838  38.6823807  57.2770844
  40.3172112  38.7375526  58.2428741  18.4197044   4.5153165  11.3370514
  17.4669704   4.5269408  11.4286757  18.7385368   5.0184612  12.0863333
  28.4645195  34.5132599  70.0920029  28.4100437  34.0599556  70.9333038
  29.2377949  34.1403732  69.6686478  61.6007500  47.7481117  18.0022850
  62.0663834  48.5228081  17.6872253  60.7132797  48.0586014  18.1818047
   4.8181200   5.5012751  86.8788376   4.1073380   5.7563567  87.4670105
   4.6065402   4.6035824  86.6226807  78.1942215  70.0597153  73.3123169
  78.1674500  70.9933929  73.5215149  78.2993164  70.0302505  72.3613586
  53.4778137  45.5557632  58.4860725  54.3014832  45.5223045  58.9725647
  53.5663261  44.8758087  57.8181992  85.5104370  46.7081184  48.9763374
  85.8177032  47.5970421  48.7984772  85.0498047  46.7767563  49.8125992
  49.3718109  32.3648186  67.6823349  49.5502090  33.2249031  68.0626678
  49.1328011  32.5494919  66.7740402  24.3030128   9.1564875  17.5558872
  23.4892483   9.0234699  17.0697556  24.1523571   9.9554396  18.0610714
  65.3941803  63.7973976  18.9971714  64.5316544  64.0797806  18.6929646
  65.8779221  63.5992584  18.1953182  74.7776489  59.2916489  47.2254944
  74.9616623  58.4865227  46.7416115  73.9403839  59.5956459  46.8750648
  15.1392126   8.8987818  83.4751511  14.8953943   7.9731703  83.4698486
  15.9819603   8.9218788  83.9284439  83.1944504   8.1170807  25.4748459
  83.0552597   8.1963539  24.5311451  84.0696793   7.7382927  25.5568695
  42.3771019   9.5687246   0.0758554  41.6334724   8.9794741   0.2024685
  41.9821892  10.4351664  -0.0219024  22.2372684  45.3761826  84.4352112
  21.8503227  45.3243408  83.5612488  21.9659920  44.5654449  84.8657303
  82.8060837  13.4071598  72.0854263  82.3570557  14.2384167  71.9317398
  83.3274460  13.2668562  71.2950287  49.3347282  48.3354034  35.4675026
  48.7120094  49.0247192  35.6983566  49.2677689  48.2611313  34.5155411
  26.2470016   8.7007704  72.5020752  26.1551838   7.8026514  72.8201675
  25.8212185   8.6959400  71.6447983  43.3884087  30.5151691  73.1551819
  43.8416176  29.7328033  73.4694061  43.1727791  30.3172607  72.2438278
  40.3936768  59.7194443  39.1225624  39.7334061  59.5080147  38.4625854
  40.0249367  59.3930931  39.9433899  72.0335236   2.1646178  82.8910904
  72.4426727   1.5163468  83.4643097  71.8161240   1.6780152  82.0959854
  43.6708908  53.8048210  57.7994614  42.9469223  54.0235329  57.2127190
  44.3827629  53.5446358  57.2148438  18.6288223  58.5865936  48.6987610
  19.2186451  59.2831459  48.4103889  17.7516880  58.9507217  48.5792656
  50.6793480   7.2631187  40.4780350  50.2195892   7.9219198  39.9576187
  49.9827309   6.7184086  40.8444366  81.2293091   5.4167376  25.6548901
  80.8650284   6.3018608  25.6643238  81.7843857   5.3944740  24.8753815
  61.5360069  13.5130634  48.0770760  62.3382378  14.0347853  48.0554466
  61.4516678  13.1664906  47.1888161  80.8317108  54.8355751  29.7925186
  80.6709518  53.9761848  30.1821785  80.7069778  55.4526176  30.5135784
  71.9744263   8.4335861  36.2580109  72.3831787   9.2319460  36.5923386
  71.6491699   7.9858789  37.0390396  40.5010910  38.3145943  37.3012505
  41.3122482  38.8226242  37.3139572  39.8903008  38.8252640  37.8326454
  58.7691803   3.5493970  49.7297935  58.4459763   3.6317654  48.8325806
  59.5576744   3.0123212  49.6519737  67.9828949   4.8760681  80.4137268
  68.3936234   5.3129196  79.6676025  68.7130127   4.6468773  80.9887238
  79.0993423  50.7352562  27.0534134  78.7381439  51.3814125  27.6602459
  79.7935867  51.2037582  26.5899868  64.5199814  37.6432495   0.9919127
  64.7969818  38.4403534   0.5401024  64.5654068  36.9604683   0.3226014
  85.6440811  62.9974365  70.1214066  85.0132599  62.5358009  69.5689697
  86.4874878  62.8562164  69.6913376  52.5624542  55.3509140  66.0163803
  53.3442230  55.5594101  65.5049210  52.8490791  55.4119568  66.9276199
  60.0900688  55.2500191  72.3829346  60.1786919  56.2030869  72.3768539
  60.9889984  54.9262466  72.4405975  65.1665878  52.5254669  61.3848114
  65.9954071  52.9647369  61.1942139  64.6632080  52.6016388  60.5742340
  68.1969986  44.5636330  60.5198669  68.9747009  44.0107346  60.4443283
  67.8453445  44.3650932  61.3877106  46.4988251  21.7804852  54.0597687
  47.4095383  21.4868240  54.0353737  46.4637375  22.5043240  53.4344215
  78.7776871  42.9965286  61.3074341  78.3041763  42.2196732  61.6049538
  78.3024826  43.7304726  61.6969719  48.9816055  32.3359451  30.1008587
  49.2043762  33.0262871  29.4763336  49.5340309  31.5964241  29.8475494
  51.2704086  21.4308472  49.6713219  50.3693619  21.7132835  49.8280792
  51.4044838  21.5673943  48.7334480  75.7906189  48.9266243  52.0613823
  75.8651962  49.7915573  51.6581917  74.9089584  48.9111748  52.4337692
  67.5052567  10.2953682  22.3240852  67.2013016  11.1958122  22.2098846
  68.3788223  10.3839817  22.7052174  60.7187881  55.1132317  80.8921738
  60.1405487  54.4443512  81.2588730  60.9320641  55.6786003  81.6345367
  61.8710556  41.6011887  69.8672562  61.4341393  41.6623039  69.0177841
  61.2636948  42.0166321  70.4794235  56.2398033  69.4959030  86.5801086
  56.6191406  69.8690643  85.7844467  55.3413086  69.2739716  86.3358002
  38.2324066   7.9156132   9.5137873  37.5936584   7.2200909   9.3573265
  39.0643349   7.5484476   9.2149258  60.5459480  36.9666443  16.3929386
  60.7389374  37.5263367  17.1450920  59.5925674  36.9943428  16.3121414
  61.2281990   2.3406157  71.4614258  61.5678482   2.7544169  70.6679306
  60.9183426   3.0701070  71.9981461  77.2040100  59.8304901   0.7850199
  77.6481400  60.3032570   0.0811233  77.0187607  60.5000267   1.4435288
  49.0934792   3.3190777   0.7967546  49.7937126   3.2276256   1.4429270
  48.4077148   2.7245874   1.1009592  45.6485786  13.9739313  57.4191246
  46.2103081  14.7481451  57.4549713  46.2178917  13.2801590  57.0862617
  83.1687393  56.6743774  44.8665886  83.7973557  57.2646713  44.4510956
  82.3480988  56.8310928  44.3994484  76.3453217  22.1877613  13.2495155
  77.0513458  22.7147923  12.8753471  75.8380051  22.8058834  13.7756166
  17.3006668  25.8914127  63.3502846  16.4373169  25.5402241  63.5682793
  17.6375408  25.2988911  62.6782227  45.6958656  38.5125008  58.0677757
  44.9069023  38.2382622  57.6002731  45.5893517  39.4566154  58.1841087
  36.9516449  48.2531700  60.7647057  36.9303551  47.3518257  61.0861931
  37.4984245  48.2147217  59.9799881  47.0512352  58.4894485  63.9999466
  47.5390968  59.0188599  63.3691216  46.2914658  59.0259743  64.2260666
   2.8142161   3.9906714  83.6294174   2.4579232   3.8125637  82.7590408
   3.1082604   4.9005656  83.5862579  21.1498318  31.0229073  61.6635056
  22.0327148  31.1909523  61.9929161  20.8669529  30.2350063  62.1276436
  26.9446545  52.9193611  77.5250320  26.5157585  52.2437286  76.9998703
  26.2707729  53.5869980  77.6530075  53.3091431  52.1403809  35.2982025
  53.4859505  51.6310043  34.5073166  54.1740608  52.3135338  35.6699142
  79.2372894  28.2466869  19.8587036  79.5528641  27.8382740  19.0525742
  79.8864670  28.0054340  20.5194588  23.0520878  65.1347504  30.4961643
  23.7946873  65.7209549  30.6415615  22.2936268  65.6262894  30.8113823
  31.6629982   6.6694326  19.5108185  30.7130890   6.7059450  19.3986988
  31.8538532   7.3471065  20.1593266  60.7396545  38.1775398  54.9992294
  61.0925217  38.3869743  55.8640137  60.7787437  37.2224312  54.9494820
  55.9231110  44.1559868  77.8944016  55.2402229  43.8847961  77.2809296
  55.8266830  45.1063690  77.9553299  14.2934046  29.1625042  69.2043152
  13.9594431  28.4738960  69.7792282  14.6256504  29.8328152  69.8014145
  44.7364540  19.9189911   2.0135193  44.7406693  18.9627991   2.0572212
  43.9899368  20.1801090   2.5527427   4.5606203  25.9732265   3.0866327
   5.1562219  26.0347633   2.3398371   4.3841281  25.0366631   3.1756926
  42.7808685  33.7769966  53.0917587  42.2079582  33.9920006  53.8278160
  42.7807007  32.8203354  53.0596008  76.4584503   8.7199249  53.7079468
  76.9348297   8.0070257  53.2824249  75.5442047   8.5766211  53.4632912
  71.7477036  45.7161713  35.3466187  71.5285110  46.5705414  34.9748192
  70.9101028  45.3639145  35.6475716  86.2510300  62.0070267   5.1621485
  86.6010895  62.7946739   4.7458472  85.7406693  62.3342781   5.9028673
  55.3957939   6.6377106   2.3615143  55.7225723   7.4882569   2.6548035
  55.9228706   6.4318838   1.5894676  38.3257217  12.0691156  62.6214638
  38.4749451  11.7931080  61.7171516  38.6084175  11.3224726  63.1495171
  72.8216782  36.7061348  13.9755125  72.4577789  35.8327332  13.8306656
  73.6450882  36.5489235  14.4375935  73.8346024  25.9302711  65.4419174
  74.4834900  26.6295509  65.5205154  74.2650986  25.1610126  65.8149414
   7.0846391  54.4749146  38.3179970   6.8649783  53.6911201  38.8216248
   7.8110304  54.2033157  37.7569084   2.9713693  35.7816696  20.6025105
   3.3992021  35.0670891  21.0742817   3.2425907  35.6638451  19.6921310
  22.2358494  65.1281891   8.7933474  22.5191803  65.9767227   9.1338568
  21.3715630  65.2971268   8.4182453  75.7953644  69.9032135  84.9171753
  75.2104721  70.3057404  85.5591278  76.6753082  70.0981445  85.2395477
  34.8161087   2.0800166  87.5913544  34.5849152   1.1515372  87.5647430
  34.4935837   2.3829188  88.4401550  65.9099808   8.0094728   4.0396957
  65.0393295   7.6633325   3.8437729  66.4144440   7.8550010   3.2410159
  52.0742722  62.2057114  33.6955719  51.3796921  62.0978279  34.3453064
  51.6126709  62.4196243  32.8847733  57.0615616  21.1397057  59.0368500
  57.0823364  20.1832771  59.0045509  57.8222046  21.4132462  58.5241852
  65.0928955  66.2057724  15.1706953  65.9909973  66.4013977  14.9035311
  65.1709213  65.4257507  15.7199736  35.5247612   3.5230620  31.4540977
  36.3914032   3.7196658  31.8097763  34.9170303   3.7841434  32.1460037
  84.8204422  50.5010529  85.9299393  84.2109222  50.2628975  86.6285095
  84.9831085  49.6808510  85.4640579  67.5400848  40.2368050  35.6319504
  66.6505356  40.3961868  35.3164673  68.0780029  40.2334213  34.8402023
  56.9836388  46.9449196  77.7471237  56.4776840  47.4490814  77.1098938
  57.8635521  46.9003105  77.3729706  38.6781731   0.3353373  20.7482471
  38.8960876  -0.3579322  21.3712425  38.8113289   1.1473430  21.2372742
  68.5585709  62.2585831  79.1596680  67.9351196  61.8198090  78.5808640
  69.0507126  61.5453758  79.5663223  29.9180660  50.1311951   6.4722743
  29.2436619  49.6999550   6.9971027  29.7636166  49.8192062   5.5806241
  74.1923218  58.2066727  19.0669022  73.7743759  57.6653214  19.7366009
  73.8128204  59.0766258  19.1909580  71.8200302  50.2989006  86.2886124
  71.8948669  51.2518768  86.3382874  71.8190384  50.1072884  85.3507919
  30.3499165   4.8784680  33.8038483  29.7863636   4.1304269  33.6061783
  29.8803520   5.3584385  34.4860306  21.2427139  53.7872696  63.9946823
  21.2480564  53.4840126  63.0868073  21.5301514  54.6989098  63.9443779
  57.7485504  38.2323875  79.2858658  56.8795204  38.1984215  79.6856995
  57.5886192  38.0906830  78.3528214  53.3122520  28.6782417  57.8314552
  53.7711411  29.1412659  57.1305542  52.7539825  28.0477028  57.3764954
   6.8394713  65.7415771  64.2742767   7.1927276  65.7947159  65.1623154
   5.8921824  65.8181305  64.3883514  34.5288506  38.2495003  14.3934288
  34.3564758  38.2924690  13.4528580  34.7468185  39.1488075  14.6383133
  12.7979336  65.9595108  27.8554173  13.1417303  65.0664825  27.8785114
  13.1580458  66.3340759  27.0515194  17.1997375  10.8308897   5.6874452
  17.1528835  11.0488348   6.6183248  18.1370335  10.7977047   5.4961081
  46.0458870  56.8883972  51.3419266  45.4174080  56.6781235  52.0326004
  46.7206421  56.2138214  51.4186134  12.4623671   5.8494549   7.2898722
  12.3491268   6.0195441   6.3547368  13.2267981   5.2753844   7.3380504
  46.4749413  69.0278931  59.8192253  46.2279587  68.5208054  59.0458641
  45.6611824  69.1208801  60.3145866  21.4364452   4.4078197  68.9224930
  22.0406799   4.3866129  69.6645737  21.8159599   3.8007109  68.2871780
  85.9507980  65.0823441   6.4364676  85.1070938  64.8392410   6.8176560
  85.9151840  66.0361710   6.3645110  59.0515404  17.1815681  57.7850800
  58.1464767  17.4481449  57.9464149  59.2229500  16.5062714  58.4414520
  51.8610039  54.6562004  86.1411285  51.6174431  54.6507568  85.2154541
  52.7742844  54.3697205  86.1501846  64.4052277  61.0264435  18.7092724
  64.9719467  61.6496048  19.1639576  64.6672897  60.1713371  19.0503693
  14.2537346  65.8307800  23.4629612  13.5101233  65.9900589  22.8816643
  14.8622942  65.3121338  22.9367580  13.6834583  31.7201347   4.1236410
  14.1939678  30.9660187   4.4184637  12.8861046  31.3401527   3.7547607
  76.8321762  25.8663254   7.3503246  77.6183929  25.3206234   7.3679872
  76.1717453  25.3210964   6.9227958  60.8021927   6.9414806  22.6372375
  60.4150200   7.4759135  21.9439049  61.2021866   6.2041421  22.1761856
  31.1322098  64.2349701  39.2083969  31.6106319  65.0598068  39.1248169
  30.9151993  64.1771774  40.1388779  67.2648087  31.9625607   3.2156587
  66.9981995  31.0907860   2.9238350  66.4421082  32.4367104   3.3364310
  57.4373932  12.7636900  65.9185181  57.5727806  12.0898705  65.2522812
  56.4866257  12.8615704  65.9704285  59.9646988  55.6481476   7.1589918
  60.7604752  55.8160172   7.6637645  59.7695618  56.4836349   6.7345881
  47.7546158  64.8734207  23.5111866  47.4144554  64.0158997  23.2558956
  47.2418251  65.4972000  22.9972019  29.8367043  49.0175667  62.0224838
  29.1363735  48.6574287  61.4783592  29.6748848  48.6537132  62.8929176
  33.1079178  54.2477684  21.3780212  33.1112747  53.5220795  22.0021954
  32.8481636  55.0089226  21.8970642  63.7833290   8.3579655   8.3190222
  63.8047523   9.1627369   7.8012233  64.5802765   7.8906884   8.0685043
  48.8368645   2.3360491  41.5102272  48.6835670   1.7527843  40.7669029
  47.9613800   2.5404212  41.8388443   8.5635376   3.1358480  55.8890266
   8.0648518   2.4995463  55.3765221   7.9093447   3.5641947  56.4410973
  53.8979797  40.9205475  65.0501251  54.7759056  41.2249260  65.2799759
  53.7667618  41.2241173  64.1518707  48.9385567  56.6580925  29.8969879
  48.1813660  57.1718826  30.1779060  48.7155304  56.3665390  29.0129700
  34.5735550  47.0973969  63.5885353  34.5619736  47.2418709  62.6423721
  35.3670349  46.5847473  63.7428513  33.9300423  36.2579765  20.0483532
  33.4750748  37.0673485  20.2810631  34.5408859  36.5165100  19.3582344
   6.4329143  59.0745239  75.4625549   6.9133711  59.6029091  74.8252182
   6.3129139  58.2287788  75.0306473  22.1025429  68.6628113  63.1321869
  22.0765171  69.6124191  63.2496376  21.2677975  68.4501266  62.7148132
  69.3376007   1.6879948  10.8138590  69.5180893   0.9142320  10.2800541
  68.7557907   2.2218385  10.2728090  24.8315449  15.3796053  28.4495468
  24.3761101  14.6804647  27.9804897  25.7077370  15.3950958  28.0644798
  13.5556231  41.5186882  73.0177841  13.0767622  42.1192474  73.5889664
  14.2375708  41.1479683  73.5779114  55.5092201  63.7204514  68.8582306
  54.8762321  64.2492294  68.3724823  55.0070953  63.3548584  69.5865479
  75.8179474  61.6867256  33.5242996  75.2149963  62.4203377  33.4039040
  76.6467133  61.9952583  33.1579857  65.4723892  55.8954124  26.1577187
  65.7423630  55.1238022  25.6597633  64.5721741  55.7065926  26.4226494
  45.9952240  32.8050575  67.3185959  46.0994263  32.6041183  66.3885422
  46.2882347  32.0129395  67.7690659  75.6493073  34.6308327  82.1584930
  75.2456970  35.4663315  82.3936005  75.3616867  34.0252419  82.8416977
  78.2942810  15.8167515  85.1507492  79.2438049  15.9272575  85.1999664
  78.1708298  15.0551119  84.5842743  50.9116745   5.3682504  16.3429375
  50.4073982   5.2342563  15.5404530  51.5309448   6.0642939  16.1232605
  10.8249407  53.0032997  86.1661453  10.4983807  52.2730942  86.6918716
  10.1123552  53.1975822  85.5572815  72.7178497  22.3239021  41.2087021
  72.8281021  23.1414833  41.6941261  73.2870255  21.6995697  41.6586723
  26.7597713   8.6314917  83.3883896  27.6078129   8.9992361  83.1397476
  26.6867771   8.8102760  84.3259125  59.7329369  53.4271812  86.4332962
  59.0908432  52.9822426  85.8801422  59.6244316  54.3555565  86.2269440
  51.2491913   8.5781078   2.4859021  50.8734818   9.4471922   2.6264989
  50.4986496   7.9848442   2.5168443   9.7293282  27.9134769  28.7881641
   9.8074398  27.1456795  28.2219315   9.7421503  27.5580120  29.6768208
  49.3600693  45.8531532  86.2396774  48.9564133  46.7192612  86.1835251
  48.6837883  45.2984734  86.6285324   9.0335093   4.5270905  75.5243378
   9.6884842   5.2245893  75.4972229   9.3724451   3.9051611  76.1682053
  38.1105347  54.5271950  53.5380554  38.4340248  55.2889786  53.0571480
  38.0084152  54.8375816  54.4377594   2.7333269  40.8468437  27.3975773
   2.5799887  41.6473007  27.8995628   1.9956295  40.2791786  27.6207161
  18.5775337  46.6412392  17.1381626  18.2824211  45.8644257  17.6132450
  18.0089893  47.3443794  17.4521389  81.3531799  71.0733795  65.0553894
  80.8331451  71.7594681  64.6369781  82.0758362  71.5417862  65.4732285
  80.7115631  55.6984749  69.1401901  81.0881729  54.8946953  69.4984283
  81.4635849  56.1866722  68.8050003  11.1190147  42.7054253  35.4235649
  11.6112766  43.3828163  35.8873024  10.6306486  42.2516403  36.1104469
  64.2288208  44.8115158  88.4112091  63.6109619  45.5398827  88.4741898
  63.9613304  44.2097816  89.1058960  50.4787064  39.9075394   6.7219076
  50.5068474  40.7357254   6.2427959  49.9405212  39.3336182   6.1767430
  31.2503948  27.0002613  74.6389771  30.4736462  27.5098095  74.8697433
  30.9036427  26.2040901  74.2363510  41.7146187  39.9802818  18.4722576
  42.6519737  39.7872772  18.4907455  41.5689545  40.3785019  17.6140976
  69.8186874  42.7227325  18.3833942  69.9969101  42.0962563  17.6819744
  69.9379425  42.2202644  19.1893311  49.8323441  57.1786842  76.3899765
  50.5250702  56.5182037  76.3787537  49.1403008  56.7908630  76.9256134
  23.1183414  52.0096016  57.7208061  22.8034573  51.4372749  57.0211449
  22.9817905  51.5050354  58.5226746  60.4709778  71.1203079  76.6741257
  60.2832756  70.8096924  77.5598602  59.8246841  71.8093414  76.5199661
  57.1461525  52.9420586  46.9904976  56.4603081  52.6327858  47.5822754
  57.7348824  52.1934929  46.8941841  27.8534050  57.0720596  39.0686646
  28.7156582  57.0613632  39.4841614  27.5047436  56.1931839  39.2178154
  70.8028564  38.9287529  17.5036354  70.4696655  39.8065186  17.3172379
  71.6392288  38.8865929  17.0400257  64.2409897  20.9593658  19.9442215
  65.0484161  21.1400471  19.4629230  64.3235474  21.4688816  20.7503281
   1.7679988   0.8026533  53.8230400   1.1952676   1.2257421  53.1833496
   2.0433016   1.5118313  54.4039955  69.9721069  43.0804482   2.7502797
  70.2308807  43.8445587   3.2654569  70.0107498  43.3797722   1.8419046
  50.9736710  20.0493317  84.4273071  51.1822662  20.8047504  84.9769058
  50.8966446  20.4098129  83.5439301  59.5566177  46.2923203  80.6927032
  59.5695839  45.8951759  79.8218765  59.7544937  45.5697250  81.2884598
  68.3851166   4.3758183  74.8350525  68.8939133   3.8999233  74.1786423
  68.9194336   5.1423731  75.0427322  54.7835159   2.1832700   5.0313249
  54.5343323   1.3611990   5.4536252  55.4909477   1.9407908   4.4338484
   7.2102056  52.4930267  20.6687355   6.2626886  52.4089775  20.5620613
   7.4133997  53.3637581  20.3270111  61.2994957  40.1355820  34.1491776
  60.4291039  40.3156433  34.5044632  61.7204323  40.9938583  34.1001320
  60.1114273  11.0948143  19.2959709  59.6224976  11.1837778  18.4778843
  60.9800949  11.4429770  19.0949116  51.8846283  15.5117321  32.2726212
  52.3823891  14.8778906  31.7561779  52.5202751  16.1923504  32.4938545
  21.9542923  59.8530312  12.2244453  21.8488789  60.3129845  13.0572491
  22.5679092  59.1443977  12.4182024   9.9583921  22.9106655  77.4711609
  10.2336063  23.6320896  76.9054489  10.5426292  22.1885948  77.2398300
  56.9923477  41.1715240  12.8001862  57.0278664  40.2151680  12.8189154
  57.8069191  41.4330940  12.3709002  31.1307087  45.3896523  21.6801434
  30.5444794  44.9627228  22.3048840  30.6834221  45.3082123  20.8378067
  79.9197388  65.9054489  69.0118790  80.6189117  65.3306351  68.7004700
  80.1758881  66.1314392  69.9060516  34.4170876  48.1478348  70.8179550
  33.6179276  47.6373520  70.9482727  34.5347481  48.1703148  69.8682785
  80.3422241  13.0429153  27.6605587  80.7734833  13.3020496  26.8462486
  80.4138794  12.0885315  27.6763363  41.4120445  31.7497425  65.1825790
  42.2461205  32.2096825  65.2774582  41.6313362  30.9533939  64.6988754
  81.4741821  -0.0877492  70.5803146  82.3230362  -0.2863146  70.1850357
  81.4896469   0.8594097  70.7177277  86.6578598  63.7167473  51.3864098
  85.7891998  63.7039604  50.9845314  86.8365631  62.8008957  51.5997467
  50.5597610  57.8463058  64.8756638  50.3716431  57.5756340  63.9770126
  50.6278954  57.0256844  65.3636856  59.1690178  43.6373940  18.0410309
  58.9790039  44.5438766  18.2827206  58.5439072  43.1184883  18.5471954
  54.6203308  29.6421185  40.4404259  54.9574699  28.7611313  40.2778511
  55.3810158  30.2132015  40.3333855  68.6567688   1.4284487  78.5936127
  68.1045761   0.7018639  78.8823853  69.4513092   1.0089523  78.2635269
  57.2770271  51.7324333  14.5542822  56.9968529  50.8673019  14.8530779
  57.3037720  52.2636337  15.3501120  74.2320938  48.3935127   5.7148156
  73.4405899  48.9308205   5.7470951  74.1350327  47.7800865   6.4431820
  56.1616936  37.9358177  44.7723999  56.9493217  37.6436386  45.2312126
  55.5890236  37.1688385  44.7673721  15.2060242  40.2594299  53.8675537
  15.2153416  39.3036880  53.8155746  15.6874037  40.4603500  54.6701355
  85.3792877  25.2474003   3.4169400  85.9398651  26.0166206   3.5183616
  85.4512177  24.7867165   4.2528992  59.8597946  32.9891052  79.9370499
  60.7771225  33.0018806  80.2101364  59.3785858  32.7386208  80.7256699
  44.1751175  51.4409523  82.8184509  43.6889915  50.6375389  82.6328812
  43.7456627  52.1094513  82.2846832  26.1243210  60.7460480  16.7379932
  27.0263710  61.0517693  16.8332500  25.9442177  60.2742081  17.5511112
  60.0088997   4.7622833  24.1393185  60.2154655   5.6358166  23.8069000
  60.8546448   4.4006324  24.4041882  76.5609207  49.6096230  57.3411293
  76.8742065  48.8218575  57.7855530  75.6172333  49.4757118  57.2531319
  65.4541092  71.6384583  16.4210777  64.8376770  70.9339218  16.2214069
  65.9967804  71.7115631  15.6359730  13.8631506  35.9729118  85.8345032
  14.6834564  36.0345154  85.3450775  13.4534140  35.1690063  85.5149994
  33.3870659  54.8252869   1.0033102  34.0987778  54.2641029   0.6954594
  33.1559448  54.4699097   1.8615195  16.8681755  57.0154724   2.1667461
  17.5245609  57.3073006   1.5341138  17.0627060  57.5134888   2.9607048
  22.1927452  40.9890366  48.3025131  22.7086811  40.6070633  47.5924873
  21.2968693  41.0050774  47.9657898  56.6234322  51.5846291   4.0907989
  56.2677689  52.3596764   4.5255890  56.0457153  50.8713760   4.3623595
  18.7835026   1.4154574  23.0074902  17.8574734   1.6455518  22.9316196
  19.0048351   1.6101350  23.9181747  67.4468842  59.8121490  15.9920511
  67.2501984  60.0894165  15.0972500  68.1365891  59.1558037  15.8932848
  40.2546806  36.4214783  80.1692123  40.7812424  35.8497162  80.7278290
  40.7611351  36.4989166  79.3606720  63.8591385  34.7416878  67.3245697
  64.7552795  34.4056892  67.3407974  63.9163132  35.5520554  66.8183441
  60.2173080  45.0016060   2.6099749  61.0756302  45.3319588   2.3446698
  60.1605453  45.2049026   3.5436134  59.2811737  26.5506897  80.7392807
  59.1429520  25.6244698  80.9373779  60.1043015  26.5709743  80.2511368
  71.6463165   0.8751732  80.1910706  72.5807266   0.6713868  80.2307434
  71.5018692   1.1623101  79.2894516  27.9116898  37.7339249  85.0358124
  28.1657715  38.3717575  85.7027740  28.1505203  36.8865318  85.4114685
  26.6159954  62.1093712  80.4243469  27.4377613  62.0451775  80.9109802
  25.9876499  61.6130524  80.9488297  61.5674515  50.9771843  86.0532455
  60.6507874  50.7044563  86.0134430  61.7390633  51.3661728  85.1956558
  34.4490509   7.1825037  34.3233986  33.8441505   7.6048756  33.7135391
  34.6638947   7.8651824  34.9590263  14.0268278  67.7503510  42.9664001
  13.1517696  67.3927917  43.1169128  14.5470161  66.9988098  42.6821098
  11.1165218  37.2861938  15.7009907  10.2417364  37.6236115  15.8936863
  11.7097988  37.9788055  15.9917564  47.3629303  69.2653656  41.5706406
  46.9134521  68.5412445  42.0063591  47.7441292  69.7753983  42.2853355
  15.3613577   6.2621241  69.8132629  15.9143362   6.2742381  70.5944824
  14.5283022   6.6334605  70.1037140  23.4758644  41.7073174  24.6268406
  24.1915836  41.3087692  25.1219540  22.8241959  41.0109673  24.5452843
  66.0253754  28.1945362  40.4959183  65.3241196  27.9543266  39.8902931
  66.3155441  29.0562210  40.1967049  50.5149269   2.4613562  12.6188555
  50.3882103   1.5148047  12.5539274  50.0998688   2.8131466  11.8313265
  48.8221054  65.7830429  78.9008179  48.9302406  64.9569168  78.4295807
  48.7693901  66.4462280  78.2126007  39.0335388  19.1974678   8.3482265
  38.3734894  19.7381802   8.7820444  38.7931137  19.2230530   7.4220657
   1.5262388   0.9490337  40.0377884   0.7069755   1.4320441  40.1461411
   2.2093296   1.5860552  40.2471237  71.3269577  27.9616375  86.8660660
  71.4219055  27.0104256  86.8169327  71.3089066  28.2480221  85.9528885
  49.3390656  25.5884800   9.3195000  49.1872139  26.4275627   8.8846312
  49.0228233  24.9348068   8.6958551  73.7479324  13.4737263  68.3012085
  73.1639709  14.1339579  68.6744537  73.8303375  12.8114567  68.9873886
  32.1988335  63.5685005  44.8074646  31.2670174  63.7411957  44.6728287
  32.6411057  64.1331100  44.1735535  22.4733467   0.9718227  73.3304367
  23.1240520   0.2739416  73.2544327  21.6326752   0.5291763  73.2139435
  50.5210571  13.2573299  14.7992897  50.2476845  13.2133608  13.8830118
  50.2354546  12.4244156  15.1746769  66.8032990   5.1816077   3.0018682
  66.1896591   4.4479747   2.9636552  67.5401917   4.9061456   2.4565747
  27.2405701  45.3263092  53.2157364  26.9887371  45.2278442  54.1339493
  26.7465668  46.0879402  52.9122429   4.8535900   2.1983476  51.2504234
   4.1757789   2.1045539  50.5810890   5.5192399   2.7513549  50.8413696
  79.2115860  16.3874168  10.4219952  78.9320374  15.7236643  11.0524874
  78.3976822  16.7012997  10.0279493  59.5951805  35.6309891  22.8395519
  59.9458694  35.4698486  23.7154980  58.7792244  35.1312637  22.8125648
  40.4559708  43.9394112  50.9868050  40.8104515  43.3645363  50.3084984
  40.5253639  43.4290352  51.7936096  25.8682919  66.2075653   4.1447473
  25.9582214  66.3852386   3.2084899  24.9471436  65.9725876   4.2565470
  20.4560642  50.7382965   3.0011470  19.5190105  50.5876770   2.8767374
  20.8756752  49.9705544   2.6129036  47.5565453  19.6043930  88.4552307
  48.4965782  19.4382019  88.5255966  47.4019318  20.3531818  89.0311203
  85.9012909   0.0563041  15.3681116  86.6001511   0.6632925  15.1244240
  85.6639252  -0.3772042  14.5483789   6.8974910  20.7625065  70.3706207
   6.0644970  20.3859806  70.0867538   7.3414106  20.0465946  70.8251953
  37.8884201  59.6167336  29.8723984  38.8344078  59.7546005  29.9207497
  37.7211037  58.8910027  30.4736881  67.0886154   3.6992030  28.7669468
  66.7624664   4.5900474  28.8944359  68.0090103   3.7416985  29.0263596
   0.8491060  65.8737564  58.3705750   1.4692001  65.9197464  57.6428375
   0.0164135  66.1585464  57.9940796  27.2266922   9.5238495  66.7761459
  27.8021030  10.2577372  66.9918823  26.3564148   9.8132496  67.0501862
   3.1034951  45.8457375  36.4388657   2.8915305  45.9558105  37.3657913
   2.3118465  45.4683647  36.0553131  50.5158463  43.6407394  62.7144508
  50.8663597  43.6497536  61.8237839  49.5746078  43.5094757  62.6001129
  72.8297882  37.8904686  48.9668465  72.3604889  37.9723587  48.1366119
  73.3274231  38.7046852  49.0420036  12.9402647  59.3953247  34.9153709
  12.1460581  59.8738899  35.1529465  12.7205486  58.9607315  34.0913048
  56.8948174  37.2677536  60.4723816  57.2060852  37.8217773  59.7565575
  57.5479660  36.5710487  60.5374451  83.4561691   2.3823433   0.6327909
  82.7812576   3.0174217   0.3932180  82.9679794   1.6178253   0.9384235
  65.2930527   5.7621655  53.8991432  65.7004471   6.3900418  54.4958229
  65.9442444   5.0674648  53.8013191  86.0842438  65.0363083  24.0239201
  86.1895142  65.8525772  23.5351982  85.4533005  64.5302963  23.5119648
  78.6187057  26.3542290   4.1738963  79.4184113  25.9200878   3.8768632
  78.1955795  25.7125683   4.7443962  31.1180229   9.1732111  85.2434616
  31.9874229   9.3869963  84.9048309  30.5330582   9.7958212  84.8117142
  49.5037498   0.6853670  31.4157372  50.1980438   0.1191759  31.7528095
  48.9365692   0.0976399  30.9166241  66.7914505  61.5181160   1.4603484
  66.4323502  61.7805481   2.3079393  66.3410110  60.6994972   1.2524904
  26.5506973  70.4673462  47.9971657  26.1852074  70.5871964  48.8736839
  27.2396622  71.1286850  47.9324608  47.5983009  39.2169952   2.1269932
  47.9327736  39.9515800   1.6124613  47.7790451  38.4459877   1.5893062
  74.6927948   3.7024944  21.8332634  75.6156311   3.5965075  22.0642891
  74.4719086   2.9025507  21.3562622  34.2161255  42.0793381  40.8073120
  34.5966263  41.2642937  41.1346474  33.6958237  41.8132591  40.0492096
  70.0840073   7.1707835  82.7578964  70.2539749   6.9879913  83.6819763
  69.1564484   6.9659877  82.6399002  49.9712029  27.6986713  78.1986237
  50.4273453  28.5390034  78.1537781  49.4870224  27.7326965  79.0236359
  69.6082916  17.7874832  78.6296616  70.4080505  17.6182232  79.1276321
  69.7447128  17.3360252  77.7967148   6.2908764  14.6364279  75.4556885
   6.0985508  13.7181644  75.2658539   5.4443841  15.0778093  75.3859329
  60.7499161   6.1901927  40.4767799  60.0385628   6.0216904  39.8588676
  60.4510002   6.9431734  40.9865837  73.1594009  60.4177094  85.9033661
  72.6703491  60.9008331  86.5694351  72.5194702  60.2487488  85.2118607
  12.1683464  61.4766388  72.3179855  11.2637634  61.1636543  72.3177872
  12.5579519  61.0836067  71.5369873  63.2229691  38.6052246  68.5872955
  63.8007126  37.8773956  68.3577194  63.2710037  39.1955414  67.8353348
  58.9070053  16.8285351  68.2806473  58.6047859  16.8773499  69.1875687
  59.6395302  17.4432678  68.2388687  74.8522339  52.7984238  88.1282654
  74.4675674  52.4820786  88.9456940  75.1794128  53.6726761  88.3401031
  65.3884811  21.5282688  62.4068832  65.7675476  22.1630478  63.0148239
  66.0260468  21.4676762  61.6954956  60.8172188   9.2011442  66.6727066
  60.7218971   9.8914671  66.0165024  59.9346046   8.8454208  66.7760696
  71.3361053  63.6965675  10.3561649  71.5157700  64.2359085  11.1262741
  70.8118591  64.2595062   9.7865238  53.0052109  59.0766182  38.1595650
  52.3246155  58.8023796  37.5448990  52.7028503  59.9226112  38.4898872
  69.6951370  55.3440361  67.9592361  69.6118698  55.6329498  67.0504837
  68.8159637  55.0510635  68.1989288   3.2323613  35.2101288  78.0860901
   3.7744665  35.8987961  77.7012634   2.5807512  35.6806488  78.6059418
   5.0124979  34.2580986  83.4288559   4.5265455  34.4607353  84.2282410
   4.3839345  33.7911339  82.8783188  69.4126968  57.0225983  33.5811081
  70.3282776  57.0204430  33.3019447  69.2165985  57.9437599  33.7520943
  63.2792091  36.4514198  44.4972763  62.7433434  35.7138138  44.2056999
  63.0268135  36.5844154  45.4109726  83.1312332  56.6103516  68.2569427
  83.7111282  55.8497887  68.2182312  83.4640579  57.1999893  67.5803452
  28.6669998  23.1161556  40.5781059  28.9301071  22.4998455  39.8946114
  28.3573627  22.5616932  41.2942963  59.9343529   2.9035447  52.7723846
  60.8765182   2.7407720  52.7270050  59.5438614   2.1940057  52.2621841
  55.6409416  51.9700050  39.2402725  55.9581566  51.0681915  39.1918526
  56.0933456  52.4216156  38.5278091  81.5090027  24.7152462  61.7477226
  82.4450531  24.9134541  61.7751083  81.1348801  25.2262249  62.4654732
  14.1873035  24.7527504  87.7127457  14.5299673  24.5237198  88.5766678
  14.0607862  23.9112434  87.2744675  16.4598293  25.2045326   4.4936876
  16.2374306  25.7113018   3.7126906  16.2893600  24.2957592   4.2460990
  51.5269814  17.6690598  10.6019258  52.2362862  17.0559845  10.4088964
  51.6218719  17.8589153  11.5352974  71.2753143  14.7728786  38.6561508
  72.1369324  14.6646280  39.0587959  71.1312332  13.9575233  38.1758728
   4.1046624  27.9044571  82.6529465   4.4871736  28.7677116  82.4957657
   3.6538887  27.6899128  81.8362427  65.3700714   2.5952544  78.1828461
  65.8388290   2.3327394  77.3906403  64.7065048   3.2126276  77.8750153
   4.2816620  33.9578781  10.3290129   4.0539351  33.6265869  11.1976995
   3.9390881  33.2997131   9.7242851  84.0223312  48.9754906  39.5811348
  83.5327148  48.9286461  38.7599678  83.8475266  48.1389503  40.0122719
  73.1205521   1.9245837  72.5928192  74.0212250   1.6780543  72.3824921
  72.9271393   2.6522067  72.0017319  64.2957535  38.7252731  80.1761932
  64.3245697  37.8745003  80.6138992  63.9573517  38.5333328  79.3016205
  64.5823059  25.4886589  52.9917564  63.6804543  25.6432018  53.2728424
  64.6453476  24.5378418  52.9011574  64.5583038  65.7045746  10.7776670
  63.9362297  66.2956390  11.2018108  65.2083740  66.2849960  10.3817406
  22.8326187  70.7248459   8.0397367  22.9891415  71.1185684   8.8980560
  23.7001019  70.6722336   7.6385703  59.5279846  54.2139778  55.2251472
  60.4053841  54.2302933  54.8428688  59.6537819  54.5112610  56.1262741
  22.6821365  56.8012772  84.0384827  22.1091938  56.2536125  83.5017929
  23.2631416  56.1808052  84.4785690  61.6917343  45.4084930  68.8759384
  62.5945358  45.3893051  69.1934509  61.7686234  45.2962151  67.9284592
  70.5292664  66.7029343  80.6113739  69.7769928  67.0483551  80.1307526
  70.3453598  65.7681885  80.7044373  12.9656591  24.3244286   9.4767590
  12.6588697  24.6575031   8.6334476  12.9666853  25.0904140  10.0507774
  78.4481888  11.5478697  31.4653816  77.8978424  12.3008165  31.2499294
  77.8366852  10.8925514  31.8013229  71.9833374  25.0910511  53.8692703
  71.3398056  25.4859314  53.2809143  72.1932068  25.7845154  54.4948044
  58.5552940  10.6712761  87.5821838  58.9204750   9.8867989  87.9914169
  58.0952530  10.3457546  86.8084717  85.2423706  25.5127449  79.6613617
  85.0481491  26.3819485  80.0120697  86.0554199  25.6290016  79.1697693
  73.0585785   5.7962108  87.1012421  73.3024216   6.6952434  86.8809891
  73.2008514   5.3044624  86.2924347  39.0604477  35.3436661  74.4897079
  38.2857399  35.1171989  73.9751511  39.7585793  34.8011360  74.1229477
  57.0387611  32.3739738  74.6273727  56.7952156  32.8944664  75.3928909
  56.7874603  32.9159164  73.8794632  71.1095276  30.3252239  68.7991943
  70.2431870  29.9386635  68.6717148  71.5924149  29.6699715  69.3028793
  71.9270401  41.4322739  41.9653816  71.5577927  42.2795105  42.2145386
  72.8283920  41.6294327  41.7105980   0.0764752  57.4819031  85.7074127
  -0.2511690  56.5908470  85.5853577   0.9206948  57.4905548  85.2563553
  21.3964024   5.5737014  43.2133446  22.2008476   5.4115686  42.7205811
  20.7125797   5.1361790  42.7062035  71.6789551  37.8381157  46.3431969
  71.3116455  36.9681740  46.1866074  71.7246552  38.2386284  45.4750175
  64.8809509  61.4771423  43.6327095  64.7434158  60.7936554  42.9768410
  64.0851593  62.0078087  43.5961266  70.2269516  30.8513317  46.3102226
  70.7943344  31.5222969  46.6898499  69.6343079  30.6083355  47.0215302
  29.8760700  28.3908863   1.9301887  30.2199821  28.4967594   1.0432004
  29.5253181  27.5004120   1.9463739  23.6463165  32.3405380  59.9177170
  23.7031231  32.1560974  60.8552589  24.5389576  32.2173119  59.5948563
  49.0735207   7.9857073  65.3823013  49.6643677   7.2817488  65.1147690
  48.6241531   7.6409583  66.1539536  32.1743965  68.5713120  23.7511768
  32.9352531  68.7096176  23.1870842  32.5425720  68.2584229  24.5774822
  37.9243584  30.4019833  84.3981171  38.3086319  29.8311024  83.7327881
  37.3536263  29.8262501  84.9070663   6.2546725  57.8723488  47.2725525
   5.9642844  57.9196167  48.1834183   6.2957959  56.9350853  47.0826073
  50.4299889  66.7221680  29.3818722  49.8993149  66.0147095  29.7480888
  50.6882973  67.2452850  30.1407242  46.3374023  53.4566956  27.7777424
  47.1920128  53.2893982  28.1750908  45.8092232  53.8187485  28.4892044
  42.1816101  40.4016800  36.1740150  41.7927170  41.0051842  36.8070869
  42.2622185  40.9162064  35.3708992  41.7631912  18.9791603   5.6847548
  41.7200623  18.5873642   6.5570326  42.6067619  18.6924591   5.3348594
   9.8851461  55.9067383  58.4175186   9.0535975  55.8999710  57.9434814
   9.6616993  56.2350998  59.2884293  59.7676392  70.4313278  69.7046051
  60.5984116  70.0369949  69.4389954  59.4291496  70.8371658  68.9065170
  52.2523270  63.5271797  24.7734280  51.5345993  62.9838448  24.4480305
  52.2719231  63.3590240  25.7155380  21.9786758  66.1202774  28.1243877
  22.2843628  65.5464401  28.8268795  21.2294025  65.6591110  27.7473660
  83.5556564  23.1987095  26.1227703  83.9073868  23.8872604  26.6870518
  84.3145981  22.6586208  25.9024448  51.3726311  19.0792484  68.1116409
  52.1262894  18.5253849  68.3152771  50.6253662  18.6150780  68.4889603
   3.1351347  35.8987160  42.7940941   3.4263546  36.4983139  43.4810486
   3.2246876  35.0282936  43.1821365  83.7125473  23.0065422  11.4714069
  84.6340561  23.1204987  11.2388697  83.3824844  23.8976936  11.5860252
  70.4612732  30.8125935  73.7621078  71.2479630  31.2923775  73.5029678
  69.7906189  31.4882545  73.8617935  18.5542259   4.4834127   0.5209875
  17.6400700   4.1996546   0.5154094  19.0281754   3.7729797   0.0886804
  83.9971313  67.1445923  88.3788528  83.2544556  67.5771027  87.9574356
  84.1650620  66.3741531  87.8362122  82.6339645  54.2704391   7.0751281
  83.0219803  54.2695389   7.9501591  81.6896896  54.2658463   7.2318354
  45.2246513  63.7463379   5.5708828  46.0543137  63.8194008   6.0426388
  44.6584015  63.2457809   6.1582785  83.6450653  36.6787682   5.7232943
  83.3838882  36.4864578   4.8227210  83.0234070  37.3452454   6.0158334
  47.2734985  67.9437332  86.3512039  46.6919174  67.3018188  86.7585678
  46.7271461  68.7207108  86.2327576  12.2771893  32.8596191  67.1371765
  13.0268764  33.0616379  66.5773697  12.1593676  31.9139252  67.0476532
  81.5174408  13.9498501  29.8562832  82.2340927  13.3178034  29.8000374
  80.9339828  13.7152424  29.1346397  54.5848999   1.9021779  59.6145363
  54.2915535   2.4309373  58.8725166  53.8309364   1.3534417  59.8305473
  40.4811134  46.5810738  10.1804790  39.7866249  46.3171921  10.7840357
  40.8258629  45.7568359   9.8369522  47.3855705   4.3651290  10.1997747
  46.5715027   3.8616488  10.2056007  47.1417923   5.2102685   9.8222237
  51.2257690  13.4661369  36.8989868  50.8298950  14.0779095  36.2783012
  50.9634132  13.7942381  37.7590752  39.4540329  43.5027542  59.2298584
  39.5296669  43.4893379  58.2757454  39.6683998  42.6097450  59.4996948
   9.8275700  54.6157265  88.9757233   9.3669806  55.1740761  88.3493576
   9.2851667  53.8296509  89.0398788  34.3597107  57.0514755  30.1680374
  34.1462555  57.1713867  29.2426777  33.8444824  56.2905922  30.4360428
  71.1649475  43.8997841  53.9502449  70.5657349  44.4159355  54.4894753
  71.6062317  43.3196907  54.5707207  32.3793983  29.6377296  10.9766903
  31.6212902  29.5050297  11.5458059  32.5926971  28.7622280  10.6538439
  39.1297417  66.1785126  81.9506378  38.7612801  66.1707458  81.0672302
  39.5622177  65.3289871  82.0372391  24.4883614   5.7777872  58.5307884
  25.3535500   6.0843616  58.8022499  24.4597855   4.8628469  58.8106079
  60.9949684  51.0004082  30.6069374  61.4289551  50.1597252  30.7523460
  61.0428085  51.1340828  29.6603260  30.2822609   4.9515529  30.1630859
  30.2992554   4.4134698  30.9545460  29.7177658   5.6910510  30.3882942
  62.6294479  55.4602089  33.5211906  62.0768013  54.9335938  32.9437027
  62.7652130  54.9084015  34.2914543  38.2451553  62.2126503  51.4267540
  37.4963112  61.6491585  51.6215553  38.8147240  62.1268730  52.1912575
  77.7842102  68.9088745  47.5813332  77.8949356  69.7930832  47.9308243
  78.3856964  68.3708267  48.0960617  39.5604362  51.3443642  86.0231323
  39.5372581  51.6053810  85.1025009  38.8353996  51.8222160  86.4258957
  20.1726799  49.7723427  71.3059082  19.6437931  49.5896683  70.5292892
  20.7980175  49.0487251  71.3454590   7.8204274  54.0838661  44.7026329
   8.6256657  54.4231224  45.0934372   7.9842911  53.1473923  44.5913124
  43.2416687  59.7527695  65.2165909  43.7193298  60.0012360  64.4251709
  42.5563278  60.4156837  65.3007584  72.2756348  46.0641403  13.7605228
  71.8328629  45.2674294  14.0528126  72.5032959  45.8903046  12.8471861
  41.6711197  63.4932861  72.2221069  41.5826378  62.8740616  71.4975662
  42.5658913  63.8246918  72.1460266   2.5080967  13.6081753  61.0552788
   1.5638269  13.4973040  60.9444008   2.5944376  14.1716442  61.8242264
  47.9421959  67.7135925   5.4487882  48.2195587  67.0468063   6.0770364
  47.8815765  67.2468796   4.6152821  71.7859039  71.3423157  49.0956001
  72.6496735  71.6352463  49.3859863  71.8865509  70.4006042  48.9567032
  22.9314098  37.8457069  24.7790680  22.1243706  38.3574371  24.8342934
  23.2612839  37.8209953  25.6772900  60.4484901  19.8958187  14.2516775
  61.1362190  20.3813400  14.7072325  60.0130615  20.5514965  13.7069569
  84.6421127  32.7442245  54.8425560  84.1960831  32.7696381  53.9960060
  84.5398102  33.6287422  55.1938286   2.9233630  64.4037170  81.9696503
   2.4278667  63.5847664  81.9753723   2.3937485  65.0077286  82.4901428
  78.9915619  34.6773338  83.4932938  78.2715836  34.9922371  84.0398331
  79.7822800  34.9635925  83.9505157  71.7599945  49.8711128  19.6215725
  71.9981384  49.2061539  18.9755497  72.4608688  50.5206833  19.5662041
  13.5542984  45.3726349  57.1518593  13.4195538  45.4760780  58.0938644
  12.9129553  44.7123718  56.8892517  51.4022751  48.2691803  13.9397287
  51.4876137  47.4590340  13.4371204  52.1227570  48.8190536  13.6318760
  32.4678459  54.5002747  37.5528526  32.8904953  54.9132652  36.7998314
  31.5306587  54.6052132  37.3888435  66.5309830  18.9451923   2.8873453
  66.4342728  18.0100670   3.0674012  66.6245041  19.3469982   3.7510810
  66.0382156  40.8520737  68.9577103  65.5720367  41.0515594  68.1458511
  65.5667877  41.3423080  69.6312485  53.3314552  52.0903893  46.5831985
  53.8084717  51.3818207  47.0151939  52.4360199  52.0117035  46.9121933
   4.1472178  51.3117027  75.8453903   4.6347108  50.8318634  75.1758118
   4.6825504  52.0849876  76.0233765  10.9408112  70.8273849   6.7567301
  10.3084517  70.4677429   6.1346283  11.7943258  70.5828094   6.3990583
  28.2884560   8.0977478  62.8813019  28.7229919   8.5042467  63.6310806
  28.8058453   8.3751631  62.1252708  85.5759125  30.3074093   4.4662390
  85.8537598  31.1825409   4.7367539  86.3834763  29.7937603   4.4509797
  48.9966774  49.7122498  29.0355358  48.5748329  49.5034943  29.8690243
  49.0463829  50.6681023  29.0250359  60.8182144  36.5602722  69.1736603
  61.3896675  37.0265121  68.5635071  60.9226646  35.6374092  68.9420395
  16.3553638  69.9360046  88.1508255  16.1554718  69.3952332  87.3867340
  16.9118710  70.6361542  87.8097610  11.9672174   2.9634399   1.8250892
  12.5902567   2.8471675   2.5423999  12.0113411   3.8970346   1.6184843
  30.9430809  35.5261383  17.4363346  30.8175316  36.1388016  18.1609821
  31.7272034  35.8429298  16.9879761  82.3628464  38.3880692  58.3861389
  82.0504227  38.5889168  57.5039368  83.2673721  38.7010422  58.3969383
  71.2088470  65.6230545   6.8527904  70.6510696  65.4220810   7.6042709
  70.6086578  65.6423492   6.1073847  23.8217354  48.5555115   0.1723050
  23.8357544  48.1349297   1.0320401  24.3632240  49.3375359   0.2793768
  51.8378830  30.7916737   6.4938779  51.2032700  31.3113670   6.0005045
  52.6862068  31.1751099   6.2712703  33.8923187   1.8011106  66.5935135
  33.4633064   1.9304097  65.7476578  33.5398674   0.9718603  66.9165497
  85.0244370  44.0432167  33.3960342  84.3354111  43.5503197  32.9504738
  84.5559540  44.7132416  33.8938522   5.9407849  55.3334274  58.9132347
   6.4145055  54.5776939  58.5658264   5.0170488  55.1118660  58.7955284
  82.6887360  30.0839748  67.6834335  82.3246002  30.5935535  68.4072952
  82.6058426  29.1732426  67.9661560  34.9669495  29.3730927  76.3300629
  34.1627159  29.2522793  76.8348846  34.6886177  29.3067265  75.4166260
  65.5646362   5.7269592  81.5259247  65.9832382   6.0728412  82.3141937
  66.2908554   5.5432582  80.9300385  27.5693798  47.2153244  34.1420250
  28.3276291  46.8997841  33.6503677  26.8654728  47.2588005  33.4948311
  80.7569122  35.1892509  20.5762024  81.6149826  34.9534378  20.2235928
  80.1659470  34.5163231  20.2383213  23.9748459   2.9494636  19.3953152
  24.0386944   2.6787221  20.3112049  23.7917099   3.8881326  19.4352417
  20.7142792   4.1568031  76.0851135  20.7783833   5.1048446  76.2006149
  21.1570759   3.9863188  75.2537918  70.3520355  50.9912453  44.5462265
  70.3684158  50.3256874  43.8584785  71.2229996  51.3872299  44.5171165
  35.8223534   1.9185762  22.8387985  36.5918961   1.3697296  22.9898014
  35.4547234   1.5946075  22.0165291  76.6221008  42.9927559   1.9417582
  76.2907791  43.6290627   2.5754545  76.3412704  42.1444626   2.2849336
  58.3144989  56.4614792  17.9214478  58.7870903  56.1652489  18.6993523
  58.8735886  56.2031479  17.1887016  21.6626606   9.3414040  75.1295700
  22.0528908  10.1383934  74.7707367  20.7583923   9.5854073  75.3270340
  56.5648079  50.5089149  58.7226448  56.2516632  49.8883934  59.3807678
  56.3091202  50.1202049  57.8861313  40.1523438  41.9834900  37.9628639
  39.5223885  41.2906075  38.1611023  40.7447433  41.9908714  38.7146873
  66.1999817  39.6088905  49.8509636  65.9205170  39.1115303  50.6195755
  67.1492920  39.4900284  49.8209381   1.5893292  31.2010651  50.8901367
   1.5056705  32.0495262  51.3252754   0.8049232  30.7191219  51.1521835
  54.3909721  37.4396324  55.9121361  55.0577621  37.0148239  56.4517250
  53.5895233  36.9474792  56.0901756  15.1293821   5.0831947  58.2704811
  15.5824757   5.8693471  58.5752792  15.0848637   4.5181661  59.0418358
  27.1268730  48.8651772   8.8232069  26.9071083  48.2606277   8.1143656
  26.9342117  49.7323875   8.4667521  69.9848862  10.2465296  23.2568474
  70.1369400  10.0477266  24.1807461  70.6980438  10.8389587  23.0188103
  79.7388000  41.5544090  73.2854233  80.5626373  41.4271202  73.7558670
  79.0608063  41.3823433  73.9388428  81.2750473  49.8431435  80.8104095
  81.4240189  49.2072411  81.5101776  81.7378845  49.4807854  80.0549622
  42.3898697  20.9775620   8.4649963  41.6712379  21.3431664   7.9491181
  43.1741562  21.4029598   8.1183510  73.4575272  42.1538925  62.8048973
  72.7307510  41.6303940  62.4672890  73.4245911  42.0261345  63.7529640
  10.0425911  56.3347092  71.6594391  10.6618233  56.6785889  72.3032837
  10.4741888  55.5582542  71.3029633  44.7557716  69.0908051  67.9212418
  44.9635544  68.5429916  67.1642990  44.1057014  69.7131882  67.5952377
  38.4005547   3.7016122  73.9979095  38.1282349   3.1293180  73.2805862
  38.3948822   4.5804095  73.6185532  46.1971436  40.5662003  35.0366745
  47.1246834  40.7492294  34.8869972  45.7361870  41.2275009  34.5205040
  53.9042816  66.5179825  42.8403397  54.0366669  66.0975800  41.9906502
  52.9992447  66.3097000  43.0722008  74.3775482  62.8141861   2.5065868
  73.8492661  63.4085884   3.0393515  74.1918182  63.0725670   1.6038262
  79.9540863  40.7947235  29.0112381  79.7366257  41.4031715  28.3050308
  79.1679382  40.2588425  29.1162548  24.5149307  62.3123932  83.4313660
  24.7844524  63.0841026  82.9333191  24.9546394  61.5814514  82.9970703
  22.1091309  47.2997017  77.8250046  21.4081917  46.6505623  77.8844376
  21.8073616  47.9177818  77.1593094   0.8874524  13.7155352  68.8886261
   1.7629207  13.4312716  68.6259842   0.9622979  14.6650991  68.9832764
  59.9315948  14.6506424  59.0994110  59.5113640  14.1204634  58.4222488
  59.4166603  14.4830875  59.8887138  86.4265747  44.6998978  82.6275940
  85.7114944  45.0073128  82.0704727  86.2933655  43.7539444  82.6881180
  64.3146210  23.0353928  35.1575127  63.4966621  22.6198692  34.8845329
  64.9467392  22.7855721  34.4835358  41.4080276  62.6919479   8.0164700
  40.7125702  62.2560349   7.5239725  42.2179298  62.3921051   7.6036973
   5.9716263  24.4896336   9.0663471   6.6543384  23.9774952   8.6329288
   5.1607447  24.0184669   8.8747644  70.8276443  26.1202183  24.5240173
  71.6802750  26.2174301  24.9480515  70.7672653  26.8705425  23.9327488
  44.2045021  48.2941170  25.4274006  45.0154953  48.7740440  25.5953236
  43.7305756  48.8375473  24.7978668  46.4482765  11.3194084  32.2245979
  46.3678513  10.6213055  31.5746613  46.8299789  12.0528498  31.7423115
  15.1522369   5.2186489  65.9330444  14.2273636   4.9940724  65.8310394
  15.6032867   4.3745399  65.9493637  23.3842468  69.1920242  56.5630531
  22.8578377  69.9894714  56.5064240  23.2621841  68.7637863  55.7157402
  28.0221634  37.1189308  70.1242828  28.1233845  36.1725006  70.0229874
  28.8080215  37.4883232  69.7215347  83.7171555  32.2873306  32.3117561
  83.0933228  31.8646965  31.7214661  83.8553162  31.6487808  33.0113220
   0.7326458  20.0100822  28.0815926   1.6856585  20.0958061  28.0560989
   0.4183674  20.6353436  27.4285164  56.2817535  34.1276169  50.2364616
  56.5410271  34.5634041  49.4246140  56.0615387  33.2351723  49.9694786
  54.4470062  13.8785667  22.2842808  53.9217720  13.8308182  21.4854832
  55.1701431  14.4645309  22.0607758  37.7779465   1.5975609  60.7833443
  37.4486885   0.7961537  60.3764420  38.1191635   1.3129753  61.6311722
  16.5845146  21.3971119  82.8497162  17.2467937  20.7243385  83.0078125
  16.9752750  21.9668617  82.1872025   0.7351543  53.4570160  37.3880539
   0.6601220  52.8021851  38.0821686   0.5595708  54.2903824  37.8249779
   1.6919932  33.8441353  31.9473648   0.7755238  33.6588287  32.1522484
   1.9862144  33.0792885  31.4527130  50.8383064  24.9255943  60.9312515
  51.7842216  25.0351162  61.0286140  50.4891281  25.8161087  60.9672089
  73.3552704  62.3492622  41.4117508  73.1083603  61.4789810  41.0988922
  73.8023376  62.7532310  40.6679955  66.9228058  49.7703247  48.8673668
  67.0861130  49.4174156  49.7420197  66.2660446  49.1842041  48.4913864
  76.2584000  10.7682667  41.3243752  76.0813980  11.3319550  42.0774727
  76.0058899   9.8923197  41.6162415  24.4574909  11.4791508  78.4123917
  23.9799919  12.2363462  78.7513351  23.7815971  10.8190928  78.2583694
  43.3246384  57.4156227  77.7052078  42.4293594  57.5712128  78.0060425
  43.7355461  58.2800293  77.7189178  28.0955811   0.9391432  23.7972736
  27.6056881   1.1869642  24.5813789  28.4701328   0.0841235  24.0091343
  69.9481506  26.3961239  75.8312225  70.3037415  26.7868576  75.0330276
  70.1232224  27.0441074  76.5136414   5.0813432  67.6678696  80.4085388
   4.3279767  67.3233871  79.9289551   5.8037901  67.0876312  80.1684952
  39.2715492  14.4198751   0.8383642  39.5918884  14.8712120   1.6193327
  39.7852669  14.7897167   0.1203505  55.0144958   6.8749018  73.4616623
  54.6121483   7.3039956  72.7065277  54.2808914   6.6774836  74.0439606
  43.3301392  39.3775177  23.6157169  43.4357185  38.7297096  22.9189892
  43.9219589  39.0832214  24.3080864  58.8907471  18.6189938  53.2037659
  58.3140297  17.8581181  53.2723198  59.4897003  18.5331440  53.9454689
  33.1370811  68.7677002  55.0019073  33.6990013  68.1244049  55.4339409
  33.5444908  68.9056625  54.1467934  14.2935534  61.8870430  73.9090805
  13.4307280  61.7886047  73.5064926  14.7453194  61.0667648  73.7108917
  34.7051735  62.1355515  59.0869026  34.8904190  61.4477081  59.7262688
  33.7712936  62.3164711  59.1935387  64.8164368  30.7843533  26.1558075
  64.7884598  31.7404480  26.1193008  65.0729523  30.5864620  27.0565128
  34.8290901  60.2415428  43.5301399  35.0906487  61.0757332  43.1403427
  34.7480049  60.4291039  44.4652748  53.3130341  28.4531345  62.9257317
  53.5229721  28.7035484  62.0260353  53.9692841  28.9021015  63.4586449
  80.3928223  67.8357849  64.3401108  80.2620926  68.2446518  65.1956635
  79.5279388  67.8557129  63.9304619   6.1821475  21.7503376  26.3650646
   5.9020071  21.5514812  25.4716396   7.1382751  21.7573471  26.3203125
  36.7524681   3.3273544   7.7648983  37.4803505   2.7093713   7.8320851
  35.9697838   2.7894747   7.8845820  19.9465237  68.5851212  14.4071980
  19.3142853  69.2561874  14.1499424  20.4834785  68.4500504  13.6263876
  13.2601604  33.6427536  84.6431274  13.5310936  32.7801590  84.9573898
  13.3215752  33.5805473  83.6899261  64.1663742  41.7411156  71.0255203
  63.9118195  41.2981300  71.8349609  63.3643837  41.7657928  70.5035706
  30.1659908  34.1530800  54.8547821  30.7968082  33.5338402  54.4875755
  30.6833878  34.9342003  55.0507050  78.9055023  32.4893074  50.8899117
  79.6867905  32.8210831  51.3323479  78.6298218  33.2073402  50.3201218
  55.6499977  54.9609184  66.2819824  55.3832626  55.8118057  66.6299362
  56.2412910  54.6054993  66.9455185  83.4846344   5.3528018  27.1071072
  82.5798416   5.3795805  26.7958870  83.4137344   5.4416709  28.0575314
  78.4310303  42.5880241   4.5804563  77.9292145  41.7731209   4.5990510
  77.9747314  43.1643333   5.1935606  45.1619797  36.4542580  38.0857811
  45.0137215  37.3454552  37.7695236  44.2879868  36.0660362  38.1264267
  74.1217270  36.5693398   0.9704706  74.2448196  36.8387070   0.0602391
  74.2722244  35.6240730   0.9629595  74.9918671  15.3510656  10.0051432
  74.5135269  15.3819323   9.1766090  74.5558090  15.9996729  10.5577660
  25.4106884  36.4374161  70.6870728  25.1841946  36.0155411  71.5158997
  26.3615360  36.5414085  70.7232361  62.6482506  14.4238949  43.6377716
  63.6023560  14.4500465  43.5654335  62.4238434  15.2122040  44.1321831
  52.9880447  12.3669939  77.5066452  52.6762543  13.2073183  77.8426132
  52.4720383  11.7137899  77.9791870  38.1745758  69.8743744  42.7362938
  37.8939171  69.2408981  42.0758629  37.5645561  70.6058426  42.6410599
  62.3441391  52.2675514  83.8484116  62.7007751  53.0517807  84.2655792
  62.5879898  52.3545151  82.9268875  48.4128151  49.8221893  59.7674713
  49.2649422  49.5425415  60.1019974  48.0045776  50.2783318  60.5033455
  19.3594971  37.2705231   7.4563589  18.8100357  36.5255165   7.6998587
  20.2059765  37.0871468   7.8638849  35.0021706  17.8972473   2.4593778
  34.2637825  17.4691048   2.0261183  34.8437042  17.7607765   3.3934531
  56.6018105   7.7718792  63.9386368  57.3212585   7.1583419  63.7896538
  55.9243317   7.5016437  63.3187714  54.4257317   3.4132433  77.3098907
  53.8917809   2.7624514  77.7655258  55.1959381   2.9272752  77.0151978
  52.0086021  46.1323051  33.3747864  51.2008438  46.0417671  33.8803177
  52.1442719  47.0774345  33.3073235  80.9820251   3.8960705   3.4794915
  81.4236755   4.6998768   3.2055080  80.0703888   4.0220327   3.2162664
   6.1129794  32.3940582  13.0190811   5.4608760  32.8881302  13.5159578
   5.9311266  32.6098595  12.1044273   8.4901209  57.4238052  30.0881062
   7.9717932  56.9546928  30.7419415   8.8631239  58.1651611  30.5650749
  72.7245560  21.8918648  82.4431686  72.8036957  21.0479050  81.9985352
  73.6131516  22.0917244  82.7375870  79.3138580  27.1971340  47.1936111
  80.0334778  27.1400318  47.8221931  78.5818634  27.5506783  47.6990089
  60.1219139  17.4674683  55.3588791  61.0542336  17.5392838  55.5634689
  59.6857147  17.5143127  56.2096252  40.7585182  47.0376091  86.3570709
  41.4938202  46.6471405  85.8847427  40.1418839  46.3157578  86.4792480
  30.0588856  40.5035248  72.2886047  30.9079609  40.1258888  72.0590591
  30.1727486  41.4451180  72.1594772   5.4265928  34.8479805  48.8765221
   6.1761622  34.9247322  48.2861938   4.9395151  34.0922279  48.5481529
  66.5743561  34.2517471  19.9450054  66.6249237  33.3547897  19.6146431
  66.4313507  34.7868233  19.1643162  66.2907028  68.7946472  50.0177307
  66.7720642  68.5103149  50.7946968  66.0341415  69.6962280  50.2115364
  80.4027100  27.8760719  61.3951149  80.0689850  27.1097927  60.9285545
  80.1635132  28.6178036  60.8393707  42.3220711  36.1115799   5.8933630
  41.7448883  36.0470352   6.6542330  41.9021568  35.5672455   5.2273302
   5.6989117  66.8918991  86.6271820   6.1202550  67.3126526  87.3766251
   6.4101934  66.7454910  86.0035858  68.9776611  68.3527374   3.7716630
  68.5565186  69.2090683   3.6970274  69.8949280  68.5170517   3.5529039
  71.5640945  10.7894354  88.8030319  71.9328232  11.3234692  89.5066528
  70.9123840  11.3553467  88.3892059  47.4230728  18.8060074  80.1367645
  46.6488037  19.0861187  79.6486206  47.4418907  19.3774185  80.9044647
  62.0725060   3.1601615   6.4652743  61.5691719   2.6593988   7.1072431
  61.8257179   4.0710673   6.6252036   3.9568541  64.1221313  62.6532478
   4.4113746  63.2815781  62.7090225   4.0868001  64.4050903  61.7481079
  34.2994423  10.0265808  77.2939148  34.6900978   9.9588623  76.4226913
  33.4172554  10.3625050  77.1353836  57.5674553  71.0897446  88.7228317
  57.9604416  71.4067612  87.9096298  57.0041656  70.3654556  88.4501801
  50.5647507  27.9982567  37.5229836  51.3982277  28.4578476  37.6246223
  50.2815018  28.2098160  36.6334648  53.1541328   8.3841972  65.1332016
  52.7374382   8.3138943  65.9920731  53.6583748   9.1966124  65.1774063
  15.5868521  59.7713928  48.1770477  15.0705261  58.9949875  48.3934479
  15.3726120  60.4010277  48.8654480  62.1547012  13.2838335  16.0171585
  62.6985970  13.1376228  16.7911301  61.8010483  12.4197311  15.8062334
  47.8903618  43.8394814  78.8382874  47.0875893  43.9441795  79.3489990
  48.5388870  44.3711472  79.2997894  35.8592148  53.0037537  58.3685760
  35.8502121  52.3288193  59.0472603  36.1276550  53.8003044  58.8264809
  37.2588959  30.1017590  66.1874924  37.0704536  29.7107468  67.0406265
  36.4479065  30.5482731  65.9442825  84.5301895  52.5608749  21.2506866
  84.2748337  52.5693436  22.1731567  85.2572021  51.9396210  21.2091141
  82.3986664  25.0231743  46.5007401  83.1069031  25.6507053  46.6451035
  82.2472153  24.6309471  47.3606529   6.2118092  52.2777672  12.0336361
   5.4620152  52.6059265  11.5372963   6.4767656  53.0154724  12.5830202
  56.6032372  67.4686279   5.4718251  56.7301598  68.0044022   6.2548118
  56.0254211  67.9908371   4.9153552  56.0576706  56.2838402  40.2860870
  56.9671059  56.2530708  39.9890823  55.5452003  56.3584557  39.4810791
  78.9155197  20.1736336  21.2049236  79.7963715  20.5288239  21.0858765
  78.3768692  20.6530151  20.5754166  17.5740719   7.6316895  59.0289192
  17.3855839   8.4687862  59.4531517  18.0109539   7.8704963  58.2113991
  67.3076401   6.3514886  51.0655136  67.8253174   7.1542525  51.1272125
  67.8941345   5.6635089  51.3800621  77.2632141  61.8556023  37.2545280
  76.3064041  61.8457184  37.2801857  77.4859695  62.7410660  36.9671860
  55.1468086   6.8838029  47.2629967  54.3680420   7.4069271  47.0730171
  54.8590736   6.2588925  47.9285240  62.9332085   8.5830832  22.1385403
  62.0164719   8.4619217  22.3858128  62.9215775   8.6107521  21.1818104
  13.3240280  42.1456566   4.3391533  13.7830696  42.9854927   4.3254752
  13.6394110  41.6876030   3.5600822  19.3087044  57.8812027  27.1501274
  19.2409382  57.0733452  27.6590576  18.6194019  58.4444809  27.5019951
  45.9769974  53.8381844  36.6342278  45.4653206  53.6795235  37.4274788
  46.8216743  53.4223175  36.8068771  22.1283092  56.6690025  20.4494896
  21.7053967  56.0871239  21.0809898  22.7336349  57.1927223  20.9743996
   8.8326426  42.1346130  24.6383686   8.1084356  42.4559593  25.1754837
   9.6112385  42.2754974  25.1770439  36.3762283  -0.2215824  18.8870983
  36.6002235   0.3704624  19.6051102  36.2717209   0.3516852  18.1277084
  67.1037064  52.2115936  88.9046097  67.3451157  52.7616844  89.6498337
  67.8360138  52.2999039  88.2945633  76.5733185  19.8510532  14.8343954
  76.5219498  20.6929016  14.3817568  76.9530411  19.2548580  14.1889534
   3.9001656  23.0437260  28.0040283   4.7263603  22.6878853  27.6769028
   3.2533786  22.7924366  27.3446712  74.9667664  34.3409500  12.9042501
  75.0092697  35.0541840  13.5412140  75.8787766  34.0807037  12.7748690
  71.1120758  14.6381321  22.8724575  70.1961060  14.7631245  22.6242390
  71.0740738  14.1133118  23.6720524  66.6092300   1.0053843  85.6125488
  66.2341080   1.8813212  85.5217133  66.0405884   0.5656760  86.2446365
  64.6441879  56.3330307  41.4956131  65.5493622  56.0924950  41.2980537
  64.1842880  56.2408028  40.6612167  16.7726078  67.0483780  73.5715942
  16.5011120  67.0111084  74.4887314  16.3218555  66.3120270  73.1582642
  60.5306931  60.4552727  41.5346832  59.7080650  60.1568680  41.9225883
  61.0282059  60.8098984  42.2715340  61.2098961  60.9128113  44.3402252
  61.8114281  61.6455765  44.4723053  60.9656105  60.6410103  45.2249184
  17.7589474  41.1723404  56.2000008  17.2582550  41.3026581  57.0053291
  18.4884624  41.7881737  56.2692223  51.4014511  63.7879524  67.3091049
  51.4880333  63.1496925  66.6010361  51.7749367  64.5937729  66.9521790
  49.5465698  56.7764511  82.8431702  49.8882256  57.6138268  83.1567078
  49.0461159  56.4302101  83.5820160  79.9134521  65.9225388  76.9302521
  80.5857010  65.3609543  76.5443344  79.1548157  65.8171844  76.3561325
  39.2925186  56.9575844  80.8113632  38.4443855  56.5206680  80.7338333
  39.5322227  57.1767654  79.9109573  30.4527264  59.3809242  38.0805206
  29.7188168  59.9953384  38.0705643  30.0602894  58.5354958  37.8626213
  61.9588509  54.4907227  53.9744530  62.5487518  53.7373734  53.9477806
  62.4752731  55.1849251  54.3838768  60.4741859  43.5232430  73.0151443
  59.8158607  43.0909729  72.4710999  61.1638145  42.8681755  73.1225357
  74.8955078  38.2749252  46.8968315  74.7293015  37.5582619  47.5092010
  75.1732864  37.8410645  46.0900879  31.8217182  38.5902901  79.8308945
  31.0565147  38.0152283  79.8306503  31.5543633  39.3444939  80.3561935
  83.8520279  55.0458832  36.5544281  84.1192169  55.5527496  37.3211975
  82.9990768  54.6826820  36.7927399  27.8459129  36.8665504  13.1194534
  26.9356766  36.9898872  12.8502102  28.0055866  37.5669937  13.7520018
  27.7088223  68.8362732  25.9916039  27.6276054  67.9739990  25.5840149
  27.3070583  69.4367752  25.3637447  67.1048050  34.6108551  29.3565121
  67.1861649  35.0563126  28.5131989  66.3464584  35.0213356  29.7720318
  65.9353714  47.9709854  32.5152321  65.9611893  47.8366814  33.4626122
  66.5136032  47.2950668  32.1616631  67.6251907  44.1367607  84.5687103
  67.3752823  43.9898376  85.4809570  67.4282227  45.0603027  84.4121780
  11.0360432   4.0980835  16.3643990  10.9895039   3.2348075  15.9535208
  11.7743521   4.5288725  15.9336395  10.2592316  59.8379593  27.0781326
  10.2621279  58.8991585  27.2648830  10.2227402  60.2534370  27.9396877
  41.1543655  20.6796665  75.5129776  41.6388245  20.7575150  74.6911087
  41.3346977  21.4979382  75.9757385  27.6705170  65.2045059  46.6941986
  28.3514862  65.0237045  47.3421364  28.1468487  65.3202057  45.8720360
  69.6797485  28.1844120   6.2498617  69.4095383  28.8148174   6.9175510
  68.8886032  27.6787701   6.0637331  21.4015331  16.6674461  50.9576225
  21.2953892  17.1493435  51.7778320  21.5397835  15.7600317  51.2291298
  65.4192276   5.7655411  48.7313232  65.9544220   5.4332232  48.0106544
  65.8288651   5.4073772  49.5188141  19.1132965  13.9678984   4.0582170
  19.9984970  13.6278706   3.9277084  19.2211132  14.6814632   4.6870508
  65.5023880  31.9014320  46.4635391  66.2176666  31.2724228  46.3689270
  65.8626480  32.5918655  47.0200844  45.9796562  23.3479385   9.7975626
  46.8872795  23.6476555   9.8487730  45.6429634  23.4505157  10.6877022
  74.9462051  34.0004883  87.2914734  74.1291504  34.4927101  87.2117233
  74.6766891  33.0825005  87.2615891   5.4499407   9.3862801  57.9822617
   5.0531874   9.3802004  57.1111794   5.2182865   8.5364475  58.3568954
  15.5044222   2.7935846  79.9554138  14.6912613   2.4492142  80.3247528
  16.0754642   2.0291684  79.8791885  72.4720993  52.5666466  48.7065887
  73.3544159  52.2982979  48.9629898  72.6027298  53.1039543  47.9252663
  73.3630753  62.2321663  36.9290237  73.3616943  61.6848831  36.1437149
  74.0601807  62.8698654  36.7753181  46.2478447  40.7115440  20.7343140
  45.6202354  41.2549782  21.2107792  46.0070190  39.8131828  20.9605522
   4.7889519   1.3322003   8.7888718   4.9651361   2.0125539   9.4387255
   4.6851559   1.8087881   7.9652686   3.1456478  58.3608437   4.3093781
   2.8405147  57.4752350   4.1123476   2.3804548  58.8010292   4.6794434
  35.6144791  58.8725929  31.9288464  35.2438049  58.3690262  31.2041016
  34.8578262  59.1196251  32.4605293  35.8931236  11.6411982  79.3035812
  35.4308701  11.9887753  80.0663071  35.2638054  11.0494289  78.8912735
  32.2354050  51.4743462   6.6311564  31.4150085  50.9945679   6.5171609
  32.6191025  51.1069031   7.4273944  15.0279045  54.8035851  61.2171249
  15.0041199  55.6729927  61.6168747  15.9444637  54.5352821  61.2816696
   6.3693743  36.1242027  61.5560226   6.8805108  36.1928940  62.3624039
   5.7544565  35.4097519  61.7223473  61.8930092  31.2644062   7.9450331
  62.6921043  31.7912598   7.9349408  62.1710587  30.4016342   7.6375537
  65.2035141  40.1302643  88.8258667  64.5814590  40.8558388  88.8789673
  65.9770050  40.4430962  89.2949905  35.1561852  21.4807892  70.4953308
  34.2233467  21.2760181  70.5594864  35.5346413  20.7319717  70.0345993
  64.3859100  11.2196817  74.7915802  63.7580109  11.7246819  75.3082504
  65.1995010  11.7209482  74.8466492   4.0543084   6.6483107   8.8425388
   3.6598203   5.7953806   9.0245314   4.9918609   6.5127769   8.9798632
  27.6540413  60.5759811  72.2530212  27.8483734  61.4226799  71.8510666
  28.3112335  60.4817123  72.9425430  33.3687210  54.3939705  15.6402655
  33.3247795  55.2122459  15.1455660  32.7533112  54.5176315  16.3629074
  85.1834717  25.0122204  55.1744156  85.3431396  24.3518620  55.8487053
  85.7721558  24.7713356  54.4591103  51.3252907  62.0790405  76.9792862
  50.7068825  61.3857727  77.2098846  51.8641739  62.1896095  77.7626190
  62.1749382  67.8420563   4.4347005  63.0019798  68.1790695   4.0902319
  61.6368866  67.6883850   3.6580925  52.5365181  16.7247219  56.1062202
  51.7548981  17.2671833  56.2112885  52.7811966  16.8326588  55.1871338
  24.6133232  62.2808342   3.8843808  25.0633850  61.8245888   4.5953765
  25.0450687  63.1337624   3.8359590  57.1322899  63.8036461  35.7083626
  57.0441589  63.0284500  35.1538048  57.9018860  64.2575531  35.3649673
  24.5716324  14.5484018  89.0454102  24.4837399  13.7932796  89.6270370
  25.2975121  14.3202057  88.4646683  72.0616760  15.0335035  35.2237587
  73.0102692  15.0452919  35.0962410  71.8555679  14.1162243  35.4036293
  67.9806519  31.3150959  51.1069450  67.7592239  32.2305832  51.2774925
  68.5428314  31.0641060  51.8398819  12.1345854  35.2831535  17.6305943
  11.5513220  35.5720520  16.9287586  12.1415968  34.3286934  17.5585365
  62.5994072   1.8383299  16.4527359  62.5115471   0.8854958  16.4776268
  62.8762550   2.0765245  17.3375244  28.7836456  59.8776627  32.6588936
  29.6579285  60.2309570  32.4944305  28.4995232  60.3073997  33.4656372
  18.1165543  68.5342865  42.3266296  18.2997913  68.0044708  43.1024857
  17.9845715  69.4192734  42.6666451  59.9646873  36.3167915  44.3544769
  60.3885040  37.1369171  44.6074638  60.2052574  36.1962929  43.4358711
  43.0834236  37.1409874  86.8270111  43.2505188  37.8713989  86.2313538
  43.1394272  36.3624573  86.2729492  62.3459473  20.1851578  50.0518341
  62.7718811  20.8911629  49.5656586  63.0477180  19.5585804  50.2283211
  38.3461113  45.8175850  56.2441521  37.5664101  46.2367439  55.8800087
  39.0540771  46.0742149  55.6532593   2.2652931  56.2066460  33.9255791
   1.3811594  56.5374336  34.0840683   2.5560644  55.8823586  34.7779427
  81.0421295  29.1661587  78.6645508  81.9548569  29.1221390  78.3795395
  80.9488220  30.0440235  79.0345230  42.7289124  19.0684700  66.2555542
  43.3641357  18.5919800  65.7210617  42.7295113  19.9550858  65.8947983
   2.2680833  20.6071205  41.6112518   1.5945507  20.5517368  40.9333763
   2.8306701  21.3292370  41.3314781  58.1283875  46.1063156  22.5572300
  58.1861916  45.2450409  22.9708652  58.6799889  46.6700211  23.0996361
   7.4791646  29.9755669  63.0296440   8.0451355  30.0087337  63.8008842
   6.7902946  29.3539028  63.2646408  22.9794884  56.0950012  17.8448772
  22.6069431  56.1593132  18.7242546  22.6057339  55.2907791  17.4846458
  67.7556381   6.7612424  71.7541504  68.1530075   7.0530171  72.5746307
  67.2179718   6.0092769  72.0025330  12.9806290  39.0337715  44.3910904
  12.5359488  39.2342949  43.5675125  13.2182236  38.1095619  44.3161545
  51.3405914  71.3953171  67.7649307  50.9375191  72.0395813  68.3469009
  50.6017647  70.9161987  67.3896790  78.4144592  13.1316681  49.4216080
  78.6501312  12.9338799  48.5152054  78.2247772  14.0698853  49.4204941
  10.8765268  18.2815990  12.8628654  10.6904764  18.9544277  12.2079468
  10.9766321  18.7661362  13.6822758  58.4859848  25.7170181  28.1580009
  58.0903587  26.1007786  27.3754139  58.1505394  24.8208179  28.1810589
  73.5378952  64.8166733  75.0418243  72.5899277  64.9352112  75.1013336
  73.7519150  65.0479355  74.1379700   5.6351295  64.1902847  73.3066330
   6.4019074  64.0743561  73.8677444   5.6076932  63.3970261  72.7716446
  44.0805855  37.0888596  15.5597601  44.2795982  37.1437798  14.6250896
  44.4273911  37.9020805  15.9266739  49.6301537  11.6066895  17.0725346
  48.9968872  11.1985216  17.6629620  50.2726250  10.9189644  16.8978939
  34.6309891  69.6227951  72.8489761  35.5241013  69.9603958  72.7810974
  34.0876236  70.4031754  72.9584656  48.6561775  11.8221951  76.4952698
  48.6133728  10.8691082  76.4176483  49.2165413  12.0966921  75.7694092
  44.2665176  26.9382744  85.1576309  43.3514328  26.7304249  85.3464432
  44.7521858  26.1658039  85.4468460  61.0304375  53.7776146  31.8322258
  60.8059349  54.3358574  31.0877819  61.3219261  52.9562874  31.4363899
  30.2423134   4.7592630  58.8272820  30.4288502   4.9498959  59.7465706
  30.5555477   3.8637607  58.7000313  84.3401260  61.2453651  50.8713684
  85.2028656  60.9962463  50.5399323  84.2671280  62.1786346  50.6715851
   6.5129137  35.2242775  31.3779144   7.0325770  35.8397141  31.8950405
   7.1050339  34.4905548  31.2127647   7.2237082  63.8982849  83.5996933
   8.0651970  63.9923515  83.1532898   6.5884609  63.7870407  82.8923645
  25.1171494  48.8465004  36.5699234  25.0293446  49.0605659  35.6411095
  24.5733528  48.0677757  36.6886864  82.5333252   8.1844854  58.1409607
  83.0933075   7.4583898  57.8663101  81.8787384   7.7800307  58.7103195
  47.6340485  52.7457314  85.9747620  47.0226746  53.1710396  86.5760651
  48.3012886  52.3616791  86.5435562  13.3985415  45.1501503  44.9662437
  13.7758293  45.5056801  45.7709045  13.8490648  44.3152466  44.8389778
   7.1185727   1.0385109  46.8572311   6.6465125   1.1956500  46.0394897
   6.4403663   0.7719159  47.4778709  70.0549850   3.9995492  81.9748154
  70.7713394   3.4193556  82.2325745  70.3247375   4.8646879  82.2830353
  57.1275558  68.6377563  62.1621513  57.2693100  69.4680634  61.7074776
  57.9827156  68.2079544  62.1481171   9.3262024  19.9613667  85.7084732
   9.4725637  19.7113819  86.6207886   8.6132345  20.5989246  85.7462540
  51.2785835  47.1149826  55.6985016  51.7969437  46.8940887  56.4722824
  51.6672478  46.5966415  54.9938774  70.6790085   9.4985409  58.4617348
  71.1496582   8.6738920  58.5828857  71.1370392  10.1209431  59.0265846
   2.6948807  36.1219826  38.2241440   2.4738126  36.9141388  37.7344017
   3.0602899  35.5287628  37.5677910   6.8439007  14.8776827  78.7604141
   6.5733919  15.2152519  77.9065399   6.0759125  14.9966307  79.3192291
  55.7869415  67.0432281  88.0364380  55.9599838  67.6098480  87.2846222
  55.2348938  67.5718155  88.6126938  70.0209122  11.1139812  53.7747612
  70.8851318  11.1792231  54.1810951  69.7696152  10.1978426  53.8921127
  82.5506973  53.8606415  23.1974449  82.1825485  54.3448677  23.9365177
  82.9231949  54.5358696  22.6303978   4.6923099  43.6684418  16.5193958
   4.5378218  44.5634842  16.2173004   5.6099524  43.6625786  16.7916622
  57.6349258   9.1660662  39.9074898  58.5552635   9.3666563  39.7372780
  57.6201363   8.8606834  40.8145485  61.0986290  21.0454235  30.9788857
  61.5950279  21.3491631  30.2189102  60.3366852  21.6237297  31.0140018
  76.0335999   0.9860368  62.3435593  75.4413910   0.5298047  62.9413681
  75.9622116   1.9075140  62.5925903  52.4661102  64.9710846   1.2108091
  53.1370010  64.2886505   1.1904024  51.7785339  64.6142731   1.7730865
  14.7109518  40.7944336  40.0902214  15.2540541  40.1571045  39.6264534
  14.4208460  41.4020309  39.4098549  16.2304897  67.3115234  52.6839523
  15.3575344  67.6210785  52.4423943  16.5993824  66.9741898  51.8676453
  68.0882416  12.7155046  28.2454453  67.9697189  11.9650841  28.8277283
  67.2719650  12.7638359  27.7478542  19.0466156  20.6409836  84.9945755
  19.7090206  20.8737488  84.3439865  19.4477539  19.9363251  85.5032806
  72.2500458  41.8269577  25.0809612  71.9616852  42.6408234  25.4941254
  73.1427765  41.6987724  25.4016361  53.8502579  11.9709892   0.7281975
  53.5200157  12.3574715  -0.0828535  54.2727890  12.6981316   1.1853223
  68.7526398  66.3097076   5.5415144  68.8660355  67.0894928   4.9980936
  68.1320267  66.5781097   6.2190328  33.9141769  19.3756332  77.1920395
  34.0900154  20.2089043  77.6290512  33.3098297  19.5992393  76.4842300
  39.0103951  35.2967720  68.3525848  38.4814682  35.4845619  67.5772095
  38.9636993  36.0980186  68.8741760   2.4158909  51.6784592  49.2436752
   1.8874475  52.3573875  49.6632385   3.0413423  51.4113426  49.9172401
   2.7909863   9.0345221  62.1788635   2.0284588   8.5725832  61.8304443
   2.4368176   9.5942564  62.8698730  83.4341507  53.6756897   4.7508278
  83.1517258  53.9242859   5.6309800  83.2901611  54.4607201   4.2224135
  46.5902176  56.7548904   0.5239287  46.1691322  56.8801384   1.3743573
  45.8658791  56.7360573  -0.1015365  44.6567497  26.3942776  73.7549286
  45.4037666  25.8848610  73.4407730  43.9636803  26.2208405  73.1178970
  19.4981613  61.5729446  73.9414444  20.4211655  61.7592049  74.1134949
  19.3742619  60.6741867  74.2465897  46.2451553  56.9549217  44.5670242
  45.9835663  56.9466515  45.4877510  47.1403656  56.6160660  44.5693207
  82.8672333  70.7466812   6.7877407  82.7645187  71.6517258   7.0819774
  83.8092880  70.6442337   6.6525569  10.7123833  63.9906349  66.9886703
  11.2172298  64.4152908  67.6822281  11.0518932  64.3705673  66.1783524
  79.8796082  44.6994667  69.1375351  80.5420151  45.3877220  69.1987381
  79.0487213  45.1535759  69.2777328   0.2401617  19.3749218  79.9163666
   0.3526514  19.2498035  80.8586578   1.1311790  19.3743610  79.5666199
  55.8570824  47.8508301  64.1051712  55.8312340  48.7093048  64.5277634
  55.1379433  47.8728981  63.4738350  37.6014023  52.7955627  87.8501663
  36.7466965  52.8090668  87.4194412  37.4015656  52.8867188  88.7818222
  69.9906921  21.5454006  54.3586617  69.6563797  21.8546448  53.5167389
  70.2612152  20.6424961  54.1919022  26.9202938  29.9308987  77.1002045
  26.0729847  30.3034611  77.3441238  27.4404888  30.6832733  76.8181381
  79.1941757   8.8793268  55.5691795  79.4445801   7.9555545  55.5824051
  78.2995605   8.8801308  55.2287483  53.3142281   3.9028604  39.6325302
  54.2447777   3.6863406  39.5739708  53.2981796   4.8393903  39.8297272
   2.7446101  31.3784847  45.6756783   3.0666580  30.6404476  45.1581688
   2.1531153  30.9823399  46.3155518  58.2580261  28.6480198  57.2538338
  58.7745247  28.2106953  57.9307442  58.8881912  28.8428211  56.5601654
  33.4366226  49.7686081  36.2313652  33.1111450  50.5570221  36.6657600
  32.8467827  49.6439629  35.4878693  34.9365463  66.2544098  74.9469833
  34.0588150  66.3574448  74.5792847  35.4795532  65.9966507  74.2020416
  79.3401871  25.9211845  13.5323668  80.1655350  25.5179729  13.8015213
  78.7826538  25.8666344  14.3085203  80.1155472  48.0099373  54.4783401
  79.9049988  48.4420738  55.3060875  79.3259354  47.5154648  54.2586746
  83.2079086  62.1228447  47.2081871  82.9379730  61.2795258  46.8446236
  84.1083069  61.9806023  47.5002060  55.7563171  18.0639648  70.6817627
  55.9029961  18.7210445  70.0013504  56.5930557  17.6050453  70.7559052
  82.7014008  46.9884758   8.1290312  82.0967865  47.6691360   7.8334227
  83.1349487  46.6896095   7.3296909  31.2831173   1.0571519  78.9533997
  31.0495453   1.9733770  78.8043747  31.3704567   0.6863672  78.0752640
  47.1528091  69.3321533  11.0453339  47.7903023  68.8473511  11.5695562
  46.9134331  68.7292023  10.3414984  46.8633118  41.3138084   7.0400949
  47.2074966  41.6809616   6.2258658  45.9760399  41.6668777   7.1058083
  62.0563011  59.9660835  25.5475349  62.0805664  60.9090614  25.3849545
  62.9711456  59.7243004  25.6918716   0.4838235  43.9632378  62.5470848
   0.7298759  43.2769585  63.1673355   0.7822242  43.6369972  61.6981125
  11.5750685  14.5289392   5.4248323  12.4709377  14.7871647   5.2081099
  11.5390644  14.5681276   6.3805518  49.9524879  34.5441017  35.2820053
  49.8466530  33.7915878  34.6999779  50.8999863  34.6453094  35.3727608
  59.0480461  58.0934334  36.7678947  58.0953140  58.0366440  36.6950378
  59.2946396  57.3277969  37.2867661  85.7742462  66.8307800  56.2474098
  85.9010620  67.7483749  56.4885826  84.9499130  66.5845642  56.6670303
  29.5503464  51.7238426  61.3081779  28.7614632  51.3777199  60.8909340
  29.9208145  50.9762688  61.7773438  23.2593460  64.4824219  86.3374405
  23.4046364  65.1833496  86.9729080  22.3109589  64.3528366  86.3364334
  50.0580978  31.1305180  24.1571579  49.4159355  31.4472351  24.7924175
  50.4061394  30.3289261  24.5477314  53.6217270  22.9915848  55.8428421
  54.3674889  22.5546818  55.4315186  53.3225632  23.6222801  55.1878929
  27.2932243  50.2769356  48.2279663  27.3932705  51.0928802  48.7183304
  26.5545082  50.4391327  47.6412582   2.8598170  15.0502930   1.1849254
   2.9514894  14.2003231   0.7543697   2.4692161  14.8473320   2.0349073
  28.3608208  63.1769447  71.1615448  28.7810535  64.0227280  71.3173752
  27.6094685  63.3817329  70.6049881  68.1026077  29.2317467  72.9809952
  68.4176025  29.5519943  73.8262482  68.8400726  29.3632526  72.3851089
  78.5337143  64.8610840  17.1625385  79.0044098  64.1012878  16.8199100
  78.0642242  64.5272446  17.9269772  63.1989708  14.5944157  12.5016928
  62.4981384  14.7946510  13.1221514  63.4600029  13.6987944  12.7160711
  57.3576660  37.5720062  32.8030090  58.2258797  37.7203598  33.1777496
  57.0067711  36.8312988  33.2974319  80.2599182  50.3633080  42.1484070
  80.9040375  50.6053848  41.4830170  79.4174881  50.4174881  41.6971703
  41.2163162  41.0273247  70.2040024  41.3632126  41.6369362  70.9272079
  42.0933800  40.7370796  69.9535065   8.3358116  37.6180038   7.6892748
   8.8172722  36.8039474   7.8367143   8.8759508  38.2933960   8.0995502
  43.7144051  21.8383827  79.3489532  42.8247375  21.9505405  79.0140762
  44.2396469  21.6433792  78.5728607  15.7670441  33.1124840  12.0841761
  15.4735851  33.2465439  11.1829872  15.7040033  32.1668434  12.2184296
  74.4329605  34.3865738  62.4538078  73.5259323  34.1141129  62.5927010
  74.8935394  34.0960197  63.2410011  40.5002556  57.3640671  45.1079865
  40.0719833  57.4220810  45.9620667  39.8620415  56.9199677  44.5496941
  73.7177658  35.6841431  43.0339508  73.7542877  34.9851456  43.6868668
  72.7828751  35.8165016  42.8768082   0.2925428  70.1669693   9.5889368
   0.9583710  70.6655197  10.0625944   0.6798559  70.0075760   8.7282314
  22.8155766  57.0998917  79.8955536  22.4724293  56.2093430  79.8220139
  23.2121983  57.2749672  79.0421600  17.0085659  26.9945469  14.5840740
  17.3407803  26.8239498  15.4654140  16.0690346  26.8217945  14.6446581
  23.1008644  45.7283478  69.2401505  22.2036076  46.0490685  69.3312607
  23.4173164  45.6433296  70.1395187  34.0499268  44.5909996  46.9667244
  34.8715897  44.1013184  47.0030289  33.8354912  44.6302719  46.0346794
  85.6454315  18.6265755   7.3470926  85.4584045  19.4345112   6.8690825
  85.4570999  18.8399315   8.2610092  43.6218758  38.2840843  55.8579750
  42.8928719  37.6663361  55.8016663  43.6237640  38.7301750  55.0110817
  26.1219101  43.3328209  72.3492279  26.2276115  44.1343765  72.8616409
  26.4695568  43.5533752  71.4850922  82.4419937  58.9878349  70.6367874
  82.8744202  58.2408180  70.2230225  81.5243454  58.7247009  70.7068939
  31.9748077  49.9262924  71.6982193  32.8348312  49.6904869  71.3503799
  31.7777863  50.7724953  71.2965240  24.0753727   8.7019377  76.1100540
  24.3005352   7.7889619  76.2889633  23.1418667   8.6815424  75.8993835
  19.6943493  10.1133280  16.2482338  19.7177162  10.3179655  17.1830120
  19.5584965   9.1664486  16.2136612  27.7874107  50.3701630  41.1606522
  28.5277138  50.0863914  41.6969872  27.9435425  49.9692764  40.3055801
  67.3540878   0.4815409  25.8733959  67.4805679   0.0047321  25.0530987
  68.0191269   1.1697488  25.8553963  46.5601425   1.6705205  44.9572449
  46.7987175   1.7737935  45.8784676  46.0543861   0.8582878  44.9304123
  58.3175659  50.5808525  77.3149719  59.2059021  50.2332458  77.2358246
  58.0889816  50.4467926  78.2347565   7.2588015  58.9769287  78.0908356
   8.2134333  58.9883575  78.1599655   7.0754337  59.3765564  77.2406006
  66.2293625  64.0314789   0.4735729  66.1998901  63.1608582   0.8702838
  67.0804443  64.0670547   0.0369684  74.0152512  56.2842140  12.2399769
  73.9893036  55.5101204  12.8024168  73.1785507  56.7220497  12.3963594
  65.1309128  53.9241753  75.5940247  65.7995453  53.8667145  76.2765579
  65.4992828  54.5268173  74.9479904   8.0968103  49.0007095  20.5131626
   7.6981506  49.8678131  20.4394493   7.7722316  48.5222321  19.7503147
   2.2622843  42.3890724  66.0438995   2.4729354  41.8157082  66.7808609
   1.5036372  41.9778214  65.6296997  13.1572685  48.8218918  42.8866348
  13.1802902  48.9435539  41.9374771  14.0486431  49.0182343  43.1749649
  85.2607269  55.0055161  29.7080364  85.7574615  54.3714638  29.1908741
  85.9277496  55.5638809  30.1074581  72.0961761  67.3463898  68.3807373
  72.1805573  66.9035492  69.2251282  72.7994080  66.9781723  67.8458405
  30.0453434  36.2941704  11.5103121  29.9401608  35.3930206  11.8154278
  29.1512814  36.6039925  11.3657560  74.6528244   3.6868830  38.9089928
  74.4895935   3.8852415  37.9869080  74.9122467   2.7655189  38.9134979
  32.5081024  36.2517929  65.5497513  31.6052475  36.5512772  65.4430161
  33.0229950  36.8426590  65.0002060  82.6735535  41.2591171  83.1482239
  83.1417160  40.4907303  83.4747772  81.7521667  41.0727959  83.3286819
  26.9748573  50.4811020  60.5769081  26.6743050  50.7945442  59.7238808
  26.7468739  49.5514793  60.5844078  80.0497131  20.7427635   9.2342005
  80.7053299  21.3027935   9.6498461  79.2290726  21.2271767   9.3243704
  39.4687462   0.4546667  65.1564789  38.7945518   0.2992931  64.4950027
  39.3371620  -0.2410589  65.8005981  34.2936516   3.3908677  81.0207138
  34.2194176   2.8543620  80.2314835  33.4241257   3.7754025  81.1315842
  75.8466873  23.3875885  19.1010151  74.9405518  23.6433697  18.9285965
  76.3048019  24.2147083  19.2501221   6.5440207  53.8534241  85.4059906
   7.4802985  53.7235146  85.5567856   6.3990703  54.7823257  85.5858688
  45.1375923  31.1622982  14.8052149  46.0292091  30.8147831  14.8272667
  45.2514038  32.1080666  14.7114077  11.0405293  47.2659073  79.9402161
  10.4760914  48.0065765  79.7187347  10.5777178  46.5012512  79.5976715
  26.8508339  43.9217682  65.7333069  26.0621490  43.3861122  65.6479797
  26.8178101  44.2555847  66.6298065  66.6835098   3.5522478  54.7707024
  67.0600281   2.9241073  54.1543350  67.4134521   3.7963915  55.3397446
  49.8927307  46.2840462   4.2801156  50.0652962  46.0002251   3.3823957
  49.2317924  46.9707146   4.1913548  44.9129906   9.6648321  14.8449631
  44.9773445   9.3049955  13.9603128  45.6504822  10.2714386  14.9110270
  65.8194427  65.8774185  24.3893909  66.3213043  66.6652756  24.5983238
  66.4713974  65.2581863  24.0611534   2.4453387  42.7590637   0.9570827
   2.7225866  41.9213104   1.3279403   3.2499747  43.2745667   0.9018586
   5.7167320  12.0877380  14.0157328   6.4531298  12.6988068  14.0390873
   5.0442815  12.5423164  13.5083866  54.9812508   1.9675633  82.7598038
  54.2747688   2.5749240  82.5401917  55.3355522   1.6960443  81.9130630
  10.9353628  18.5927963  66.6008759  11.6793146  18.7481804  66.0189590
  11.1184521  17.7432365  67.0020752  15.9091206  34.3378372  18.8710880
  15.1984196  33.8099403  18.5071354  16.0215626  34.0064926  19.7620411
  20.7959023  63.6576729  24.3178596  20.9811726  62.7211876  24.3878727
  21.5942459  64.0326233  23.9459801   4.0116353  22.1214294  78.5523911
   4.4389958  22.7496357  79.1345901   3.3698292  22.6413765  78.0686874
  70.7033310  54.3241234  24.2823277  70.3596039  54.8211823  23.5400257
  69.9998703  53.7161674  24.5098248  18.2923393  66.5614471  47.6675987
  18.2322292  66.8231277  46.7488251  18.8875504  67.2001190  48.0600929
   3.6750152  15.6001148  74.7420883   3.5557895  14.7951059  74.2381287
   3.5689204  15.3296499  75.6541367  86.2930374  47.6400375  74.8820419
  85.9186935  47.2641563  74.0852890  85.8956451  48.5084381  74.9468079
  86.2152557  64.7018738  60.5366364  86.1779251  65.3158035  61.2700691
  86.8359146  65.0973663  59.9245872  44.0777969  24.6126308  36.2746048
  43.2167511  25.0093727  36.1425743  44.1517220  24.5110016  37.2235184
  77.8667603  34.9988098  17.8540154  78.4632874  34.4917679  18.4047394
  78.3243027  35.8260422  17.7037487  34.2897110  60.5122223  18.7655048
  34.9624977  59.8337173  18.8222980  34.7457390  61.3216019  18.9961090
  39.6405449  15.8577957  69.6801529  39.7935066  15.3072443  68.9122162
  40.1348648  15.4334021  70.3814087  58.7827034  23.9173832  33.6007690
  59.6415215  24.2489891  33.3386650  58.5597687  23.2726555  32.9293098
  29.0765457  59.8009453  62.9311066  28.9932213  58.9121246  63.2764854
  29.6392822  60.2509766  63.5612106  42.4648399  31.9298115  58.0324211
  42.3789368  31.3680840  57.2621536  43.2772408  32.4143982  57.8860664
  48.5386925   9.7449942  29.7922897  47.9279366  10.3578272  29.3828449
  48.1685905   8.8810234  29.6111507  79.6007156  16.4396381  67.9565811
  79.1210938  17.1046257  67.4626312  79.7848358  15.7521963  67.3164597
  20.7221508  67.8853226  23.1006680  20.3400478  68.7571793  23.0001469
  20.6922646  67.5079117  22.2215233  47.4825172  34.2019424  60.9659958
  46.6867714  33.6891212  60.8244514  47.9974174  34.0697365  60.1699829
  24.6012020  63.7232666  32.7103195  24.1581497  64.1605988  31.9832172
  25.4617615  63.4909058  32.3614960  70.9236069  39.5197411  77.8770752
  71.0727615  38.8093491  78.5010376  71.2464371  39.1779137  77.0433044
  14.1645384  55.3662453  74.0105515  14.5729713  54.5568504  74.3176346
  14.8199558  55.7623672  73.4363174  14.4951754  48.5539665  11.7161818
  15.2203884  48.5226402  12.3401337  14.8355255  49.0602646  10.9785814
  73.2582703  14.3945494  77.9609146  73.7516556  13.7340422  78.4472580
  73.0597305  13.9764166  77.1230698  39.8803749   3.1683197  65.5850296
  39.8855820   2.2295580  65.3981323  39.5096970   3.5672085  64.7978058
  20.1945438  60.6440239  35.5398445  19.6991005  61.3165512  36.0072556
  21.0619602  61.0289955  35.4148788  26.1463547  15.7382812   6.1725092
  26.3977261  15.2889156   5.3655925  26.2121449  16.6690006   5.9588127
  24.1639080  19.7860699  78.6887665  23.7172928  20.5537624  79.0457230
  24.9617558  19.7083683  79.2118607  28.1732311  62.9654198  23.6625462
  28.6081352  63.3928909  22.9247398  28.4151573  63.4946899  24.4225311
  23.4033051  38.7584915  74.2075729  24.2961864  39.0615005  74.3724442
  23.0230942  39.4302483  73.6415253  82.3581848  60.6824493  57.8718872
  82.4606705  60.7173996  58.8229446  82.1091995  59.7760773  57.6909676
  74.3833847  36.6348534  58.1039467  74.8358078  36.0032196  58.6630363
  74.3928528  36.2348938  57.2343636  32.3642807  63.1917000  64.8349609
  31.5993652  62.6970711  64.5408859  32.2400398  64.0663757  64.4665298
   1.4597411  35.4035301  61.1694107   0.6699776  35.3319359  61.7054863
   1.3089377  34.8030663  60.4393883   7.6842041  45.3093834  33.1082497
   8.0461454  46.1590767  32.8567505   6.8087335  45.5103798  33.4389801
  23.2583542  47.3604202  55.9667168  22.6545582  47.4682236  55.2318420
  23.9327755  48.0240593  55.8219185  19.0193081  38.9343758  88.3089752
  19.5424404  38.6636467  87.5544739  19.6082249  38.8346367  89.0569458
  17.6048069  44.8132820  12.0428734  17.7925301  45.5640945  11.4796038
  16.8569221  44.3835640  11.6278486  18.2874489  32.9652634  65.5053482
  17.7266407  32.4868431  64.8947449  18.9390316  32.3226357  65.7858810
  29.0032043  11.5802164  67.7546082  29.9550381  11.5737247  67.6536026
  28.7813854  12.5035810  67.8747177  83.3648682  53.4394684  18.0529900
  82.5722275  53.2274704  18.5459442  83.0518875  53.9417152  17.3006477
  38.4128380  36.3873138  65.8200531  37.5939751  36.3806419  65.3244171
  38.9808121  35.7749367  65.3524704  51.1877899  57.0275192  26.6154957
  50.3875771  56.8036880  27.0906715  51.5998764  56.1838112  26.4295597
  47.3471642  28.5555038  19.8625946  47.5139542  29.2045326  20.5460949
  46.9462585  29.0546646  19.1510143  85.1253128  39.4311790  54.9118538
  85.3302841  38.5206528  54.6993408  85.3972931  39.9247742  54.1381493
   7.7817621  26.5512981  61.5609703   8.3887510  25.9919662  62.0456810
   8.3418808  27.0639610  60.9781532  62.6929436  10.9094563  30.1670036
  63.0280571  11.5707054  29.5614643  61.9327469  11.3227844  30.5762615
  11.9143934  58.9963570  24.8750858  11.2533312  59.6157112  25.1843262
  11.9555893  59.1420746  23.9299393  21.7115002  10.8026886  14.5717411
  22.3678894  11.3265743  15.0310097  20.9952736  10.7115231  15.2001829
  70.0059052   4.6936426  60.9724464  69.1698456   5.1513367  60.8843803
  70.3170929   4.9293399  61.8464279  86.0692978  37.6824951  85.5269699
  86.9875946  37.9260063  85.6438599  86.0469284  36.7416039  85.7014923
  12.4583731  58.2396889  32.1577339  13.3948193  58.2005348  31.9633961
  12.1952906  57.3244171  32.2541389  69.4931107  54.5387115  59.4393883
  68.6898193  55.0441322  59.3148346  69.5779648  54.0224419  58.6378288
  44.9640121  55.3726883  62.3817253  44.9846077  56.0965996  61.7558174
  45.2266312  55.7674637  63.2132416  25.8593845   5.9319582   7.9072766
  25.3155117   6.6963625   8.0973272  26.7579479   6.2559514   7.9692736
  60.1730614  45.9115868  71.1650238  60.8164330  45.9331436  70.4566193
  60.5458832  45.3094063  71.8089294  78.5106659  14.6791821  12.5178223
  78.1632614  15.4671440  12.9357405  79.2235489  14.3982601  13.0915117
  39.2458000  24.3255177  79.7162018  39.2494278  23.8704510  80.5583038
  38.4060211  24.7844028  79.6955490  39.2111053  50.7608452   6.5224228
  39.4548302  49.8717155   6.7798748  40.0438538  51.2284813   6.4585910
  27.3666420   7.5792174  76.0111389  26.7154713   8.0825863  76.4998398
  26.9952793   6.6988440  75.9539948   8.6518078  41.6284790  56.7581024
   8.4813461  41.5905037  55.8169670   8.3501730  40.7830238  57.0904503
  60.4015388  16.2900620  37.1451035  60.7424507  17.1485176  36.8939781
  60.2939262  16.3435345  38.0947304   2.0655611  27.2677460   1.6930482
   2.8023670  26.7428837   2.0058873   1.4266822  26.6245670   1.3858249
  69.0822754  61.5633240  21.7988148  68.7388229  61.1954765  20.9845905
  68.3768921  62.1217690  22.1256294  78.0666275  36.3291740  38.9022942
  77.8881454  35.7414627  39.6364403  77.6132584  37.1409607  39.1296577
  29.7799740  41.3434830  60.3289833  30.4046936  41.0403442  60.9878159
  28.9214973  41.1671104  60.7138748  69.5434723   8.2595129  54.7731705
  70.1930237   7.8289671  55.3289948  68.9017639   8.6165257  55.3871613
   9.3868980   2.1269956   5.9940982   9.4344864   1.4054998   5.3668733
  10.2654400   2.5069585   5.9892001  12.2670889  28.9765377  11.2492895
  12.9074697  28.4173794  10.8094187  12.0754251  28.5218201  12.0694904
  17.1843987  68.2494278  21.9931965  17.7615318  68.9498596  22.2974033
  17.2972393  68.2419510  21.0426998  72.4028473  61.6297417  50.8777161
  71.7512436  61.7837677  51.5617638  73.0796738  61.1051445  51.3054123
  43.2580948  23.5015869  71.9340744  44.1879692  23.4955864  72.1610794
  43.0725746  22.6033173  71.6603470  22.7003517  47.2315788   4.7625513
  23.5047550  47.5511208   4.3538208  22.0582066  47.2227173   4.0527601
  66.7979126   6.0224719  56.7894020  67.4596863   6.1427908  57.4704437
  66.4301224   5.1560183  56.9632301  28.1554470  68.9837189  66.0250931
  28.0374298  68.0342331  66.0529861  27.8078785  69.2433090  65.1718369
  56.5973244  23.2826862  63.0353050  56.5166245  24.2284088  62.9115105
  56.6579781  22.9292679  62.1478081  15.0114965  26.9674473  67.4627075
  14.6378517  27.5729237  68.1030350  15.8974838  26.7972889  67.7825623
  35.1073608  10.4561701  63.3289604  35.9542809  10.0105848  63.3086243
  35.2747993  11.3073969  62.9244766  50.7957230  43.0282822  33.4914055
  51.3678322  42.7747383  32.7670860  51.3062859  42.8370018  34.2781525
  62.5494080  70.8339615  63.8236694  61.8903580  70.1545334  63.9660110
  62.2001915  71.6041031  64.2721863   1.6058779  64.3255692  45.8654099
   1.2122931  64.1636124  46.7227859   2.0206780  65.1840057  45.9505844
  59.3047142   8.8745899   3.1200089  59.2228737   9.5421772   2.4389355
  59.7846298   8.1610565   2.6995528  10.9621315  40.9436150  22.1225929
  10.5052757  41.2723045  22.8968525  11.7896872  40.6010056  22.4602356
  48.7155876  46.6643333  63.7871017  47.9695206  47.2209549  64.0102386
  48.3927841  46.1020813  63.0828972  85.5882492  69.5602112  37.8813515
  86.5007553  69.7986755  38.0447235  85.4362793  68.7977676  38.4397545
  47.4133568  61.1301460  43.5012436  47.3891335  60.5874214  42.7131500
  47.2443504  62.0179787  43.1859322  15.6591721  42.4295616  57.8907356
  14.8313913  42.2051926  57.4656830  15.8598442  43.3103905  57.5743446
  29.8090496  26.7019901  71.7582626  29.9554310  27.5921059  72.0784149
  29.0208149  26.4094849  72.2158203  35.4768143  52.5478783  78.1173401
  34.7865982  52.3298645  77.4909973  35.3201904  51.9637451  78.8592911
  32.8902588  63.4438477  11.6738863  33.3341064  64.2767410  11.5141544
  32.5741310  63.5098610  12.5749617  54.1330910  57.0017014  19.2893600
  54.5595093  56.9333954  18.4351158  54.0391541  57.9429932  19.4355831
  22.2925682  41.2862358  66.7971268  22.2943077  41.9933510  67.4422760
  21.4396305  41.3554192  66.3682404  18.2440796  62.4781570  80.7753525
  18.8469543  61.8226547  81.1261978  17.7771015  62.8090706  81.5425949
  72.8270950  11.5836325  33.3626900  73.5797577  11.1983414  32.9140472
  72.2009888  11.7701807  32.6631050  33.1153107  56.9017296  27.6547565
  33.4588509  56.0265388  27.4751816  33.2347565  57.3790398  26.8336964
  60.6824722  18.2613678   2.7648089  61.1203041  19.1066151   2.6643472
  60.6136971  17.9197941   1.8732771  50.3497200  20.4112988   2.7835147
  51.1123581  20.1032925   2.2938759  49.5995483  20.0560684   2.3067672
  74.1447906  27.7436466  83.9397659  74.4120712  26.8472748  83.7365112
  74.5543747  27.9299755  84.7846069  72.6466827  63.5181313  79.3043823
  72.5236816  62.6462364  78.9290085  71.7622299  63.8786888  79.3674622
  31.9274483  54.5552025  33.5955620  31.1331902  55.0098343  33.8760872
  31.6089802  53.7903366  33.1161957  60.0863800   4.7894936  34.5443802
  61.0117073   4.8922319  34.7667503  59.6177025   5.1507096  35.2967720
   3.0766978  19.9362774  19.3285885   3.8030405  20.3376694  18.8515759
   2.3685646  20.5777016  19.2706814  15.9156466  51.0940819  43.1553612
  16.8158531  51.1206818  42.8310890  15.8392506  50.2397308  43.5801926
  51.9752541  30.4025822  87.7772293  52.6145592  29.6925564  87.7190399
  51.5190544  30.3836613  86.9359512   8.7893476  47.9398384  17.3769703
   8.0493708  47.6142502  17.8894730   8.3967533  48.5433426  16.7461872
  85.3817291   7.9993205  40.2198257  86.2701416   7.7963705  40.5126762
  85.2877884   8.9394283  40.3734627  42.5247879  20.3994827   3.3362875
  41.6508331  20.5460377   2.9744146  42.3703156  19.9121399   4.1455269
   3.5747602  32.5914459  77.3898010   3.4683971  33.5191460  77.1793518
   3.9709859  32.2118225  76.6055069  59.8960800  65.5401993  11.8570147
  59.3947182  66.3465271  11.7357283  59.5578003  65.1680450  12.6714449
  46.8105698  69.5681839  88.9310226  46.5376854  70.1190491  89.6647186
  47.4221153  70.1137161  88.4364090  50.3976898  54.5630493  78.8906937
  50.6489105  54.3609695  79.7919617  50.5755310  55.4988632  78.7965698
  35.2226601  14.2693987  66.3483200  34.7527428  14.1308956  65.5259933
  35.5899925  13.4116230  66.5616760  28.1193333  40.9541130  44.7066193
  28.1711540  41.2504501  45.6153183  27.1912212  41.0260963  44.4837761
  36.2000275  10.5481510  84.0476227  37.1023407  10.8085356  84.2327118
  36.2771187   9.8947058  83.3524246   5.9053421   5.2060485   5.6165385
   5.4902625   5.3131566   4.7606945   6.3705387   6.0298777   5.7618990
  80.1562119  21.4416409  75.0643005  80.9354782  21.7758350  74.6201324
  79.7750778  22.2097530  75.4897079  14.0272932  56.1959496  19.8099918
  14.7458220  56.7219543  19.4589005  14.1346722  55.3385544  19.3981953
  58.7106400  42.0658836  71.5561981  58.1515999  42.3877640  72.2633667
  58.4010506  41.1749992  71.3927612   0.8658419  13.6891718  56.6376266
   1.0164301  13.6703367  55.6925316   1.6504512  13.2897024  57.0131836
  72.5500336  68.1608810  82.3137894  71.7403946  67.6713791  82.1685181
  72.9889984  67.6924667  83.0238037  75.9072647  18.9096565  88.3549271
  76.7582626  19.3477554  88.3444138  76.1152039  17.9857941  88.4944763
  77.1098328  49.1861839   6.0097404  77.4580765  49.5971718   5.2185092
  76.2171326  48.9328194   5.7749801  38.5218620   6.7971659  84.0988617
  38.9143486   7.4425874  83.5109634  39.0689011   6.0180926  83.9987259
  35.1021156  36.4915733  83.0428848  34.8566589  36.6331100  82.1285858
  34.7614555  37.2582359  83.5037689   6.6934538  51.9256020  64.6809082
   6.6061745  52.3550568  65.5318985   6.8306928  51.0020332  64.8916626
  16.9992275  53.6694946  17.7864361  17.2794437  54.1558495  17.0110855
  17.6777000  53.0058899  17.9110680  79.5468140  34.6043777  61.4342155
  79.3518219  33.7083168  61.7085838  79.5381317  35.1108170  62.2464218
  36.2296638  48.8138237  10.8448734  36.4559555  48.9757996  11.7607269
  36.3922539  47.8788719  10.7197294  61.4949417  15.2866669  28.6578140
  60.7687950  14.9011669  28.1675739  61.2759590  15.1265116  29.5757618
  28.4358978  54.0284615  22.9075680  28.0246639  54.7921600  23.3123970
  27.9132061  53.2860947  23.2107468  68.6362381  36.9071312  52.7313995
  69.2834244  37.3705368  52.1997719  69.1245270  36.1858749  53.1283760
  85.6283646  28.8367329  20.3477402  86.0355911  27.9750214  20.2591152
  84.6887207  28.6560879  20.3734169  21.9552402  55.1227036  28.3664665
  21.4669495  55.7204781  28.9325638  22.8720531  55.2652359  28.6017723
  83.0004272  51.0160332  41.0927391  83.1979141  50.2540855  40.5480652
  82.9804230  51.7503929  40.4791031  54.6825409  24.4504776  33.2556610
  53.7459793  24.6478405  33.2670822  55.0754662  25.1810722  32.7780876
   6.1962676   9.8710737  52.7775040   6.7011538  10.6205959  52.4620094
   5.9803791  10.0919819  53.6834984  85.2673264  64.2967148  82.4602432
  85.8881149  65.0239792  82.4161530  84.9276352  64.2173996  81.5688705
  37.0855751  69.2495651  12.2557392  37.7671280  69.1878967  11.5864735
  37.3121567  70.0330124  12.7568426  31.6324310  10.1030540  71.0975800
  31.4440174   9.9436646  72.0224228  30.8015137   9.9380112  70.6519699
  44.8259583  58.9462318   8.1577024  44.6533012  59.2297592   9.0554962
  45.3758621  58.1686554   8.2536583  75.0577240  54.9823036  32.4803658
  75.9506302  55.3225441  32.5368118  74.9349823  54.7846375  31.5518761
  69.6296692  41.5183868  71.5044174  70.0307312  40.6532364  71.4213791
  68.7056046  41.3384056  71.6774445  83.5106964   8.1008978  38.3086548
  84.2823944   8.0459766  38.8723030  83.5272293   8.9946527  37.9663658
  55.3576622  22.8501320  39.6803055  54.9263268  22.4391384  40.4294815
  55.8083763  22.1302567  39.2388649  11.8519449  13.6669722  66.8173370
  11.8515472  14.3944473  66.1952286  12.6946802  13.2344790  66.6795731
  45.7273750  44.6542206  69.2456665  45.1730309  43.9782486  69.6355438
  46.4689674  44.1733093  68.8782501  54.6957130  67.0968628  45.3545876
  55.2561150  66.3412628  45.5313835  54.1310196  66.8132324  44.6356201
  26.5709820  43.1393127  85.7970810  27.5159340  43.2817879  85.8518295
  26.2932549  43.6613960  85.0443954  11.3080444   1.7501984  52.2020531
  11.3366413   1.9135938  53.1447716  12.2124224   1.5420728  51.9675026
  61.3463173  51.7377892  13.3581467  61.7208061  51.4301949  14.1836023
  61.9691811  52.3920822  13.0416431  43.3850937  59.5842857  59.7527695
  42.4305763  59.5145187  59.7688408  43.6091270  59.5908356  58.8221779
  85.5200500  34.9712448   0.4415014  85.4414749  35.6326027   1.1290060
  85.8209610  34.1856499   0.8981459  48.8070412  15.5439110   5.1493835
  48.7526093  15.9995613   4.3093534  49.5620384  14.9626398   5.0580878
  64.1627884  64.4899521  47.1494446  64.2106171  63.6767349  47.6520615
  64.1294022  65.1796341  47.8123627  74.3564224  16.6077995   1.3083731
  73.4959106  16.7809467   0.9265674  74.2157974  15.8570805   1.8853287
  79.4311752  51.6363449  44.3009186  79.5458908  50.9716568  44.9800835
  79.9113007  51.2938004  43.5470123  41.6365318  56.1048088   7.8639708
  41.7044411  55.8949471   8.7954092  40.8898125  55.5909081   7.5564880
   2.4579387  27.7889633  80.1818542   2.7350557  28.5582695  79.6842575
   1.7655545  28.1129723  80.7579269  28.2284737  24.7848186   2.6797061
  28.0109921  23.8936615   2.4062648  27.9314156  24.8358097   3.5882149
  18.6049290  40.4353447   6.3087058  19.4501972  40.5065727   6.7521925
  18.7380352  40.8728218   5.4677973  10.5584068   2.3293619  67.1061859
  10.4099884   2.6815426  66.2285919   9.9789209   1.5694402  67.1604691
  71.0132828  66.1293716  35.3355751  70.3180923  66.5003052  35.8790398
  71.8108826  66.2518234  35.8504219  35.9813232   8.9319782  87.8414536
  35.5799217   8.1177225  87.5379791  36.9213867   8.7928772  87.7267151
  17.0795975  -0.2147598   2.6821599  16.3240795   0.2161679   2.2825029
  17.8318691   0.1184817   2.1930101   6.0980363  25.5592194  33.8063660
   5.5961990  25.4444447  32.9993858   5.8799515  24.7917767  34.3352356
  57.1752205   3.9864450  76.5506439  56.9864998   4.2388530  75.6468124
  57.1333618   4.8067656  77.0421219  64.7163162   8.3800211  47.3782463
  64.6816788   7.5417428  47.8390312  63.9984093   8.8896589  47.7538872
  69.5597382  64.5660934   1.4873084  69.5585403  63.6138458   1.3900839
  69.1880493  64.8910446   0.6672532  86.4600677  45.3462715  22.6310730
  86.4766617  45.5129890  23.5734959  85.5745316  45.5888329  22.3604851
  71.8268738  34.4390488   3.5465205  71.5478287  34.3358345   2.6367331
  71.8882828  33.5443611   3.8811805  86.6384277   2.9164569  71.8607941
  86.4578400   2.0583000  71.4771423  85.8792801   3.0952709  72.4157333
  55.0312920  52.3429832  17.7993927  54.3916473  52.6741104  17.1689625
  55.8328247  52.8287544  17.6049519  46.2553749  10.2458315  12.1147366
  46.9638596  10.7719650  12.4854984  46.2222939  10.5037880  11.1935434
  20.6229401   0.5761646  13.1704693  21.1678486  -0.0570755  13.6377096
  21.2262650   1.2787510  12.9283867  70.7243118   0.7109308   0.5228567
  71.5263824   1.0976250   0.8741238  70.1837311   1.4619025   0.2778169
  39.0387192  65.8353424  77.2482376  38.5063782  66.2256088  76.5550385
  38.5817375  65.0250626  77.4737244  10.6677217  28.2043686  51.8608818
   9.9976721  27.5215187  51.8295593  10.2084942  28.9754620  52.1936798
  22.8288689  39.3091927  68.7747116  22.0708580  39.7110825  69.1991272
  23.0389233  39.8992958  68.0509109  81.7371902  15.4816341   5.2475600
  82.4791412  15.5423689   4.6458492  81.1828461  14.7955465   4.8757825
  26.8727474  31.4010239  66.8387070  26.5426331  31.8864117  67.5947800
  27.7236633  31.7977867  66.6522903  11.1829576  40.4462967   2.7273927
  10.6643314  39.6556206   2.5787857  12.0673294  40.1236191   2.9005873
   2.7267613  55.6699219  36.8256798   3.6795967  55.6963577  36.9130745
   2.4444120  55.0262642  37.4754601  62.7052231  28.7172642  21.3621922
  61.9720764  28.5703640  20.7645741  63.2377434  27.9254112  21.2871780
  67.1174469  22.2665348  59.5651970  66.6084976  21.8940029  58.8451805
  67.4657059  23.0858517  59.2135315   6.2964177  69.5766373  45.8931122
   5.4689970  70.0199356  45.7057762   6.2081451  69.2770844  46.7979393
  34.2287598  56.8188438  87.5437393  34.7743797  57.5641289  87.7949066
  33.3994446  56.9650002  87.9988327  27.7329769  67.7373962  54.1193848
  27.2516937  67.4196701  53.3554153  27.7145176  68.6906586  54.0346527
  69.9374847  48.1684952  73.4592819  70.1831741  48.3975220  72.5629425
  70.3994217  48.8054161  74.0044174   2.8682189  34.9652977  85.5177383
   3.1238546  34.4107895  86.2548981   3.3295553  35.7905121  85.6674957
  51.9748192   3.8590167  88.6564484  51.1172485   3.4965250  88.4341736
  51.7779846   4.6395874  89.1743240   2.4130032  61.9373093  17.1444778
   3.2009361  61.5174904  16.7993031   2.1909673  61.4265862  17.9229946
  78.2840652   6.8422213  78.0856552  77.9823914   6.0743470  78.5710373
  78.2172089   6.5856662  77.1659012  77.4327164  58.6989288  65.0411224
  77.0351868  57.9080582  64.6768036  77.6823044  59.2161255  64.2753220
  67.2756958  17.4153328  29.0975304  66.9136658  18.1629505  29.5731735
  67.8526230  16.9861088  29.7293110  77.4754257  35.0073891  74.0115585
  76.5792923  34.8003883  74.2767487  77.4206085  35.8933563  73.6533890
  28.8330173  39.5543785   5.7201891  28.5816288  40.0250053   6.5148883
  29.7617168  39.3572540   5.8422179  16.3187847  35.5409622  45.4330902
  16.8493004  34.7602119  45.5918808  15.9158049  35.3869972  44.5786095
  42.1361465  68.5041428  14.5923147  41.9325905  67.9292679  15.3300886
  42.2770767  67.9085464  13.8563576  31.4329319  48.4405365  73.9459763
  32.2528572  47.9466286  73.9486465  31.5212231  49.0473213  73.2109604
  59.3255386   4.3847637  20.0936947  59.2118721   4.4440975  19.1451206
  60.2558594   4.5602570  20.2348824  12.1469612  48.9847336  83.1893311
  12.0340042  49.9343071  83.2315445  11.2949400  48.6306229  83.4440765
  13.2872324  41.6688614  86.1016388  12.7675495  42.1703262  85.4733963
  13.2498436  40.7685127  85.7788315  15.3671246  37.4121666  22.0958061
  15.9852066  38.0570412  22.4398193  15.0162296  37.8163147  21.3022251
   7.1514230  61.0701714  38.2782288   6.8690338  60.1711464  38.1101761
   6.6939020  61.5921097  37.6190720  58.9362717  48.8291740  18.5100708
  59.3988800  49.3327446  19.1798801  58.0164948  49.0690880  18.6226749
  53.2693825  52.6879807  15.7804050  53.5463409  53.1009827  14.9625082
  52.3261986  52.5613899  15.6774044  71.8491135  40.7217331   9.2904263
  71.5383530  40.8175774  10.1906872  72.7436371  40.3929138   9.3795586
   2.1158772  69.6519318  87.4654922   2.7119236  69.7342682  88.2099304
   2.4989507  68.9591217  86.9274445   7.9852796  69.2019272  40.7256317
   7.3099065  68.6665878  40.3090858   7.9425340  70.0409927  40.2669640
  29.7838345   6.5791903  85.5673599  29.9340286   7.3985677  86.0388412
  28.9555855   6.2502184  85.9166641   0.6788540  22.5153275  86.1267853
   0.3353207  21.8741035  86.7489166   0.0341420  22.5320034  85.4194641
  50.3861694   9.2234221  69.0439224  49.4770050   9.0331182  68.8127670
  50.3504486  10.0788240  69.4719925  34.9125290  63.9428062  76.9561615
  34.6447983  64.5122452  76.2348480  34.6472702  63.0655594  76.6799088
  32.2827721  60.2831993  57.2839165  32.7460442  61.1208229  57.2831726
  31.3616180  60.5188637  57.1736107  40.3273087  54.7533684  68.0778809
  40.6962204  55.6366158  68.0799026  40.0844498  54.5973282  67.1652451
  84.6143036  61.6806946  56.8238182  84.2463074  62.5633583  56.7824020
  83.8542709  61.1092300  56.9334412  17.1754875  37.0149689  84.7534637
  18.0965004  37.1233063  84.5163269  16.7201061  37.7005920  84.2648087
  13.5838223  39.0263672  15.5899744  14.4084940  39.4055405  15.2860394
  13.1964216  39.7062225  16.1412907  25.8188496  34.9479866  49.0918922
  26.2595100  35.4959221  48.4424210  26.2390652  35.1749077  49.9214478
  42.2716026  42.2337646  79.2334671  41.4291420  42.3672791  79.6678162
  42.5652466  43.1154823  79.0041656  76.1851044  33.7278595  39.4126740
  75.2433853  33.8800812  39.4915504  76.4408493  33.3646088  40.2605400
  60.6645355  42.7415695  30.1416912  60.5073280  43.3200264  29.3954315
  61.1863861  43.2681732  30.7471619   4.2464375  61.0664749  34.3103600
   4.1509938  60.1835938  33.9530907   5.0910587  61.3696251  33.9772720
  77.0646591  50.6821709  74.7417450  76.3667755  51.1074371  75.2400742
  77.3641510  51.3532562  74.1284103  40.2607384  25.7670021   9.8192577
  40.3940811  26.5050831   9.2245398  39.7012329  26.1163712  10.5128918
   4.5851212  28.9788017  45.0334244   3.8469889  28.3733082  44.9643555
   4.9584846  29.0027905  44.1523705   0.3212772  46.2301407  72.4915619
   1.2492580  46.0256157  72.3764420  -0.0626601  45.4201126  72.8272400
  50.0659256  61.5356407  82.2197876  49.3309784  61.9009666  81.7272186
  50.0582390  62.0119896  83.0500031  11.4771147  28.9400845  63.0400238
  12.4069500  28.9428558  62.8128014  11.0425100  29.3172779  62.2751198
  77.4334717  40.5223122  -0.1212620  77.7128906  41.4377136  -0.1354496
  76.8341064  40.4663506   0.6229570  25.5410309  56.5146370  63.1817245
  24.7501221  56.7587814  63.6624413  26.2576733  56.7057953  63.7867966
  51.3872719  14.6313934  26.4968147  51.9466858  14.7551298  25.7300167
  50.4953194  14.6781769  26.1526279  77.1821747  22.7652416  85.9677811
  77.3412628  22.0510826  86.5849457  77.9762421  22.8023510  85.4345627
  60.4854317  12.2258358  31.2099552  60.0276222  11.5284395  31.6792984
  60.5461693  12.9409513  31.8433208  11.4755459  62.8905487  13.9853373
  11.5402431  63.8394356  13.8773394  12.2785807  62.5493813  13.5916748
  16.7619915  42.6570816  18.2187157  16.5359859  41.7585030  18.4589443
  16.2532902  43.2009392  18.8201084  26.7601566  12.1330690   1.7410669
  27.4995689  12.5192633   1.2716485  26.6135483  11.2926025   1.3070695
  59.6571503  14.5403118  85.8087921  59.5331230  13.6375208  85.5158463
  59.8033600  14.4681082  86.7519989  77.2023544  25.4379654  39.0732307
  76.4036789  25.4699650  39.5998573  77.4771729  26.3518677  38.9991493
  48.4808655  54.1358528  11.5202160  49.0168152  54.6493835  10.9158354
  48.5687408  54.5863075  12.3602161  67.7832031  29.2290192  86.1920471
  66.9720459  29.1388111  86.6921616  68.4613876  29.3532810  86.8560181
  55.3322639  42.6717758  53.9249344  55.7639694  43.5191689  54.0335083
  55.2274513  42.3403549  54.8167877  63.6906281  22.3481178  48.7003822
  63.5056267  22.6438408  47.8090057  63.5887718  23.1327858  49.2390442
  75.2013855   7.9946074  39.1534653  74.8973694   7.0889668  39.0932770
  75.7702942   8.1073856  38.3919830  67.2337341  11.8742352   1.6464405
  66.9144821  11.9014215   0.7444576  66.4480743  11.7320108   2.1744041
  27.4739037  51.0984955  33.5006409  27.1402988  51.9603691  33.7498703
  28.2860622  51.0029907  33.9981422  48.8880310  69.9542007   8.5950966
  49.7121201  69.9713211   9.0817308  48.2220764  69.7722473   9.2581425
  64.2221832  46.5274734  36.4887733  63.6555939  46.8180733  37.2034492
  63.7675362  46.8066101  35.6940384  71.8395081  30.1161518  61.6182365
  72.2765427  29.6280918  60.9203606  70.9431305  29.7803898  61.6202240
  45.6158714   2.8259201  54.1262093  44.9004631   2.6632700  54.7410011
  45.8108635   3.7576454  54.2266998   4.2536540   6.9812312  17.9857826
   4.1559997   6.1812925  17.4692612   4.6635532   6.6915212  18.8008175
  17.0160751  67.9417038  24.9011879  16.9401093  67.9317474  23.9470596
  17.6562595  67.2577438  25.0976391  35.1912804  46.1186523  15.9162197
  34.3560333  46.5667915  16.0494938  35.2239494  45.9478951  14.9749403
  57.8228531  13.0044909  88.5911026  58.6450653  13.4748735  88.4534760
  58.0216980  12.0993843  88.3513641  80.8553238   6.7755117   5.3400812
  80.1203003   6.1667871   5.4137340  80.6083832   7.5171566   5.8925443
  85.2101822  59.1154442  12.5039778  84.9395828  58.8323174  13.3773890
  84.3901062  59.3118706  12.0510836   8.0420818  40.7010841  31.1049137
   7.4380050  40.4483566  30.4067364   8.8666744  40.2729034  30.8748245
  71.5517502  42.8536720  79.4330673  71.4276657  42.4853706  80.3078156
  70.6835327  42.8156853  79.0318298  60.1114502  35.8211441  65.3222198
  59.6018524  36.0704803  64.5512619  60.5704079  36.6221123  65.5752716
  37.2376213  22.1718502  82.6117249  36.4866905  21.8279629  83.0955353
  37.9397621  21.5437584  82.7812271  12.4757328   0.4296474  56.3987694
  13.0189486   1.1350762  56.7502213  12.6093760  -0.2997882  57.0039902
   4.4701595  25.2464809  75.9338913   5.1900501  25.6685867  75.4650497
   4.5238829  25.5985699  76.8223648   2.0091228  44.8603020  51.2313156
   2.4726877  45.3278580  51.9261055   1.6129197  44.1084099  51.6716728
   0.3072022  19.2489262  22.3960819   1.2294379  19.3887482  22.1812267
  -0.0885371  18.9573631  21.5747337  31.9412842  47.7450027  51.4488144
  32.5692787  47.7468643  52.1712074  32.2782059  47.0874596  50.8402519
  46.1328773  69.7009659  27.4116192  45.3869133  69.9089432  26.8490238
  46.5431786  68.9431610  26.9949417   6.2356277  48.0158424  76.8376160
   6.7046771  48.8482132  76.8957596   5.3104939  48.2595787  76.8684616
  69.8773117  61.1722031   7.4508796  69.1123352  61.7265472   7.6049738
  70.6197128  61.7027512   7.7399998  71.8178253  53.9056129  52.2927246
  71.2431488  53.1414299  52.3375549  72.7020187  53.5443802  52.3555222
  54.1150284  23.8512802  61.2858391  54.5054245  23.5939426  60.4506149
  54.7627983  24.4327755  61.6839447  41.6028519  52.9932442  29.7581444
  41.6123428  52.6598816  28.8609219  42.5228310  52.9957695  30.0224628
  39.2489738  39.4661293  84.3343048  38.8571968  38.7532692  83.8297577
  40.1216240  39.5755463  83.9564896  18.3304100  59.3283958  54.6487846
  18.4102707  60.2821579  54.6628227  18.8327866  59.0572662  53.8804512
  80.8354340  10.5252790   4.1784463  80.0087280  10.0730419   4.3465986
  81.3168488  10.4588041   5.0030971  57.1938438  35.3647346  45.2745590
  58.1426735  35.3815613  45.1493835  56.8436966  35.1174583  44.4187050
   2.1354046  59.2757492  46.8801460   1.9113321  59.7764969  46.0957489
   2.5632443  59.9101715  47.4552078  23.9596386  46.0537682  87.9370575
  23.5130787  46.7694855  88.3893433  23.2721424  45.6283035  87.4246445
  12.0667992  55.4862518  87.2656326  11.6187840  55.5253677  88.1106110
  11.5356035  54.8877869  86.7403717  80.9535065   0.5024763  20.7342873
  81.7453613   0.1063866  20.3705463  80.5630875  -0.1894872  21.2681293
  47.6652222  36.5810242  39.2659798  47.7435036  37.5320625  39.3410110
  46.7638054  36.4368744  38.9780540  54.4192886  39.0115662  20.2874126
  53.9162674  38.3226013  20.7216148  55.1961899  38.5650215  19.9508915
  52.9928818  61.4080658  22.4202518  52.0514488  61.5769005  22.4580879
  53.3818092  62.2616119  22.2294064   9.5381079  24.4405460  19.4104710
   9.6930275  23.6823273  19.9737949   8.9312754  24.1223450  18.7420883
  85.2288818  27.4951038  69.5351868  86.1418610  27.3255329  69.7674713
  85.2213745  27.4955101  68.5780182  68.3247375  23.6741848  20.4868641
  68.9484177  23.8910370  19.7938805  68.2844315  22.7178459  20.4821568
  55.0585098  41.8759041  10.7626591  55.5858841  42.6596565  10.6082573
  55.1744270  41.6889153  11.6942329  28.6911564  43.6103058  63.7847252
  28.0867481  43.7349129  64.5164337  28.1313286  43.3497086  63.0533485
  57.1680908  60.0370331  30.9923611  56.9801598  59.7076912  31.8712521
  58.0465889  59.7109032  30.7971458  60.1791840  62.1547775  64.9112930
  59.4818382  62.7221985  65.2398834  59.9191856  61.9515305  64.0127792
  26.3266964  37.3019524   5.3396177  26.1003132  38.1310387   5.7610364
  27.2516384  37.1716766   5.5487628  63.3001823  58.5900841  76.2378387
  63.2461929  59.3473167  75.6548233  62.4296265  58.5278816  76.6308975
  31.8733768  50.2090454  11.2559986  32.0902557  49.2837029  11.1422701
  31.5219765  50.4787331  10.4074602  42.8091431  22.1185341   0.5598062
  41.9521408  22.3749542   0.9004342  43.3393478  21.9592113   1.3406584
  69.1722031   8.5336990  11.0843019  70.1173019   8.4267378  10.9766684
  69.0799408   9.3189363  11.6238604   6.6649394  38.9862175  14.3609505
   6.6505976  38.1025124  14.7285023   7.5250716  39.3312798  14.6003981
  67.4475632  61.7021255  83.4959259  67.9854889  62.4495201  83.2346344
  66.9598846  61.4700890  82.7056427  79.3914871   3.7638080  19.9055080
  79.6200027   3.9005997  18.9861050  78.5221100   3.3641460  19.8793221
  61.6435928  34.0916214  25.7291031  61.1382599  34.2235222  26.5312710
  61.6576805  34.9523888  25.3106422  38.1431961  33.8645859  71.5798187
  37.2928162  34.0135345  71.1664200  38.6786194  33.4706612  70.8910675
  49.1165657  24.1993294  65.3528976  48.5746841  24.8756695  65.7593002
  48.5092621  23.7040825  64.8032150  58.7398643  56.3109779  39.6290703
  59.4835014  56.9054337  39.7283745  59.1181870  55.4365959  39.7215691
   5.7281647  32.2936058  32.7969589   5.8101888  31.5123711  32.2499924
   6.0579238  32.0219803  33.6535263  76.9208679  33.5208168  42.0357246
  77.8115005  33.4618111  42.3814545  76.7095108  34.4535065  42.0762711
  68.6760788  14.5754414  61.5685997  68.1536789  15.2513266  61.1367302
  68.6796875  13.8442926  60.9508286  69.1602936  42.4748077  74.6320267
  69.7385788  41.8847122  75.1153488  69.0308456  42.0443077  73.7869568
   5.3945704   0.5187297  86.3565598   5.3522620   1.1539415  85.6417465
   6.0054746   0.9048151  86.9842224  53.3951454  18.8455257  36.4631577
  53.0608406  19.4154453  35.7705765  54.2308159  19.2388649  36.7144890
  10.6284084  47.2936516  61.9851990  10.2416878  47.8368073  62.6719742
  11.5675430  47.4702835  62.0405083  79.2570953  20.6367455  35.6186218
  79.6623611  20.8556690  36.4577065  79.6051712  21.2863350  35.0077972
  64.3270493  39.0203438  11.2130842  63.3932838  39.0498810  11.4215164
  64.6106415  39.9336395  11.2542248  14.6737232  17.6201897  82.0559921
  15.1334419  16.7806644  82.0467072  14.1756611  17.6295738  81.2386322
  66.8583450  64.0985947  37.6918411  66.9317932  65.0495834  37.7722168
  67.5228653  63.7556953  38.2893944  43.7228546  40.1811104  65.7683716
  44.5306282  40.6361046  66.0065155  43.5366974  39.6154747  66.5177917
  69.1912842  21.0376072  85.3110199  69.4151382  20.6011009  86.1329575
  68.2352829  21.0055275  85.2754288  82.6784897  28.0246296  87.6100693
  82.6362228  28.9799023  87.5664825  82.1728745  27.7978725  88.3905563
  63.5389977  36.7574501  65.5877151  64.2855759  37.1648560  65.1485519
  62.9067268  37.4681702  65.6942139  42.1349297  50.4337349   2.6273546
  42.6852798  49.7618637   3.0297658  42.7011070  50.8491440   1.9768853
  45.8614731  50.3510933  37.7016182  44.9549065  50.0622902  37.8063164
  46.3642654  49.7756081  38.2780304  52.9943237   6.8530383  36.4768677
  52.3370514   6.5613956  37.1086693  53.0174179   7.8046746  36.5773048
  66.4837570  36.7957802  87.9819336  67.0984192  37.4328156  88.3460770
  67.0167084  36.0192070  87.8112640  85.6436157  18.3364620  63.8764420
  86.0498962  18.1427040  63.0316734  84.8674545  17.7769108  63.9028893
  75.6256104  31.4128895  45.3128853  76.0144272  31.5971069  46.1679420
  76.1804810  31.8836727  44.6910248  18.8464298  38.4182243  55.9816246
  18.3415451  39.2304535  56.0216637  18.1880131  37.7320709  55.8724556
  56.5369034   9.6404171  16.9813633  57.2417221   9.0133677  16.8192768
  56.1717987   9.3772726  17.8261623  70.6264420  54.4435539  55.2893181
  71.4306030  54.3594055  55.8016434  70.8458786  54.0695534  54.4359703
  76.3505173  25.7278194  43.8605423  75.6243896  26.1304665  44.3368187
  76.6893005  26.4285069  43.3033180  58.1356773   6.3526330  41.9817924
  58.1219597   5.8023376  41.1987114  58.4910240   5.7859864  42.6665344
  85.8714676  51.6371574  14.7447081  86.2331009  51.5843048  15.6293888
  86.5135880  51.1865959  14.1961632  16.3698444  31.8870068   6.4951644
  16.5706253  31.0601826   6.9336648  17.2257195  32.2628021   6.2890368
  20.7219582  54.8034782   9.4727554  20.7464848  55.7144928   9.7654610
  20.2413445  54.8305855   8.6454048  59.1261940  53.7616196   8.9730816
  59.4029388  54.4357147   8.3524065  58.1698685  53.7991524   8.9568110
  15.6080742  67.3283157  32.1197777  15.0216312  67.1038284  32.8422165
  16.4860744  67.1658630  32.4646721   4.8192239  34.0554428  62.0511169
   5.2881413  33.2760048  62.3491554   4.4247851  33.7941093  61.2190361
  29.7447739   3.9838874  17.8050785  28.8716431   3.7275600  18.1020145
  30.2841396   3.9565492  18.5953751  25.4979935  26.5220566  74.6724243
  24.9802818  25.8275585  74.2651443  24.8608093  27.0366058  75.1678772
  22.0207100  63.7171974  81.1519852  21.6358509  64.4676208  80.6992340
  22.9647961  63.8683853  81.1064301  81.1100159  49.9330826  36.6003990
  81.7484360  49.9549561  35.8875351  80.5753860  49.1599846  36.4194870
  61.7447701  56.2994919  42.2276421  61.6807175  57.0900116  42.7635612
  62.6292686  55.9713593  42.3895798   2.0906947  66.8832855  75.2738953
   1.2388722  66.8027954  74.8447647   2.6087112  67.4247437  74.6783142
  34.3218803  59.7888756  66.8470535  33.7334023  59.6516151  67.5894012
  34.9722862  59.0909042  66.9247513  38.2827301  59.0398674  32.5311508
  37.3258514  59.0640030  32.5254517  38.5461273  59.9461708  32.3715630
  71.8679504  22.0333614  51.6156578  72.4674301  21.6580563  52.2606392
  71.0510330  22.1658974  52.0966110  46.3053436  52.5742264  21.1891670
  46.5374603  53.2340126  20.5356865  45.4929199  52.8979416  21.5782681
  58.8111572  35.7214432  19.9275627  59.5104599  36.3749886  19.9367332
  58.5046921  35.6858559  20.8336773  75.4586716  39.1165962  60.8535194
  74.9469528  38.3377533  61.0720978  75.1995010  39.3296471  59.9570427
  77.3499908  67.5680618  79.1694412  77.5239105  68.4677963  78.8929367
  78.1957016  67.2454529  79.4807739  22.6930065   2.8274319  67.0764389
  23.5320778   2.4423885  66.8235855  22.4196777   3.3308258  66.3095474
  71.2476501  53.5221214  41.8990517  70.9372025  54.4139633  41.7426262
  71.0292053  53.0482635  41.0965729  11.8575468  11.1295080  80.5756836
  10.9728460  10.9163666  80.8725128  12.3632441  11.2293434  81.3822479
  61.3591347  40.7157211   0.8733764  60.9374161  40.5528450   1.7170923
  60.6368446  40.9242020   0.2808692  59.7207794   3.6429918  28.6086636
  60.0489502   4.4893088  28.9124451  59.2207489   3.8494418  27.8189945
  68.6336212  66.6629868  25.4811382  68.7466965  65.7868042  25.8495960
  69.2709808  66.7071533  24.7683601  62.7027969  59.3738098  11.6189270
  63.5775261  59.7405930  11.4902639  62.4065247  59.7466011  12.4492760
  36.5295792   5.2587190  70.3815994  36.3438148   4.5198822  69.8020782
  35.6671486   5.5975394  70.6216888   0.5419186  68.5866013  34.0396843
   0.4550703  67.6466064  34.1981049   1.4067061  68.8087463  34.3846893
  24.3940430  37.0805969  77.8769760  24.0116615  37.8569679  77.4679947
  25.3246517  37.1283302  77.6580734  16.2692299  45.8991661  29.4948158
  17.2215099  45.9946442  29.5114403  16.1247330  44.9624481  29.3609829
  26.4492779  29.6341820  80.5228806  25.5301685  29.5182781  80.2819748
  26.6492405  30.5374165  80.2770844  12.1508102   9.0446424  78.0032043
  12.6543627   9.4534826  77.2992783  12.4454193   9.4894037  78.7979507
   7.7458720  57.9200783  41.0536842   8.0282154  58.1486206  40.1680870
   7.2345729  57.1185265  40.9426994  44.3357048  67.4492416  40.3806496
  45.1238365  66.9288406  40.2248878  44.1219177  67.8220139  39.5253334
  52.2002792  11.6606026  54.4955444  52.8313904  11.5421276  53.7856865
  52.7022324  12.0790720  55.1949425  78.0205307  61.2809715  79.6685104
  78.0211411  62.2303429  79.5463409  77.1032791  61.0269661  79.5666733
  54.1277885  48.6734085  81.9398727  54.6007729  47.9747620  81.4877472
  54.2159195  49.4334373  81.3647003  62.2551689  65.1763840  30.2801208
  62.2407188  65.5628662  29.4045296  62.3078957  65.9266205  30.8722343
  62.8946991  36.8322334  12.8765764  61.9553375  36.9196053  13.0384321
  62.9518929  36.4198532  12.0146580  47.9193611  64.3459930  19.2259045
  48.0005875  63.8685341  20.0515347  48.7924385  64.7064133  19.0707607
  64.3229370  16.9812603  14.2251434  63.7436790  16.9926872  13.4631996
  64.9678345  17.6655579  14.0460224  81.5306168  22.9818935  67.6002808
  81.2035904  23.1699047  68.4800262  81.5439224  22.0261669  67.5488815
  25.3658810  45.2308350  42.4981041  25.5784245  45.3350372  43.4255753
  24.7346325  45.9273109  42.3173294  56.2082901  41.1947212  51.6486282
  55.7714653  41.4588661  52.4583473  56.6224442  41.9957581  51.3276100
  75.3937073  14.1699467  44.6382446  75.5531235  14.8323517  45.3105812
  74.9392242  14.6416588  43.9402695  57.1109314   6.8070974  86.7060394
  57.7578506   6.8286200  86.0008698  56.6061783   6.0101495  86.5437698
  67.4137268  44.6546860  54.4299660  68.0750122  44.9601326  55.0509644
  66.6725311  44.3956413  54.9774704   6.4641137  19.1759052  20.4479046
   6.2830839  19.2115154  21.3871555   5.9320092  18.4469814  20.1288948
  17.1591835   1.3122610  77.2909698  17.7638454   0.8826712  76.6859360
  17.2395897   0.8137920  78.1041718  44.7297897  20.5596123  81.4757080
  44.5308151  19.6442871  81.2786789  44.1528854  21.0597591  80.8984146
  41.7426071   0.0251920  37.4250870  41.1696548  -0.7021804  37.6677513
  41.1492882   0.7656571  37.2989388   2.3012209  37.2611465  81.2039566
   2.7590680  37.1903534  82.0415726   1.7302057  36.4933739  81.1774826
  10.5931444   5.2089877  84.1005402   9.8515177   5.7767835  84.3098984
  10.3843098   4.3763218  84.5239639  25.5325203  42.4462624  44.6390228
  25.6696758  42.2875099  43.7050934  25.9600258  43.2865639  44.8044472
  86.0770035  43.7842865  73.1701736  85.2299347  43.4404984  73.4539261
  86.7154770  43.1551247  73.5059357  50.3300362  37.6602974  26.3284149
  49.6216469  37.8994484  26.9260960  51.1304474  37.8718185  26.8088665
   9.6575499  67.0537720  70.8980255   9.9231873  66.9328079  71.8096390
  10.4773121  67.2059784  70.4278564  65.8354263  70.6937943  87.5547180
  66.5799866  70.1453781  87.3075256  65.1155853  70.3816910  87.0063934
  73.6927719  27.8478680  51.8017502  74.2202682  27.3716354  52.4429855
  72.8094788  27.8475018  52.1705666  59.6498756   8.6179142  48.5513878
  60.3939590   9.1839724  48.7567024  60.0347176   7.7492480  48.4349899
  76.8333588  54.0889015  18.5876675  77.2227631  53.4041443  19.1314507
  76.5300064  54.7474556  19.2125797   3.4309354  43.5650940  26.0523167
   2.6133335  43.2155190  25.6979771   3.7574182  42.8736649  26.6281338
  81.9533234  40.3493271  43.4002342  82.6777039  39.7349434  43.2817574
  81.6739960  40.5647392  42.5103989  49.2423973  20.8586273  27.6665897
  49.3279648  20.4588566  26.8010883  50.0063858  21.4302197  27.7429924
  44.0928154  64.7112808  13.7367239  43.4947701  64.9962387  14.4276457
  44.3447151  65.5193176  13.2896776  68.1477356  49.3351517  36.2563133
  68.7011795  48.8979988  36.9034843  68.7542953  49.8711815  35.7454376
  55.8965073  35.8173561  12.3117161  55.6248093  35.8922348  13.2264862
  55.2535019  36.3355331  11.8276997  27.5832157   8.5516996  10.0812912
  28.0030518   8.3067904   9.2566767  27.7063980   7.7903090  10.6481619
  83.2347336  66.9098511  19.8987617  82.7132111  67.5432663  19.4057808
  84.1042023  67.3064041  19.9535141  14.4579611  62.8685913  41.0393906
  15.0411911  62.1165237  40.9370613  14.7912016  63.5163498  40.4184303
  57.7291489  40.6935501  21.9176064  56.9351158  40.9220924  22.4008389
  57.8489418  39.7582741  22.0823517  77.3134537   5.2537837  88.7446747
  76.4640427   4.9147859  89.0271759  77.4313736   4.8999624  87.8631134
  49.4113503  23.5383434  75.1053009  49.4945908  24.1296997  75.8533630
  50.2821579  23.5306988  74.7079697  49.9446678  47.3515739  75.0653534
  49.9697304  47.8743858  75.8667679  50.6392059  46.7030678  75.1806259
  -0.0167397  17.2010937   1.5188166   0.4437266  18.0283680   1.6595998
   0.6304945  16.5279388   1.7290162  29.6276646  61.6555862  75.6697464
  29.1462669  61.6922760  76.4962692  29.2745304  60.8874969  75.2207870
  27.8349571  32.4255104   5.7013092  26.8829918  32.3295059   5.6734405
  27.9891624  33.0893326   6.3734646  77.1748886  21.9597378   9.4093914
  76.5248489  22.6272755   9.6286507  76.6761703  21.1436901   9.3696833
   1.6380109  34.1875992  65.9828949   2.5821011  34.2342415  65.8320618
   1.3144630  33.6034698  65.2970810   8.7123442  13.0750532  87.3537521
   9.1465273  13.6741810  86.7464905   8.3892193  12.3647289  86.7994385
  60.1555786  15.9288960  81.9357681  60.1750374  16.7537594  81.4505310
  59.2706833  15.5908804  81.7981567  54.9281158  25.0686226  41.3526268
  54.8282928  24.6704407  42.2173309  54.9987526  24.3254986  40.7534523
  36.3337708  49.4155273  26.8320045  36.8993340  48.6718788  27.0402184
  35.4633446  49.1431961  27.1225643  45.5836906  54.3698349  70.9803772
  45.8919067  54.6438484  70.1165771  45.9860992  53.5121956  71.1173172
  63.9847221  50.8625755   4.9147105  64.0741272  50.2541504   5.6482339
  63.0968170  50.7158127   4.5886540  22.8395157  44.3346024  64.1420822
  23.3382473  44.8517532  63.5095825  23.1379662  44.6477814  64.9959412
  76.3227997  57.2820282  15.4037037  76.1819687  56.4306641  15.8179264
  77.1326447  57.6082573  15.7960796  26.4416542   1.8983296  52.0476151
  26.9718246   1.7925441  52.8375282  25.7307701   1.2655249  52.1497650
  66.7336731  70.0846481  46.6150436  65.8573608  69.7014999  46.6539688
  66.6255112  70.8769531  46.0889473  80.2438507  17.9407940  13.2273483
  79.5983124  18.0657845  12.5317202  79.7211914  17.7831287  14.0136089
  70.0944901  34.5799294  84.1208420  69.5544739  35.1152267  83.5394058
  70.8083115  35.1598701  84.3860931  10.6442986  30.0625286  18.3400536
   9.7133474  30.2832832  18.3688469  10.6933260  29.3071632  17.7541771
  77.2025070   4.9523535  85.9647064  76.4218674   4.4080496  85.8618622
  76.8856354   5.8488307  85.8544464  52.0447769  62.7275429  54.3151207
  52.6861763  63.3780785  54.0293770  51.7699013  63.0268173  55.1817856
  14.6009789  48.9640083  67.5446320  14.9712400  48.7013283  68.3873291
  13.6593781  48.8221359  67.6420746  64.8001862   8.6083155  87.6017075
  65.5195160   8.5898838  88.2329483  64.5201416   7.6957335  87.5309982
  75.3193054  45.6370964  60.6586418  75.0530701  45.0374069  59.9617043
  75.8682709  45.1056290  61.2351952  69.1351700  60.4511261  25.9500141
  69.7364731  61.0957603  25.5770416  68.6577530  60.9319763  26.6260986
  81.6032257  58.4262276  42.8360977  81.0136414  59.1689491  42.7057533
  82.1958237  58.4561539  42.0849876  52.5647507  32.8576088  66.6710815
  51.8737450  33.0000648  66.0242081  52.7283516  31.9149055  66.6431274
  63.3395767  12.7764273  28.3466606  64.0289383  13.0447760  27.7392044
  62.7691879  13.5420752  28.4150066  16.5406647  45.2681160  58.8855934
  16.3141880  44.6001396  59.5327034  15.7098513  45.6994667  58.6857986
  54.1375923  39.8683243  68.1992722  53.7453270  39.5932083  67.3706207
  53.6980629  40.6919823  68.4105453  50.6172180  31.3319550  34.5200119
  49.8396187  30.7743645  34.5457001  50.5143776  31.8497543  33.7215500
  68.9606171  40.2107620  33.1136017  68.9895935  39.8147011  32.2426682
  69.5537186  39.6749344  33.6402397  64.7633514  39.3715286  39.4142952
  64.5867996  38.9647446  40.2625809  64.0474548  39.9954758  39.2942429
   2.9784677   9.0821152  41.8489456   3.8648570   8.9119263  41.5302277
   2.9381051  10.0333099  41.9480972   3.3475366   3.6875672  47.2157669
   3.1585641   3.4613473  46.3050842   2.5921280   4.2044115  47.4958763
  34.8774796  16.7571545  70.7411575  35.7105942  16.3464546  70.9723969
  35.1251488  17.5758781  70.3115234  83.1591644  37.1066971  46.8028717
  83.9945526  37.5603943  46.6910286  83.0628204  37.0123940  47.7505302
  46.1340256  66.7351685  22.4788113  45.7160263  66.3067780  21.7318268
  45.4757881  67.3509598  22.8009148  17.0305634  29.8100166  67.9320526
  16.1393147  29.9704552  68.2421646  16.9946518  29.9953632  66.9936600
  22.1537609  40.0633087  53.1154022  22.3761921  40.9762077  52.9327278
  22.5834942  39.5679398  52.4181404  61.9676819  45.5885620  14.4486723
  62.8132057  45.1713829  14.2835045  61.3762856  44.8618851  14.6446838
  76.9295654  58.2933197  26.6829796  77.4294434  58.3269005  27.4985962
  76.7432404  59.2096405  26.4783630   2.7680418  25.3142147  70.9862442
   2.1402729  24.6085148  70.8309174   3.2497213  25.0389118  71.7662582
  56.1120872  35.0507355  84.5886383  56.9625549  35.4791489  84.4916763
  55.4790306  35.7058067  84.2947769  81.6025009  34.7669106  15.1932564
  81.0801086  33.9948425  14.9759007  82.1431961  34.4897842  15.9329042
  85.8939972   4.1259847  49.1983070  85.1820374   3.4862094  49.1930962
  85.8361893   4.5416565  50.0586014  11.8885641  70.2066879  74.4560547
  12.2570086  70.2919464  75.3353806  11.0021009  69.8750153  74.5989227
  20.9092960  70.9226379  77.6759338  21.6284981  70.4996338  78.1450272
  20.1184845  70.5296860  78.0453186  37.8697586   4.3991885  12.0208359
  38.6118240   4.6632948  11.4769440  38.2030411   3.6691658  12.5425844
  46.0399933  32.9188004  72.7146835  45.3902473  33.0429688  72.0228424
  45.6303062  32.3006248  73.3198700  23.3062706  50.5375290  65.0107803
  22.4129677  50.4740486  65.3487244  23.7730789  49.8149719  65.4305725
  70.0886841  42.7350960   5.9043984  69.4766998  42.1435966   5.4664016
  69.7732925  42.7806358   6.8069987  46.2839088  48.1119919  50.2022400
  46.3050804  49.0477638  50.0019608  45.5191383  47.7831726  49.7297554
  60.7983780   1.7221903  64.2231369  61.4346886   1.7788345  64.9359665
  60.0772247   2.2872796  64.5003433  42.3871498  24.5215492  43.3041534
  41.8579063  25.1404781  43.8072052  42.6539879  25.0114937  42.5263481
  55.9562683  29.6189690  86.5267334  56.7695503  30.0672741  86.7587357
  55.9999046  29.5206375  85.5755920  36.1820908  44.4149094  66.8592072
  35.8647652  44.1259384  66.0036240  36.4187164  43.6058273  67.3126678
  72.2710266  58.4112053  80.2338333  71.7055969  57.7084312  80.5541916
  72.5958328  58.8376007  81.0268784  61.7964783  65.2574081  21.8499565
  61.2924347  66.0045624  22.1723347  62.6741409  65.3877029  22.2090740
  52.8482895  44.1978416  82.1856308  52.2478600  44.0431557  82.9148712
  52.3972893  43.8354874  81.4230499  57.8775787  55.5655327  46.5810547
  57.8261566  55.8609657  47.4900703  57.5462723  54.6677399  46.6018944
  37.1000633  63.9727211  15.1995554  36.5179405  63.7946396  14.4608727
  36.8799171  63.3012924  15.8452749  42.6364479  53.6722946  13.2133484
  42.5532951  53.0983543  13.9748678  42.3983498  54.5398903  13.5401793
  52.4099884  42.4368210  35.7748604  52.4414825  41.6903954  36.3732643
  53.2041626  42.9341431  35.9702835  68.3457108  26.8075714  82.3143997
  67.8249664  27.2919865  82.9550247  68.6746750  26.0493736  82.7972565
  61.9618950  39.5481110  51.2960396  62.5327568  40.2248726  51.6598282
  61.0797958  39.8136215  51.5561104  26.1469078  23.6800766  79.0387268
  26.2612877  24.4140301  79.6424332  26.2825508  24.0604172  78.1708679
  13.3363762  39.7493973  23.0461941  14.2742710  39.6259117  22.9001198
  13.2860165  40.4322853  23.7150459  19.1060486  30.7126808  18.8259640
  18.4237270  30.9385262  18.1937733  19.7298622  31.4368286  18.7740231
  81.9268417  29.6563129  70.9539185  81.8576736  30.5045242  70.5157547
  82.8594513  29.4437008  70.9183578  60.3252754  50.2061462  63.9985847
  59.9878578  49.4954720  64.5438614  60.2738724  50.9817429  64.5571899
   0.8323762  23.4537868  42.4944191   0.6227581  23.3586845  43.4235306
   1.7398808  23.1580772  42.4221420  65.8994675  55.0690613  63.8798904
  65.7175369  55.9561386  63.5696831  66.8533096  54.9953423  63.8487434
  55.5863914  36.9007568  74.2149734  56.4410210  37.0376701  73.8062057
  55.0435219  36.5329742  73.5176468  56.6397629  10.8738136  82.8430023
  56.8391113  10.1820574  82.2121582  55.6966019  11.0123482  82.7564697
  16.6606350  63.2377129  78.9074478  17.1697712  63.9640274  78.5476151
  17.2160378  62.8744736  79.5972443  17.4825363  33.4277077  60.2715569
  17.9979019  33.8749237  59.6002693  16.6260147  33.8538132  60.2393837
  74.1213303  62.2771454  11.0504408  73.4305649  61.6231537  10.9437952
  73.6643524  63.1171799  11.0087633  54.2275810  16.7519531  43.4408073
  53.4449768  16.7178020  42.8907204  54.9206924  17.0521965  42.8528595
  85.0124207   8.4369459   4.7574801  85.7140884   7.7871847   4.7162809
  84.6176071   8.3087425   5.6199889  50.5701408  48.9170227  22.2791862
  50.0567131  49.6851578  22.0289955  50.6995430  48.4383698  21.4604206
  67.0427551  29.1377029  46.4960518  67.7819290  28.7418575  46.0343590
  67.2634354  29.0476761  47.4231071  53.2178535  29.4352150  78.9416733
  53.3350220  28.5630226  79.3182144  53.0089493  29.2728672  78.0217590
  14.9480762  25.0321274  64.3530045  14.6934605  24.1883202  63.9796524
  14.1184397  25.4664669  64.5512085  18.3601227  44.5576859  19.1802120
  17.7980671  44.6423569  19.9503784  17.9483891  43.8694153  18.6577263
  31.7936058  67.7620010  57.8619614  31.1607666  68.4514542  58.0629692
  31.5691166  67.4821396  56.9745407  51.5720139  70.4613113  13.2304354
  52.4390450  70.0565643  13.2563915  51.6183014  71.1681747  13.8741970
  22.1930408  25.5497513  71.7926865  22.2310066  26.1881065  71.0804443
  21.9441681  24.7296886  71.3663177  84.4292755  70.1071548  88.1299057
  84.3145065  70.0623627  87.1806717  84.2341690  69.2217255  88.4368057
  75.6471634  50.9708824  13.2243900  75.5825577  50.0171547  13.1747684
  76.1362000  51.2189560  12.4398289  48.6268425  55.3428574   2.3121502
  47.9106178  55.6371536   1.7494383  48.9293823  54.5291519   1.9089309
  41.0891914   0.4489942  25.9068317  41.1081963   1.1591671  26.5483341
  40.2857704  -0.0318789  26.1056023  66.2946014  15.8356295  27.3293114
  67.0118484  15.7124157  26.7075405  66.6428070  16.4466763  27.9786224
   0.5248391   9.3097849  32.1399994   0.6554935  10.0896492  31.6005802
   1.3817064   9.1442175  32.5331879  63.9260063  37.5316772  75.3220367
  64.1649170  36.9933090  74.5675049  64.7551270  37.9031677  75.6233444
  48.3250885  26.7282791  42.6553040  48.9432640  26.9654274  41.9640350
  48.2423706  25.7771320  42.5866814  22.9799633  31.9642372  33.2237892
  22.5316887  32.0363503  32.3811226  23.9018040  31.8450089  32.9952583
  83.0926285  25.6695175  86.4318924  82.8847733  26.5795536  86.6436996
  83.3647537  25.2857285  87.2654877   3.5491779  43.5062294  19.4215889
   3.4847527  44.1965561  18.7616405   2.6476469  43.3673897  19.7117558
  73.1486206  44.3215103  43.7601776  72.2130585  44.1845779  43.6111679
  73.5741730  43.6118431  43.2790260  32.4308548  64.9071655   2.1064749
  31.9505310  65.7331009   2.0485888  33.3507805  65.1588669   2.0251575
  44.4832458  25.2053852  15.8042650  44.4518661  24.2598724  15.9500437
  44.5133896  25.3000736  14.8522377  64.2072220  49.9432259  83.8840485
  63.5677567  50.6432266  84.0156250  65.0396957  50.3234825  84.1644592
  17.9185276  55.0450325   6.8837953  18.3044987  54.9650726   6.0115194
  17.4830494  54.2054176   7.0308971  60.2312737  66.2249374  17.6969700
  60.4179420  67.0255508  18.1872711  59.5584908  65.7798767  18.2122536
  66.1598587  29.5727024   9.4935083  66.2642899  30.1366749  10.2598362
  66.0416412  28.6949062   9.8564568  72.3949814  18.8685741  60.0782242
  71.8056412  18.2343922  59.6699104  71.8153229  19.4584942  60.5601196
  66.5164948  37.4357109  82.8517380  67.1756134  36.7471352  82.7642136
  65.8314285  37.1920357  82.2292099  11.7393408  66.0685120   8.1727762
  10.9265690  66.5645065   8.2708874  11.6166773  65.2961121   8.7246637
  16.9525700  16.1149502  79.4448929  17.0654144  17.0508575  79.2788315
  17.6437340  15.6957054  78.9322891  84.8939133  49.3595543  72.5852432
  85.6662064  49.5396118  72.0491791  85.0945511  49.7534142  73.4342728
  86.9108276  25.0166740  74.0852966  86.7315521  24.2015781  73.6165619
  86.2737045  25.6393814  73.7352295  83.9158783   5.3515339  32.9119225
  84.6765594   4.9728794  32.4712105  84.1614456   6.2625203  33.0732689
  64.0615158  23.8460140  43.0339470  63.9790802  24.1051445  42.1161842
  63.7507133  22.9409504  43.0561218  68.4602127  46.1593361  39.9429703
  68.2559204  46.8251762  39.2863464  68.0504150  45.3609390  39.6100159
  14.7881584  64.1209488  81.2057190  15.5256672  64.3116455  81.7853317
  15.1894732  63.9651680  80.3507843  16.6876202  50.9581223  29.9950771
  15.8876114  50.4404678  30.0859318  16.3801823  51.8375778  29.7753716
  32.8301125  -0.1517051  73.5759735  32.1852913   0.5415579  73.4351654
  33.3172455   0.1280953  74.3509827   9.5565910  13.1984148  26.4810467
  10.1955929  12.6158552  26.8915730   9.1590767  12.6688395  25.7898426
  65.4816589  65.4796677  43.4384041  65.3145676  64.6049042  43.0875473
  64.9973297  66.0669937  42.8581390  53.6274605  27.7765026  53.3875313
  53.0505486  27.0140972  53.3412399  53.8430939  27.9694443  52.4751129
  73.8757324  38.8190422  33.1789093  74.0267639  38.0963135  33.7880745
  74.3623505  39.5534325  33.5532112  43.4986191  19.7586918  76.3512650
  43.3836975  18.8113117  76.2771454  42.8099098  20.1275063  75.7982025
  79.0252533  19.7852230  53.4700127  78.4480133  20.5451546  53.3956413
  78.8743591  19.2901249  52.6648140  67.2239761  39.3479347  15.3818369
  67.0723419  38.4028206  15.3831797  66.6693192  39.6805000  16.0875168
  75.7462463  11.0579882  85.4751511  75.4588318  11.8836031  85.0852966
  76.0974960  10.5554810  84.7400665  37.0910988  13.2226954  75.5826569
  37.4602127  13.5004778  74.7443161  36.6827240  14.0121632  75.9379120
  21.6149044  33.6655617   6.3837585  22.2000217  32.9136696   6.4761052
  21.7364464  33.9539528   5.4791651  64.0313492  70.1139221  21.6128368
  64.1359100  70.5510406  20.7677155  64.3274841  70.7594070  22.2546139
  55.2472343  60.0799904  51.8185997  56.0063591  60.0799294  52.4016571
  54.5560265  59.6536789  52.3252792   9.2340202  55.7938995  46.7313042
  10.0416508  55.5429039  47.1795959   9.3486576  56.7234688  46.5338326
  86.3526230  48.6028137  23.8967857  85.6616440  48.9474373  24.4624748
  86.8364944  47.9931679  24.4539547   2.9973891  61.4865990   2.0090795
   2.4470379  61.0432014   2.6546376   3.2766893  60.7907333   1.4141043
  48.0999908  52.4255829  37.6245003  47.5492821  51.6594009  37.4635086
  48.4050331  52.3162956  38.5251884  82.5813980  11.9943962  68.4712448
  81.9050217  11.3484240  68.2676239  82.5660400  12.5991993  67.7294846
  69.9047928  25.3229427  46.1597862  70.5722351  25.0629215  46.7947235
  69.3432541  24.5525761  46.0735092  65.2142258   0.9296862   0.6153744
  64.3897095   1.1895980   0.2044526  65.6403732   0.3713465  -0.0349238
  40.8650742  16.1302071  76.5562210  40.2033844  16.8108559  76.6791687
  40.7412682  15.5389042  77.2986984  19.2277641   6.2958455   2.2356532
  18.4248314   6.8061423   2.3411512  19.0396309   5.7005658   1.5100636
  76.7854996  62.0158348  55.2536964  76.7177353  61.0663338  55.3541260
  77.3195724  62.1361275  54.4685059  73.0164948  34.1967506   8.5896931
  72.3503952  34.7641602   8.2016363  73.8440094  34.6454620   8.4161558
  41.6872330  71.0289001  62.8713989  41.2691422  71.0252686  63.7324562
  41.0672569  70.5729828  62.3021889  78.8589249  69.0289993  38.6572266
  78.6449280  68.4911575  39.4195671  78.1721802  69.6953812  38.6338615
  30.4145622  55.5256004  31.2338028  31.3051796  55.4536972  30.8904896
  30.5180187  55.9647560  32.0779991   7.5830746  56.6925888  15.8664436
   7.3919373  56.2480240  16.6923141   7.5366297  56.0013123  15.2059822
  65.5854034  47.4246407  75.2271957  65.5817337  46.8595123  74.4546356
  66.3400269  47.9995689  75.0998077  22.5321465  14.8920794  14.8821392
  22.2606010  14.6592970  13.9942732  21.7163048  15.1105347  15.3325968
  11.4841967  32.3353271  79.3796844  12.0140686  33.0830154  79.1032257
  10.6315784  32.7128716  79.5958710  83.9128418  15.3113813  26.4199810
  84.1901016  14.8496838  27.2113056  83.3074570  14.7073708  25.9899635
  84.0921097   7.0570493  72.5613251  83.6129761   7.5962024  73.1905899
  84.6856613   7.6683564  72.1251678  49.5337257  68.2988968  57.5080757
  49.5826797  67.8752136  58.3650093  50.4236412  68.2398605  57.1605186
  82.2816391  48.2362709  82.9804916  81.4031143  47.9184036  83.1887970
  82.4889450  48.8476791  83.6872025  17.7939854  58.0325508  71.5504684
  17.2512321  57.7741203  70.8055725  18.4889412  58.5671272  71.1664124
  86.0745163  49.2900009  57.1571045  85.4581833  49.7229843  56.5664368
  86.7809601  49.9252625  57.2737770  51.6712265   7.8883891  73.9750824
  52.2557564   8.6116047  74.2020569  51.5805321   7.9432425  73.0237732
  63.6695709   6.4979496  63.8414116  63.4776001   6.0129004  64.6439743
  63.6249695   7.4181352  64.1012192  18.1919918  27.2626705  76.0058746
  18.9090767  26.6843052  76.2657166  17.9592800  27.7307758  76.8077240
  48.7958641  61.3364067  15.9505854  49.2913895  60.5201607  16.0171547
  48.4833183  61.3537636  15.0460167  71.6596298  68.6240082   3.1909649
  72.4563217  68.2367859   2.8282349  71.9728165  69.3251266   3.7624288
   8.8503475  10.3432846  80.6148376   9.2459555  11.1674538  80.3311691
   8.7182236   9.8498974  79.8053055  52.9356117  38.3497124  -0.1020110
  53.0572205  37.4568214   0.2207745  52.5961494  38.8326416   0.6515004
  75.0787506  20.1451340  47.4453201  74.6782684  20.9835682  47.2153816
  74.3702087  19.5081139  47.3536415  83.9404373  12.5431299  30.6216812
  83.6320801  12.6570683  31.5206604  84.0619431  11.5982981  30.5280838
  57.9875298  30.4453182   9.6694460  57.5102959  30.7061081  10.4571438
  58.2918205  29.5573120   9.8567524  71.0519028  40.7217598  52.0257645
  71.9009552  40.2808075  52.0559196  70.8263855  40.8702469  52.9440918
  73.7991486  71.4362869  56.1912384  74.5005569  71.2221069  55.5761070
  73.0809784  70.8518524  55.9485359  33.3840179  28.8908310  74.0620804
  32.4858017  28.6181564  74.2493973  33.8303642  28.0842476  73.8043365
  12.8765116  69.9592819  68.0658875  13.3801889  70.1570358  67.2763138
  13.3243618  70.4396439  68.7622452  77.2065887  68.4836731  11.0242863
  77.6287766  67.9951630  11.7309313  77.7385635  68.2946014  10.2513142
   7.8807206  51.0071144  24.6987095   8.4091139  51.5530968  25.2808914
   8.1510916  51.2651863  23.8174992  52.4236565  48.5776062  35.4828110
  52.3964882  49.0868454  36.2928543  51.6556511  48.8685493  34.9911270
  69.2929611  28.7774487  88.4460526  69.5458069  29.2058201  89.2638550
  70.1216431  28.5036259  88.0529404  28.6743050  58.9916763  16.0620670
  28.6890545  59.8545685  16.4761124  29.2532520  58.4559135  16.6042938
  81.8045425  67.8919907  77.6819687  81.5216980  68.7977905  77.8074722
  81.0320587  67.4457321  77.3350372   2.6934147  30.7549782  72.3411713
   2.8093672  30.1130180  73.0416489   3.5753179  30.8953381  71.9965286
  69.9618683   0.6738805  63.9936409  69.4174652   0.0221163  64.4352951
  70.0459900   1.3854479  64.6283264  37.6208153  40.5081863  57.7004623
  37.3117485  40.1851425  58.5468369  36.9400902  41.1167831  57.4132996
  80.1297684  48.9611511  50.4085960  79.4510117  48.3456078  50.6854019
  80.5285797  48.5491676  49.6421432  32.3194008  11.0278845  29.8370800
  32.2052917  11.6286325  29.1006603  33.2022133  10.6755638  29.7241955
  76.4945984   1.4417353  35.6948814  75.8037643   2.0374570  35.9848862
  76.0624924   0.5906128  35.6233788  60.9885063  46.9770546  27.2140808
  60.6264915  47.5269966  27.9088783  60.7345657  47.4175911  26.4031105
  60.2068596  21.4308987   2.3307455  60.1690865  21.4868526   3.2855618
  61.0962067  21.1305695   2.1434190  48.9158669  38.1582260  87.7253952
  48.9983101  37.4954262  87.0397339  48.7609787  37.6567650  88.5258789
  21.0552006  23.1288166  87.7450180  21.0775986  23.9840469  87.3156967
  21.3081722  23.3086605  88.6504974  14.0524988  68.1859283  -0.1196303
  13.5884161  67.9765930   0.6909486  14.2019911  69.1302338  -0.0730078
  56.0537376  25.8601665   0.8234019  55.4418297  26.4543114   1.2579013
  55.5029411  25.3245888   0.2524282  39.1163216  17.3687305  78.9385757
  39.1330414  18.2915192  78.6847763  39.9573174  17.2243404  79.3722992
  72.0534515  61.7121429  25.4804764  72.8599319  61.2491760  25.7073898
  72.3338852  62.6106987  25.3067398  59.7515106  36.4530487  51.4922485
  58.9894867  36.0647011  51.9220581  59.5333214  36.4401207  50.5603371
  83.6824799  33.2080612  22.7020245  83.5817184  33.7940216  23.4521770
  84.5070877  32.7500954  22.8648987  69.5889816  35.8812790  32.3303413
  70.4728394  35.7126694  32.6568527  69.3864517  35.1217079  31.7842083
  46.4817200  38.1134377  45.2350578  47.2814140  38.1067276  44.7090569
  46.4165955  37.2241936  45.5832481  70.8142548  16.6253185  60.2248878
  70.6258621  15.6870384  60.2441444  70.0361404  17.0177650  59.8289604
  43.4915962  69.2155075  74.8494568  44.2180786  68.8956909  74.3145065
  43.8548470  69.2801514  75.7326889  73.0387421   2.2953131  30.8072739
  72.5253830   2.9766228  30.3730946  73.5664291   1.9104742  30.1075039
  18.8406105  65.9750214  24.2434444  19.0051556  65.1055984  24.6084862
  19.6597881  66.2109756  23.8081207  39.2586174  52.4165268  13.6275826
  40.1187897  52.4045410  14.0473309  39.1413422  53.3243332  13.3476439
  73.6386719  22.4946709  35.4363289  74.1267776  22.3475895  36.2464790
  73.5324554  21.6214943  35.0588150  86.0902939  21.0197620  63.8732147
  86.0946274  20.0882854  64.0935898  85.8626556  21.0449505  62.9438210
  49.7666397  13.3836613  64.3635025  50.4295540  12.8706264  63.9013672
  49.4980125  12.8258438  65.0935135  26.1130428  27.7962246  10.2308474
  27.0190964  27.4950848  10.2987661  26.0966625  28.6186466  10.7203217
  10.7197828  29.2773628  82.0016251   9.8611679  29.5873852  81.7136993
  11.2514830  29.2712440  81.2057037  80.5628052  15.7131147   0.5932811
  79.9083862  16.1100578   1.1680872  80.1930847  14.8610592   0.3619005
  17.0887833  10.1172943  77.3445358  17.5342445  10.9429016  77.5347137
  17.0190125   9.6815872  78.1939621  63.9532509   7.9645495  83.3656387
  64.0684891   7.0189676  83.2716827  64.4396896   8.1874208  84.1593323
  32.0998993  41.1075287   1.1282018  32.7310829  41.3404655   0.4473354
  32.3635368  40.2314339   1.4095939  32.0013771  10.7841158  10.4610167
  31.2272797  11.3349094  10.5777721  31.6550217   9.9460859  10.1544628
  25.4767952  18.5002613   3.2079484  25.3629036  17.6675930   2.7497752
  25.3017750  19.1656876   2.5425105  56.7961960   4.5669026  10.4950647
  56.2639465   5.3325934  10.2790642  56.3037834   3.8257039  10.1423845
   8.6638088  22.0335045  16.8737469   8.0881548  22.7591724  17.1151218
   8.6110115  21.4293556  17.6143188  31.1337643  49.6661911  76.6903152
  31.0095768  50.3769455  76.0613174  31.4723663  48.9397163  76.1670456
  31.6177158  32.6448631  12.8908701  31.5213699  33.2896729  13.5917063
  32.1575203  31.9534836  13.2740622  22.3735657  28.0666180  26.0204144
  22.2579479  28.8441563  26.5665836  22.2011032  28.3717842  25.1297054
  60.8069649  21.0138874  87.1745148  59.9920883  21.4807339  86.9894104
  60.5389175  20.2673969  87.7103653  21.1298943   7.9827695   7.7937751
  20.3663960   7.4171948   7.9096494  20.9608326   8.4485664   6.9748225
  17.5932045  50.5496788   2.8526952  17.5208988  50.8314972   1.9407846
  16.7006092  50.6091118   3.1932437  40.9019737  63.2948074  23.0025196
  40.9792557  63.9140892  23.7282944  41.3426018  63.7270355  22.2709084
  81.8030930  38.3947144  55.6734200  81.9820023  38.9165649  54.8911819
  82.1768646  37.5353012  55.4786568   5.0089707  65.4234238  15.1062241
   5.3127484  65.8917542  14.3286505   5.7537026  65.4483795  15.7070436
  55.9549255  14.9928360  57.4356613  55.4096985  14.3572941  57.8993912
  56.1267776  15.6776962  58.0819321  63.4332733  16.7489071  64.7172089
  63.5436516  17.6934853  64.8259277  62.8383636  16.4945202  65.4226227
  44.1348610  20.5244122  38.0619202  44.9427338  20.2842960  38.5157013
  44.0296288  19.8523979  37.3884544  70.5856018  13.0518208  76.6964645
  69.8353577  13.5738850  76.9807434  70.5036469  12.2307425  77.1815872
  73.7229462  42.5250320  75.7869492  73.1328583  43.2128601  75.4788742
  73.2248611  42.0679207  76.4645844  84.0479050  47.1271782  51.5760460
  83.7318726  46.4787560  52.2052536  84.4409637  47.8129921  52.1158562
  75.5606003  63.9807472  60.5262756  76.3431091  64.1470108  61.0518875
  74.8450623  64.3627625  61.0345116  78.7907410  18.0160885  64.0793533
  78.4988174  17.2079372  64.5011444  78.2758331  18.0654125  63.2739525
  56.5552902  29.7657433   7.2607770  57.1404762  30.2251225   7.8630743
  55.6952858  29.8149776   7.6781502  79.7210693   0.2990687  27.1180439
  78.9355774   0.5923839  27.5797901  80.1354523   1.1064277  26.8135967
   6.7522206  59.3186035  63.6081467   6.8148847  58.3652191  63.6661415
   6.2087259  59.5688019  64.3553009  20.6938229  35.5814438  25.0415916
  20.5508442  35.9264297  25.9229393  19.9753323  35.9436569  24.5231266
  46.7111053  10.4767618   1.7056676  45.7712784  10.5590830   1.8674524
  46.8813477  11.0712757   0.9750491  65.7683411  56.0834389  47.6678314
  65.7225189  57.0361252  47.7486115  65.2794800  55.7552872  48.4225235
  62.2062683  45.4479408  38.2845116  62.0041580  44.5710144  37.9583435
  63.0146255  45.3369217  38.7849808  24.0776749  38.3881760  22.1194019
  23.3106441  38.8077545  21.7297230  23.7725868  38.0748062  22.9708424
  74.6487961  37.9124184  40.7683792  73.8295135  37.6764793  40.3332481
  75.2826462  37.9967232  40.0560913  22.9202518  45.0720062  75.5570679
  22.0619545  44.6802673  75.7186203  22.8063850  45.5738792  74.7499771
  53.8711739  55.4582367  81.9777451  53.6718559  56.3269577  81.6287155
  54.7593765  55.2750778  81.6715088  39.7139816  60.2604523  44.8018265
  38.8441505  59.8618584  44.8292160  40.2912064  59.5557671  44.5077782
  10.1548681  35.1635742  10.6943655  11.0638552  34.8951263  10.5605440
  10.2058773  36.1033669  10.8687782  83.8441162  35.3309555  28.0555058
  83.4419403  36.0124779  27.5169754  84.6418762  35.0923042  27.5834293
  59.4734726  31.6917973  60.2123375  59.9188385  32.1224632  59.4826775
  58.6823349  32.2124825  60.3509712  84.5855179  65.2461395  30.5834465
  85.0896301  65.1251602  29.7787914  84.0098724  65.9876328  30.3962440
  85.1656647  20.3236732  12.0908403  84.2508545  20.6037083  12.1214457
  85.6593781  21.1325665  11.9560328  73.1676102   5.2728171  15.6836586
  73.4730301   5.1052651  14.7921019  73.8697968   4.9416852  16.2435856
  80.0328369  21.9394073  13.2656136  80.8690720  22.3705559  13.4418325
  79.8927994  21.3700352  14.0222101  22.9223270  64.5802002  52.5959320
  23.1092796  63.8911819  53.2335358  23.1514168  65.3926773  53.0471878
  58.2234116  34.2957916  70.6485062  58.6968956  33.5017052  70.8964386
  58.1007233  34.2159996  69.7025604  11.1317797  22.2956009  86.0127487
  11.0143995  22.3684788  86.9599228  10.8692322  21.3983536  85.8071976
  59.7415657  20.1482735  47.6337929  59.8713608  19.2824974  48.0208549
  58.8073540  20.1809540  47.4278564  42.8297157  34.2561264  11.1836596
  42.4523659  33.5614395  10.6439867  42.0727234  34.7037659  11.5615625
  58.4220810  47.7810745  40.7236290  57.9717331  46.9475975  40.5867577
  58.4071960  47.9084129  41.6722031  71.8610764  18.4234848  36.4246368
  71.7417908  19.3552761  36.6084023  71.9407043  18.0174122  37.2877693
   2.3229029  25.8052254  56.1573486   2.9288375  25.5403614  55.4653053
   2.4409857  26.7523670  56.2295227   1.7966472  53.3870239   2.2703164
   0.8619173  53.5926018   2.2544796   2.2232888  54.1883278   1.9667976
   1.8728073  62.4978027  14.5353432   1.1543723  61.8656502  14.5137119
   2.1827590  62.4772301  15.4407368  17.2854271   7.3839693  13.3239117
  17.1684361   6.5696039  13.8131504  16.9358673   8.0626259  13.9013758
  43.4457474  35.9173088  19.3554840  44.3609810  36.1791878  19.2555103
  43.1408997  35.7657471  18.4608727  62.8198242  62.2593956  52.9303589
  62.5706100  63.0950851  52.5357094  63.4658127  61.8926239  52.3266945
  57.9755287  68.6382370  23.6042328  57.4606743  67.9546127  24.0329762
  57.4469414  69.4306870  23.6983013   1.3495715  59.6328430  54.9756660
   1.4395940  59.7540855  55.9208794   0.4060304  59.6681404  54.8184509
   3.2956212  54.3276558  59.3348808   3.8970001  53.9824600  59.9947395
   3.3391557  53.6957779  58.6172028   3.0132141  37.2906303  52.4500732
   3.7293651  36.7185707  52.1741943   2.3037596  37.0990295  51.8367233
  19.9126549  63.7221146  66.0969849  20.1967525  64.0742798  66.9404907
  20.7262135  63.5041695  65.6421661  61.5461655  13.5015774  36.5374756
  60.6791573  13.2123852  36.2530556  61.4331093  14.4291353  36.7450523
  70.4891586  40.2891960  27.4640865  69.7043076  40.2347260  26.9188576
  71.1316299  39.7401962  27.0145817  21.0853348  65.6493073  87.2293320
  21.0444889  66.3360596  87.8948669  20.1698685  65.4630814  87.0208282
  18.5647278   6.3139229  87.6041412  18.8450241   5.5481019  88.1053238
  17.6107368   6.3153701  87.6824493  72.8332062  60.8030014  20.0042362
  73.4865036  61.4846458  19.8467712  72.4074631  61.0633926  20.8210411
   1.2649232  38.8723564  63.1340103   1.0455701  39.6866875  63.5867577
   0.4207018  38.4470177  62.9836464  65.3717728  15.1978140  19.6025562
  64.7290649  15.9032497  19.6768093  64.9078140  14.4180326  19.9073792
  52.9369125  15.8016796  53.1734924  53.7177773  15.5369329  53.6596909
  53.2731705  16.1231098  52.3369255  25.0950394  57.6632233  81.0850220
  25.7901249  57.5048409  80.4462662  24.2866688  57.4586372  80.6150055
   8.8294878  29.0834751  14.9490309   8.4327955  28.5152836  15.6093531
   8.8641224  28.5444260  14.1588039  56.8776588   7.7522893  10.9400969
  56.2572784   8.4306250  10.6732302  57.0118752   7.2267761  10.1513929
  67.4569092  21.3729668  55.5273552  67.0455322  21.6105843  54.6963692
  68.3787689  21.6038647  55.4128990  27.6423111  21.3071613  78.9867477
  28.2552299  21.4151402  78.2594910  27.2179604  22.1609974  79.0711288
  10.0393963  30.5117550  61.1341324   9.1610374  30.8669510  61.2703400
  10.6267948  31.1949272  61.4573555  81.0109558  29.1398544  74.9985580
  81.6008224  28.3984013  75.1347275  80.2218170  28.9114761  75.4898071
  33.1612167  58.0700455  80.0862274  33.9596558  58.3306732  80.5453568
  33.4724159  57.6439018  79.2876129  24.9957027   3.8082163  81.8116608
  25.5515823   4.4176884  82.2972183  24.4097652   4.3703175  81.3047562
  68.9271240  23.2528038  87.8282547  68.8658295  24.1895294  87.6411133
  68.0176620  22.9620209  87.8956985  69.2876282   9.8023891  31.2645664
  69.5008469   8.9032087  31.5140553  69.8911667  10.3421268  31.7751141
  20.5296288  52.1700478  32.0957451  19.5911732  51.9892387  32.1490440
  20.9462566  51.3699837  32.4159775  54.4027519   5.4260054  84.6560822
  53.8747177   5.9951191  85.2160187  54.2854080   4.5508080  85.0255356
  40.4573593  31.3889027   4.7001634  41.1593399  32.0127983   4.8851295
  40.8880615  30.5341244   4.7092900  23.9270287   7.6717157   7.8698831
  23.7811184   7.5215898   6.9358573  23.0682583   7.9243479   8.2088861
  24.7395840  70.9851227  18.3796749  24.0472240  70.3241730  18.3831348
  24.2757931  71.8173370  18.2871819  53.3898201  68.3823776  76.1372299
  53.4345932  68.1287918  75.2153244  53.5516167  69.3258057  76.1342621
  66.7338638  65.6204453  31.1590023  66.3510056  65.0497894  30.4926605
  66.9451447  66.4278183  30.6902351   3.2334859  14.7459040  63.6169472
   4.0738964  14.7012863  64.0729599   2.5907311  14.8853397  64.3124008
   1.2190331  61.1610565  52.1887093   1.1337639  61.3093987  53.1304893
   2.0068078  60.6244240  52.1011276  66.9277649  58.4106750  57.3117485
  66.3603897  58.7982864  57.9781342  67.7852325  58.3503380  57.7328758
  20.2366524  43.5931435  52.3132324  20.9502964  43.2185364  51.7968864
  20.1518555  44.4899139  51.9894333   7.0678992  67.8623123  70.1185379
   6.4869032  67.1084518  70.0167084   7.8122983  67.5253754  70.6171112
  16.3396587  61.7797890  39.0124321  16.0107327  60.8866005  38.9111557
  16.1112499  62.2137871  38.1904144  39.0619011  32.2138824  60.6034737
  38.9521446  31.7063103  61.4075584  39.6814575  32.9045105  60.8388748
  49.0901451  27.3186722   0.2331912  49.2446175  27.5455818   1.1501875
  49.0488853  28.1616096  -0.2184557  22.8921642  14.0964355  80.4322433
  23.2362900  13.5967665  81.1726074  21.9523926  14.1602879  80.6024857
  68.7286682  61.3272476  76.3047256  68.3501511  60.4513626  76.2286911
  68.0253296  61.9165993  76.0323105  58.4143333   5.9208207  36.6153946
  57.5514259   5.7718267  37.0019455  58.7741127   6.6575356  37.1093979
  64.5640182  71.3070908  70.4514008  64.0237961  71.7421341  69.7917557
  63.9915161  71.2258072  71.2142029  45.0863876   4.2119193  46.1148415
  44.1806488   3.9256017  46.2326927  45.5793610   3.7249923  46.7752266
  52.8860588  60.8222618  47.8674774  53.4316444  60.9308624  48.6464348
  53.1286049  59.9627190  47.5231171  83.0779037  34.2016106  17.4007053
  83.2739716  34.3699608  18.3223610  83.3810806  33.3061180  17.2510281
  69.8102798  31.4509907  38.9952049  69.6591339  32.3949776  39.0429115
  70.4490738  31.2754879  39.6861267  84.3216934  38.6330261  28.4190826
  83.5075531  38.1667976  28.6089020  84.8294678  38.5673447  29.2278366
  74.9279480  46.9561462  19.4817390  74.8767853  46.0339317  19.7330093
  74.6890793  47.4343452  20.2757816  46.7358818  51.9227257  83.1668167
  46.8359795  52.0510139  84.1100845  45.7970581  52.0234642  83.0096893
  45.2589874  42.5032425  71.5288239  44.8627205  42.4900360  72.4000473
  46.0213966  43.0746002  71.6211090  23.0870152  46.6289749  31.4855537
  22.6644325  45.8903809  31.0472240  22.4094810  47.3040123  31.5243282
  70.4527435  16.8911495  76.2698441  70.3403778  16.5521946  75.3817444
  70.9950180  17.6724129  76.1612015  12.6875811  62.6971664   5.9653563
  11.8190527  63.0107918   5.7133060  12.5198050  62.0582809   6.6581111
  74.5291214  63.0145378  18.7978973  75.1820831  63.6933632  18.9683819
  73.8186264  63.4729195  18.3492146  81.5321808  20.1701260  43.3812141
  80.6502838  20.1212254  43.0123100  82.0797272  20.4669647  42.6543655
  77.9127426  58.3115921  59.8972015  78.3630524  58.0192604  59.1047401
  77.1463470  57.7416992  59.9612389   9.4485512   5.7554026  65.5452652
  10.3841066   5.9477024  65.6084290   9.4026613   4.8002224  65.5033569
  37.8654633  60.2977943  24.5117912  37.1415901  60.9071007  24.6566715
  38.0761833  59.9644814  25.3839912  68.5697708  20.1656551  60.7327232
  68.1850662  19.4027901  60.3011246  68.1579742  20.9161453  60.3044434
  31.7504196  40.8675842  62.3442574  31.2268219  40.7164268  63.1311684
  32.0685692  41.7655754  62.4370995  38.7265854  63.0267105  44.3046951
  39.2350159  62.2525444  44.5463448  39.2021484  63.4042015  43.5647163
  54.4543686  16.2982559   3.4039547  53.7539406  16.9463844   3.4785221
  53.9987907  15.4578772   3.3545110  41.0576782  41.4256706  46.9216080
  40.8062973  42.2739334  46.5562477  40.3935738  40.8182259  46.5957031
  28.4035549  67.0529022  32.7841110  28.1180668  66.8886871  31.8853550
  29.2959499  67.3873520  32.6946220   3.5021474   3.9269361  53.6739883
   4.3731484   3.8664486  54.0663261   3.1856117   4.7943912  53.9260979
  78.0231705  63.9735069  62.0555992  78.2851715  63.3818893  62.7609863
  78.7710495  63.9799652  61.4582138  46.4770279  61.2961273  34.2439194
  45.8661880  61.7893486  33.6963425  46.8443413  61.9484406  34.8404121
  11.1678925  39.5657730  58.0858574  11.4926825  39.6208763  57.1871300
  10.3060265  39.1573715  58.0044403  67.5409546  38.8932114  45.0342522
  66.9114761  39.4354286  45.5096359  68.0745010  39.5191231  44.5445709
  42.1547241  67.2134399  27.1236057  42.8477707  66.6414948  27.4534454
  42.5880356  67.7624893  26.4701405  72.8066864   2.3342144  65.9991684
  72.2249756   2.2165804  66.7501678  73.4022141   1.5858294  66.0379486
  77.5898361  63.3434601  83.9929962  77.2807388  63.8374748  83.2336273
  76.9008560  63.4551506  84.6480179  84.4151993  21.4991112  59.6104012
  84.8032837  20.7835960  60.1140480  83.5275116  21.1997395  59.4139061
  69.0536118  45.3929024  81.1398697  68.5666885  46.1773643  81.3923798
  68.3924942  44.7015762  81.1048203  81.2789230  25.4107304   3.3471649
  81.8937683  25.8802662   3.9108412  81.2942352  24.5109234   3.6732671
  53.7234573  26.9029636  85.1813354  54.2956047  27.6307278  84.9379349
  54.0254364  26.1707668  84.6438141  31.1822357  40.7935410  10.8648119
  31.7595329  40.8193130  11.6278944  31.4020443  39.9718285  10.4258308
   7.2940516  50.8052597  56.1794624   7.8433776  50.0290451  56.2888374
   6.3982530  50.4681091  56.1897316   4.9077096   4.0795736  26.5871887
   4.8132043   5.0048094  26.3608265   4.4091382   3.6162069  25.9141731
  20.6551647  30.6901970   9.0855331  19.7176552  30.8668613   9.0074425
  20.7150192  30.0038395   9.7500343  27.6851959  36.1431160  74.0404205
  28.1071377  36.8260078  73.5190201  28.3338318  35.9150963  74.7063828
   9.1728582  49.0909882  12.6671295   8.9643736  49.7991524  12.0578108
  10.0597181  48.8221397  12.4274778  80.6958466  64.9315414  50.5984535
  79.8244476  64.5578766  50.7298698  80.9470367  64.6499176  49.7187805
  61.9415207  48.2368355  29.8173389  62.5045013  48.7361374  29.2257462
  62.5459442  47.6872787  30.3162327   6.1913795  67.7544785  83.2475510
   5.9866710  67.5260544  82.3408203   5.7185416  67.1068649  83.7702866
   7.7821193  45.8705215  64.1920395   6.8936987  46.0255051  64.5128479
   7.7734632  44.9613914  63.8926353  18.4469223  63.7653961  47.4621506
  18.4802380  64.7018204  47.6576729  17.5728168  63.6278877  47.0971031
  55.5206032  50.5213394  88.4205856  56.4588089  50.3380318  88.3715897
  55.1275215  49.9323006  87.7765732   8.2345285  37.1062584  78.7595596
   7.8033195  36.5010262  79.3628693   8.7793703  37.6571426  79.3216171
  16.3611221   7.5018644  29.6884346  16.0128937   7.3834829  30.5721512
  16.2139969   6.6595569  29.2581978  73.1146088  71.5539474  26.0122128
  72.2661667  71.9804459  25.8918781  72.9094391  70.7360840  26.4652462
  44.1242104   0.5049367  79.8993149  43.5605469  -0.1129806  80.3648148
  44.2442894   0.1143368  79.0337296  13.3598776  11.3833075  73.4272308
  14.0551929  11.5519066  74.0631104  13.7236519  10.7154236  72.8460007
   9.6952353  38.2374306  76.8935318   8.8744574  38.4546967  76.4515457
   9.4333277  37.6739044  77.6215973  15.3990688  46.8130913  74.7078247
  15.0592318  47.5478821  75.2185364  14.8330345  46.0772400  74.9409866
  61.1893730  35.7117653   4.2533975  60.7937851  36.5645943   4.4334617
  60.5799141  35.2878113   3.6492014  70.8437347  45.9343262  69.3660049
  70.9906387  45.1555595  69.9028244  71.4262848  46.5958405  69.7391815
  10.2681570  32.9842873  52.2515297  10.1327772  32.4209061  51.4896240
   9.4115791  33.0215111  52.6771126  47.2535820  62.3914604  62.6278915
  48.0252647  62.7360268  63.0773506  46.7020454  63.1589737  62.4763565
  44.8349686  48.0433769  47.8312187  45.6210480  47.9814949  47.2885513
  44.1476784  47.6352196  47.3046570  83.5139923  12.5423393  63.8331795
  83.3569107  11.5984974  63.8063736  83.1839600  12.8639956  62.9942245
   8.4828453   0.9280729  52.8244324   9.3143444   1.3536793  52.6153870
   8.2319574   0.4822035  52.0154266  13.6664705   2.2117190  16.7624016
  13.5890093   3.1634245  16.6954060  14.2543592   2.0709181  17.5045567
  22.0561790  41.5195999  19.7210255  22.4153442  41.4265709  18.8386555
  21.7222614  42.4161873  19.7504025  40.3045959  54.3968239  59.3341141
  40.2943726  53.7432289  58.6348724  39.7054977  55.0796928  59.0324516
  67.9869003   2.4001987  88.3039932  68.0727310   1.4637268  88.1254272
  67.0446548   2.5651858  88.2697296  66.3105164  35.1696396  45.8004570
  65.9534683  35.4895172  44.9719467  67.2304306  34.9861259  45.6098824
  81.9000168  42.6051064  53.8477249  82.4741669  42.4552040  53.0966492
  82.4760590  42.5293884  54.6084290  31.3985977   4.6257911  81.6698685
  31.6808033   5.5197387  81.8633881  30.5932026   4.7331238  81.1638565
  25.3809204  27.1755829  87.5878220  24.4970303  27.5344009  87.5089493
  25.7199745  27.1750965  86.6926804  62.5604248  67.8328094  36.2653580
  63.3124542  68.2193527  35.8167343  62.3450584  68.4599228  36.9557037
  62.2725296  14.6047096  66.1420135  61.4052582  14.9944267  66.0316010
  62.3466721  13.9776258  65.4226379   6.7527018  66.5631561  16.9267387
   5.8923564  66.7116318  17.3191566   7.3481059  67.1074905  17.4419346
  20.7576256  55.8337631   1.9827020  20.7375736  56.3442612   1.1732442
  20.4899673  54.9538116   1.7176037  84.1134415  22.2660942  77.2306747
  84.4786072  21.6053772  76.6421738  84.4065552  21.9990768  78.1018982
  19.1538868  51.9207001  67.3679657  18.6351738  52.7110786  67.2180710
  18.5479183  51.2001724  67.1951294  67.5650711  68.7396164  26.8091431
  68.3903809  69.2147522  26.7124596  67.7289047  67.8894577  26.4009476
  40.0294113   7.7124958  67.1599350  40.2210312   7.7500877  66.2228699
  39.1013222   7.4827204  67.2055969  28.8136978  52.9958649  55.9283981
  29.6350517  52.6040459  55.6316032  29.0758457  53.6132050  56.6113358
  38.9617157  68.8096161  67.5476685  39.7891350  68.9581528  68.0054321
  38.7371063  67.9008942  67.7477036  50.1997070  52.8062592  87.4393311
  50.5291862  53.6152763  87.0479660  50.9595642  52.4270782  87.8810043
  64.6339493  33.9148636  22.1303635  65.4370041  33.8072205  21.6207104
  64.2519455  33.0378189  22.1635246  32.2844086  47.8673401  21.8049431
  31.7916164  47.0611610  21.9581223  33.1209030  47.5720673  21.4453297
  60.1132660  16.4504375  65.3907318  59.4747810  16.1341171  64.7515869
  59.5980339  16.6228485  66.1787949  75.6775513   5.3157306  59.3692818
  76.4831696   5.5316119  58.8995934  75.7315521   5.8193402  60.1814957
  36.0280952  63.3204193  45.0299263  36.9550095  63.1054573  44.9257278
  35.6528244  63.1909752  44.1589203  51.1481171  41.4633904  47.6258392
  51.7886429  40.7521896  47.6135788  50.3340073  41.0476456  47.9097557
  79.7280273  26.5928841  51.6214600  80.2501526  26.7215099  50.8295784
  78.8339081  26.4720249  51.3018150  46.9160385  53.3524437  17.4563465
  46.4014778  53.9171791  18.0330029  46.3626480  53.2298775  16.6850052
  72.9395752  58.9151306  82.7979431  72.2122269  59.3942490  83.1949768
  73.4087830  58.5339355  83.5400772  83.4364777  39.3613510  34.4300156
  83.1115417  39.0514984  35.2753830  84.3739471  39.1689186  34.4486237
  64.7132645  21.3208847  28.6849937  64.0286102  21.9793358  28.5670052
  65.2598190  21.6673927  29.3902874  84.3367691   4.0984397  72.5240402
  83.9998474   3.6283414  73.2867508  84.1811523   5.0215640  72.7236786
  50.6794319  68.2734985   3.0692422  50.1641808  67.8977890   2.3553872
  50.4944344  67.7099609   3.8205276  68.2336502  41.3647461   4.2986336
  68.6757050  40.5176468   4.3555694  68.7449799  41.8591690   3.6580715
  17.3406582  28.5461864  78.2723465  17.6279945  29.4104881  78.5667114
  17.4105530  27.9927673  79.0502090  35.4153709  56.3784294  82.9543381
  35.2955208  56.0727844  83.8534775  35.4072113  57.3331451  83.0228043
  40.6053276  37.7704849  88.4973145  39.9277687  37.1032295  88.3881531
  41.2878609  37.5230560  87.8734818  13.6359320   7.8526058   1.6112243
  13.0193796   8.5513124   1.8300937  14.4951267   8.2735167   1.6403971
  60.4841537   1.9279686  14.4813843  60.8734398   1.6616371  15.3143034
  60.6826935   2.8617728  14.4119320  51.9060173  62.1094742  17.8339214
  52.8025131  61.7776680  17.8832703  51.6546440  61.9851265  16.9187260
  40.6115608   7.4507012  64.4880524  41.1824417   6.6837869  64.4414597
  41.1694717   8.1811724  64.2208786  41.5545654   0.3706920  74.4130325
  41.2753410   0.2699198  73.5030289  42.0608482  -0.4204968  74.5972366
  24.2414894   8.5513544  82.4307327  23.7133350   8.0240993  83.0301437
  25.1189842   8.5417814  82.8130188  50.2473373  17.7055817   7.3074517
  50.0287056  17.2379246   8.1135092  50.0594788  18.6232529   7.5044889
  64.9521179  68.3792953   3.6382546  65.8096390  68.0177383   3.8622491
  65.1120224  68.9085541   2.8568807  62.7643166  41.7472191  73.7626038
  63.3413086  42.2719383  74.3175659  62.1586227  41.3290749  74.3745804
  13.8474684  67.1942291  47.1195869  14.0578547  66.2845993  47.3306465
  12.8932877  67.2082520  47.0449371  64.7900009  42.2588081  11.6387281
  65.2505646  43.0906372  11.5284138  65.4486313  41.6666756  12.0017843
   9.2818241  33.0361557  87.2400589   9.9509544  32.8300171  87.8927536
   8.6974134  32.2781181  87.2485275  62.3725815  17.0171261   8.0829439
  62.3994102  17.7685223   8.6753263  61.8308907  17.3093090   7.3498478
   0.6439753  58.3296204  29.5995407  -0.0823995  58.4512444  30.2109489
   1.1492571  59.1400604  29.6636448  72.7607346   4.6693230  84.1644135
  73.2667160   4.1353049  83.5520096  72.1652451   4.0501828  84.5866623
  59.4708443   4.3546572  80.5439835  58.5663567   4.5467238  80.7914505
  59.9349899   5.1819654  80.6718979  78.3860092  38.0656471  46.5436745
  79.3058167  38.2147293  46.3246765  78.0032730  38.9422569  46.5797729
  45.0017052  58.2481728  14.2544756  45.3147011  58.2317352  13.3500443
  44.0512886  58.3319550  14.1775284  58.0862389  68.4619827  49.0535812
  57.3394089  67.8829727  48.9011955  58.4310455  68.1893921  49.9038963
  13.7569723  53.0280952  49.0123138  14.2099056  52.2702789  49.3821716
  14.2954159  53.2875404  48.2646484  18.8640347  16.4568977  56.7164574
  19.6147728  16.6790752  56.1657639  18.2918015  17.2222443  56.6614456
   0.6334859  55.3411255  57.2542305   0.5732573  54.4322586  56.9600029
   1.5598295  55.5627213  57.1592903  40.1334686  52.5595970   9.5043879
  40.1548691  51.7109184   9.9465647  39.2243156  52.8482819   9.5839891
  73.9742966   9.7574215  46.7356949  74.6286392  10.1043711  46.1293144
  74.1202087   8.8114262  46.7299652  73.4096222  24.1546516  50.2389717
  73.0464630  23.4123325  50.7219925  74.3579330  24.0494423  50.3156281
  28.3006763  11.1733055  14.0292768  28.7630196  10.3717995  13.7842064
  28.5685749  11.8150043  13.3714905   6.6544185  65.8672638  51.4430351
   7.4598098  66.2290421  51.0733147   5.9731598  66.4893341  51.1877937
  51.5981026   9.5750980  12.0923109  52.0638351   9.8967123  11.3203716
  52.0389938   9.9956703  12.8305292  39.0494499  39.1462402  66.3726501
  39.0753136  39.2853355  65.4259644  38.4127388  38.4418793  66.4939346
  67.5692978   3.6646667  41.2110519  67.9141006   4.2934608  41.8450546
  66.6842728   3.9762881  41.0217094  76.5335770   6.6068101  61.6426048
  77.4071960   6.8947759  61.3778381  76.4473343   6.9048758  62.5481186
  45.4622650  38.4367218  70.7197037  46.3339653  38.8112793  70.5929108
  45.1412354  38.2716675  69.8331757  13.6587877  30.2639656  18.4670448
  12.7207813  30.2151127  18.6514072  14.0772343  29.9553967  19.2707367
  42.0149765  43.4137497  27.3607807  41.9912262  43.6834984  26.4426823
  41.1096077  43.5000267  27.6592636  72.8458557   4.2607594  23.7109604
  73.6104202   4.0880823  23.1615467  73.1683197   4.1649251  24.6071014
  79.4644318  64.8065186   5.5323997  79.1325150  65.6682587   5.7843342
  79.8226318  64.9352112   4.6541243  28.8350983   7.0127015  31.1107464
  28.0402355   6.8094530  31.6038151  28.7625523   7.9466076  30.9137974
  34.7317886  63.4149971  27.8207474  34.3270035  63.2962608  26.9615154
  35.1420975  62.5713501  28.0108509  66.1771927  16.2058754  61.4881058
  65.8092880  17.0894413  61.5018730  65.7987518  15.7768688  62.2555466
  74.9139862  70.3290710  73.1643829  75.3563232  70.7531738  72.4290619
  75.0546036  69.3931808  73.0209656  62.8213234   5.7281246  35.3769951
  63.7311935   5.9567647  35.1870117  62.7500420   5.7999611  36.3288307
  38.7632446  51.3049622  22.5407467  38.4499855  50.4474106  22.8283234
  38.9744949  51.7671585  23.3519077  63.8547325   0.1715945  37.2717781
  63.7836075  -0.6196235  36.7377853  64.4299850   0.7486511  36.7694588
   5.1728063  52.8080978  27.9502697   4.3836331  52.4542046  27.5401535
   5.0149827  52.7186928  28.8901272  51.2985725  53.4197731  36.8253174
  51.8113136  52.9388351  36.1756821  51.6470108  53.1293793  37.6682243
  45.9498367  50.2905464  28.3484192  45.9790840  50.8935432  27.6056061
  46.7241287  50.5107613  28.8663101  13.6448879  57.7984619  87.3078537
  13.8672810  57.9653206  88.2237854  13.0782614  57.0274887  87.3355789
  17.6218567  59.5629654  83.1393204  18.4314423  59.9407043  82.7956390
  17.6896172  59.6736717  84.0876770  27.1466045  48.8145866  11.6109314
  26.6904926  47.9970932  11.8106747  27.2333927  48.8136902  10.6576738
  51.1203156  16.8881130  84.0699005  50.2214928  16.5714760  83.9799500
  51.0742683  17.8123760  83.8252563  27.6283493   1.1813123  12.2814159
  28.0048676   0.8688799  13.1041260  28.3831577   1.4613490  11.7636557
  11.3073654  30.2709961  74.7661819  11.2395563  31.0651760  75.2961960
  11.9422350  30.4914131  74.0845795  68.8538513   3.5021558  70.4112015
  67.9300232   3.3345623  70.2249680  69.0786133   4.2485285  69.8556519
  78.5991287   1.2340646  74.7194824  78.1218491   2.0192795  74.9875870
  79.4111938   1.5663223  74.3368912  31.3127785   8.1263189   5.7753901
  31.7448521   8.7910814   5.2390728  31.0745544   7.4365406   5.1559653
  33.8766785  55.7458267  53.5851822  34.4870491  55.7228203  54.3221703
  34.3097649  56.2961121  52.9326057  57.6271591  64.1313477  58.0095749
  56.6864128  64.1770477  57.8388672  57.8926086  63.2799911  57.6617889
  68.9820938  37.0092506  79.6767731  68.9126282  36.7932777  78.7468491
  69.8655777  37.3642998  79.7748566  67.6559448  55.8111153   4.6468191
  68.5751724  55.9403267   4.4132490  67.1841049  56.4679070   4.1347446
  21.3242989   4.8428936  73.3510818  20.5840282   4.2556429  73.1982193
  21.1599083   5.5902162  72.7760086  20.7944698  63.3086014  46.0437889
  20.3005257  62.7501907  45.4434357  20.2379875  63.3773537  46.8195686
  82.9996948  18.3569508  37.5540047  83.4155273  17.5093861  37.7119751
  82.5962143  18.2685490  36.6905098  63.3234520  33.5574493  58.6161270
  63.5221825  32.8327332  58.0232315  63.9380226  34.2472305  58.3656578
  79.5041885  49.8740387  56.6610947  79.4849472  50.7474289  56.2698784
  78.8888474  49.9255981  57.3924828  78.3502426  60.4210548  52.8767090
  78.1833801  61.0253105  52.1533394  78.4692917  59.5699387  52.4552116
  42.9705162  59.8365021  44.8510361  42.9310532  59.4202881  43.9899673
  43.7978325  60.3179207  44.8466682  76.8561325  65.7507935  77.2264328
  75.9020386  65.7652817  77.3021469  77.1519089  66.4668121  77.7886200
  70.1307144  17.0212345  81.7505798  70.4604187  17.1315117  82.6424179
  70.9177017  16.9218597  81.2148590  31.7012081  16.5621967  75.4017029
  30.9813862  15.9770536  75.6376953  32.4768715  16.0013351  75.4054947
  55.3320580  41.7174492  88.0137482  54.5302963  41.4868774  87.5444489
  55.1035728  42.5066376  88.5048752  86.1291428  18.6782837  34.7021484
  85.3657837  18.5565052  35.2666702  86.2122498  19.6277142  34.6132317
  71.0504532  43.7008057  57.8337631  71.8564377  43.2074852  57.6812820
  70.6919098  43.3304672  58.6403198  21.4298630  23.9991283  15.8418360
  20.5206051  24.2056942  16.0581951  21.8556938  23.8752022  16.6900940
  43.4551544  69.1098938  59.2014046  43.6303139  68.7072601  58.3508568
  43.7206306  70.0231705  59.0932884  46.6960716  18.4442883  54.7088089
  47.3087540  17.7090778  54.6909714  46.7266350  18.8031044  53.8219337
  79.3254318  16.6067924  27.0759354  79.9101028  15.9596825  27.4704456
  79.5433350  16.5898151  26.1440239  81.2409515  22.9426994  24.7550755
  80.8750381  22.3237152  25.3868961  82.0611954  23.2343884  25.1530170
  29.4848423  33.9567413  58.8371124  29.5256634  34.4670410  58.0283127
  29.6464615  33.0549698  58.5597725  37.4249496  17.0410194   1.0701149
  37.6504860  16.1717205   1.4013036  36.7639847  17.3661480   1.6813790
  80.9140930   0.5126605  16.1554394  80.2734375  -0.1281387  15.8469448
  80.6304398   0.7260591  17.0443916  18.3524895  41.7737846  15.1141281
  18.2142830  42.6937561  15.3394690  19.2908554  41.7090263  14.9366274
  38.8560257   4.5352936  78.0813904  38.7756500   5.0181289  78.9039688
  38.8205719   5.2098980  77.4032364  79.4764786  29.6727352  49.3625717
  79.1229935  30.4904957  49.7126389  78.7278671  29.0765114  49.3445206
  72.5297623  53.8172989  57.2598419  73.0860062  53.2245750  57.7653122
  72.5538788  54.6414261  57.7461205  58.5108910   2.3803520  67.8221283
  58.2329178   1.5344774  67.4707565  59.3223228   2.1893156  68.2925644
   7.9433923  64.3984222  88.0390167   7.2849197  63.7737274  88.3429947
   8.6726322  64.2941589  88.6502228  40.7508812   7.0366559   8.9747782
  40.8870964   6.3354888   8.3375635  41.5604935   7.5465264   8.9465847
  47.0107307  47.5075684  58.8663254  47.4271622  48.3141365  59.1700783
  47.2702141  47.4352684  57.9478073  77.9951172  46.5080414  54.4001312
  78.5187378  46.1604691  55.1221046  77.2715607  45.8880653  54.3088837
  55.1732292  10.6394205  14.7329760  55.7451820  10.4158974  15.4672365
  55.1385117  11.5959721  14.7389803  12.8187790   0.1031059  28.7545528
  12.8256989   1.0467235  28.5940228  12.1053448  -0.2274832  28.2087021
  71.5217972   1.0533134  74.6124039  71.9560242   1.4111228  73.8380280
  70.7449417   0.6120050  74.2689285  75.7726746  61.7586555  67.7873535
  75.3571930  62.1881676  67.0396042  76.6946259  61.6865616  67.5402756
   4.9371014  23.4647083  24.0028744   5.5652199  24.0000973  24.4877014
   4.1394534  23.9933376  23.9796371  31.5900517  15.8072481  68.1816101
  32.4573174  15.9413319  67.7993774  31.0562382  15.4827213  67.4563828
  11.9133348  18.3235092  58.6064568  12.7151766  18.3171272  59.1291809
  12.1440287  17.8483448  57.8081894  61.4285469   7.1553416   5.6477695
  61.5434341   6.9162331   6.5674758  60.5701599   7.5776682   5.6155181
  63.6173134  58.9457130  56.9296379  64.0592957  58.9561462  57.7786217
  64.0477066  59.6373634  56.4270325  39.6102600  56.5073433  72.7423935
  39.8324280  56.7623291  71.8469315  39.5575867  55.5520363  72.7133255
  78.9064255  54.4404640   1.9935915  78.8250198  53.8650665   1.2329848
  78.0372009  54.4321022   2.3943629  55.0133972  13.7068672  14.8954210
  54.2271843  14.1018457  15.2723751  55.5666428  14.4518385  14.6605453
  37.1345558  35.1273918   8.1467075  36.7959023  34.6539497   7.3868413
  37.5428963  34.4514275   8.6875992  14.3209190  63.2871056  20.5759029
  14.5424852  62.5674896  19.9848938  14.6744051  64.0665588  20.1472645
  14.9560938  61.0833588  27.8834553  14.1191969  61.5334091  27.7681732
  14.9409704  60.3796539  27.2347622  55.2175636  20.3418255  25.9204693
  56.1186295  20.3946304  26.2391014  54.6794815  20.4926395  26.6976147
  69.7036819  59.1874695  46.4254875  69.3484497  59.6577911  47.1797028
  70.4033508  59.7529182  46.0984459  84.5502090  46.6806450  77.6847610
  83.8710709  47.0968513  77.1539383  85.0401459  46.1395416  77.0655670
  48.9463806  59.7312279  32.0308075  48.2500229  59.0791245  32.1087570
  49.3636360  59.5369072  31.1915417  52.8159218   4.4986959  69.2977753
  52.7593536   4.5495524  70.2519455  53.4259453   3.7799356  69.1319809
   2.4879670  12.7029018  89.1778107   3.1538732  12.2604380  88.6514816
   1.6794959  12.6019411  88.6754074  55.3170586  37.7478752  76.9525986
  55.3231316  37.2194710  76.1544876  54.8115654  37.2298470  77.5789795
  53.9032135  49.6593094  18.4925957  54.3823891  50.4216843  18.8172626
  53.7736855  49.8367538  17.5609493  59.4533310  66.0381470  26.4915218
  59.9309540  65.4456253  25.9109802  60.1354942  66.5552368  26.9198933
  77.9319916  24.8533306  73.4389801  77.5414658  25.5987625  73.8951035
  78.7518158  24.6899548  73.9052734  16.8985004   3.7931457  74.1326141
  17.4796658   3.1835098  74.5873871  16.3652496   3.2370994  73.5645599
  66.7523880  55.2207146  73.5450516  66.6670990  56.0257950  73.0343628
  67.6967239  55.0951576  73.6383209  37.1662750  52.8015862  51.5808983
  37.7372780  53.1895485  50.9178200  37.5237236  53.1086006  52.4140892
   9.4215174  30.4284077  53.3736954  10.0261698  30.8721924  53.9684067
   8.8575735  29.9104462  53.9480782  67.1041870  43.4384270  57.2831917
  67.9651184  43.1807442  56.9536057  67.0407944  43.0188942  58.1412163
  63.0490227  54.4872971  73.4682465  63.4443741  55.3578072  73.5145111
  62.5631638  54.4009933  74.2884445  68.2262497  25.3620090  12.6650352
  67.9856720  26.2883644  12.6799870  69.0602951  25.3235683  13.1331310
  66.7666473  54.6576385  58.6276321  65.9189529  54.2130623  58.6304283
  67.0677414  54.5935059  57.7212906  15.2837648  21.2802906  74.3829498
  15.7203207  22.1241341  74.2664108  14.4009790  21.5058193  74.6763077
  63.2914200  71.8882599  75.7230225  63.9191246  71.1843567  75.5595245
  62.5265617  71.4462891  76.0916443  37.9960175  43.6198997   5.2631440
  38.6661911  44.1788940   4.8699160  37.5428581  43.2279358   4.5166578
   9.1141911  12.2241554  56.8018112   9.9098196  12.2285194  57.3339653
   8.9663935  13.1445513  56.5844193  14.5908127  11.1562605  13.0511179
  13.9360704  11.7797270  12.7367392  14.9257650  11.5472059  13.8580875
  17.7844181  31.5734673  72.8237839  17.6501961  30.9289608  73.5186462
  18.7350388  31.6701202  72.7671204  76.2779770  54.1256981  46.5349503
  75.5552368  53.5555801  46.2725716  75.8641205  54.8110085  47.0596428
  12.2272177  22.2311935  17.1133347  11.2780228  22.3204098  17.1987801
  12.5510006  22.2436771  18.0140247   0.7561422  15.9196329   4.3833852
   0.5186605  15.2305431   3.7629097  -0.0633211  16.3858662   4.5487289
   7.8631134  15.0384130  70.4478455   8.7839222  15.2840281  70.3583145
   7.7070384  15.0343733  71.3922272  52.3268433  46.8620987  45.6787529
  53.0498543  46.5797005  46.2388725  51.9317245  46.0472679  45.3686523
  74.0616531  43.0886154  46.9863892  73.2476730  43.5902214  47.0317879
  73.7815399  42.1739464  47.0202789  45.9899063  36.9974213  53.9093971
  46.4528885  36.1673698  54.0229301  46.3578072  37.3691750  53.1077232
  48.9539452  10.7027788   4.4385214  49.5423927  11.2132015   3.8822544
  48.1916656  11.2681551   4.5630679  55.3451424  31.9076347  70.6745300
  55.8313637  32.5941353  71.1311951  55.9550171  31.5821495  70.0124588
  40.4874725  18.8310318  88.4763870  40.3668747  18.5145397  87.5811081
  41.4051132  19.1008358  88.5134735  24.3508549  50.6164703  15.4182196
  24.2495651  51.4847488  15.0282602  23.7225018  50.0681267  14.9484053
   1.8622169  40.2352562  44.4970779   1.1406912  39.9713097  43.9261436
   1.8678434  41.1912575  44.4495583  53.6614380  24.2481861  77.0513687
  52.8475647  24.7520142  77.0504074  53.5393753  23.5946560  76.3627243
  26.7891655   4.3291574  18.2905865  25.9929600   4.3388400  17.7593670
  26.5043411   3.9999268  19.1430607  75.1399307  16.4698009  30.6295090
  74.8123550  17.2492695  30.1807823  74.6072540  15.7532244  30.2845421
  72.9617996  13.8621817  16.9569473  72.3273392  13.2865067  17.3839035
  73.7244949  13.3049393  16.8020077  68.9342117  51.3236465  78.2706909
  69.8629227  51.4471817  78.4668045  68.8298569  50.3753128  78.1931992
  56.9853439  52.0260620   8.6933270  57.5386124  51.5191498   9.2876024
  57.4448509  51.9960785   7.8541689  62.2050171  64.8799744  52.0388870
  62.4011192  65.2021255  51.1591187  62.8129311  65.3521271  52.6078758
   2.3065281  64.1556015  52.8849525   1.8469373  64.6320267  53.5763550
   1.7244518  64.2125473  52.1272087  63.4215775  46.0018845  27.0207214
  63.4893379  46.1355972  26.0753326  62.5382118  46.2969856  27.2416515
  75.6713333  18.7467403  35.9494476  75.9341354  19.4474792  35.3526802
  74.7488098  18.5923729  35.7460938  83.7291489   7.6027951  22.8826656
  84.6148834   7.8005056  23.1869869  83.8486176   6.9133434  22.2295074
  58.0620117  12.2499094  75.4090881  58.4668312  11.3931513  75.5444336
  57.1264038  12.0631838  75.3316040  45.9139404  25.8860435  59.7332153
  45.0171471  25.8798504  60.0678101  46.4380989  26.2244091  60.4591599
  29.5310669  44.7503700   6.0833669  30.0240955  45.0372162   5.3146844
  30.0729465  44.0643272   6.4731679  82.5039597  29.7882519  60.1687698
  82.2322693  29.5334034  59.2870293  82.5158539  30.7451649  60.1485367
   1.5575517  37.8746033  86.7601471   1.5057970  37.7921867  87.7123871
   2.4897587  37.7847710  86.5622787   4.1411815  40.1606560  83.7781754
   3.6320376  40.6784058  83.1545258   4.5723481  40.8104515  84.3332367
  35.1018105  63.7572403  39.9259186  34.7997742  64.4099579  39.2942848
  36.0398178  63.9260178  40.0147552   9.5570221  48.1971588  28.0124073
  10.0205069  48.1894417  27.1749382   8.6336117  48.1098709  27.7759190
  64.0932007  34.0664177  12.3779669  64.9216461  33.5875092  12.3544817
  64.0402908  34.4098701  13.2698603  23.5388737  57.2365112  77.3136215
  22.8408737  56.6739464  76.9781418  23.5536499  57.9829407  76.7145691
  86.6769257  16.5119190  80.5652542  87.2426605  16.6084995  79.7991943
  85.8291855  16.8541603  80.2816162  49.0661087  64.1626129  51.5241318
  48.1098785  64.1354065  51.4906464  49.3195419  64.6480484  50.7390442
   3.5341613  23.7348099  83.0271378   3.2677202  24.4491291  82.4483566
   3.1461902  22.9521141  82.6358643  80.5357895   2.8853514  27.0036449
  80.5752563   3.7746637  26.6517944  80.4961090   3.0047398  27.9525394
  25.3764763  35.1493568  61.6438026  25.5903549  34.2173386  61.6010132
  24.9022179  35.2486076  62.4693069   2.5752325   9.9057789  59.4386597
   2.7601912  10.8033037  59.1621246   3.0750089   9.7966204  60.2476959
  72.9360580   2.5402486  36.5616188  72.0346451   2.5554140  36.8832664
  73.0435257   1.6641394  36.1913261   6.4588065  70.3271484  82.2333145
   5.6930141  70.8369598  82.4976807   6.1829209  69.4152222  82.3255310
  83.2691345  26.4852715   4.9312472  84.0079269  26.3683929   4.3339539
  83.6558838  26.8686886   5.7184238  39.6713219  71.0110474   0.3707482
  38.7803154  71.3055344   0.1820291  40.2316513  71.6178207  -0.1130769
  69.8646774  50.8788567  34.7550201  70.1483002  50.9379768  33.8427200
  69.9881287  51.7623825  35.1019592  10.7316799  59.4302139  69.1383057
  10.5619440  59.7917976  68.2684326  10.0435305  58.7769661  69.2646027
  27.0616207  59.9213066  10.6270847  27.9438667  59.6612282  10.3620729
  27.1380062  60.8532028  10.8319311  83.6325989  59.5620308  88.1005096
  84.5500412  59.3072319  88.0024490  83.3804474  59.8865738  87.2360306
  27.1480179  65.5842667  30.6333599  26.2088108  65.7688446  30.6405544
  27.2143173  64.6689453  30.9054222  65.3662567  31.2939625   1.0777729
  66.1681442  31.3274708   0.5561574  65.4509277  30.4936848   1.5960556
  62.6142883  60.7293854  31.4711876  62.1679764  59.9447136  31.7895145
  61.9065628  61.3373985  31.2574615  72.0411987  27.2680912  82.2240753
  71.7748184  26.3615475  82.3772125  72.6460724  27.4641132  82.9395752
  25.3366756  51.9504242  17.9413738  25.2176933  52.5482979  17.2033882
  24.9733219  51.1188545  17.6369190  58.6809540  14.3218956   2.3378685
  58.3717308  14.2159262   1.4382108  59.6344147  14.3567858   2.2608743
  86.6343307  52.9758072  68.6219940  86.2708282  53.6203270  68.0147934
  86.4735794  52.1318398  68.1999664  14.0649385   9.3662052   5.0498791
  13.9679785   9.8956871   5.8413839  13.2180147   8.9322424   4.9467807
  32.5576477  29.7027969  70.7760010  31.9500294  29.4644127  71.4761505
  33.3189011  30.0622101  71.2315826  21.8209534  31.3084297  68.8256760
  21.0030823  31.6442051  69.1925201  21.7094536  30.3577518  68.8222961
  14.0638275   5.7250443   4.4018106  13.7450180   6.5231490   3.9803588
  14.8198843   6.0106363   4.9146919  77.0510864  19.2628593  62.1188622
  76.1640091  19.4656773  61.8218842  77.3043137  20.0178165  62.6500359
  27.1952686  60.0120049  84.7936325  27.8510571  59.6109619  85.3640137
  27.3763371  60.9506035  84.8434448  86.0780716   8.5621061  23.6016693
  86.3989105   9.2231636  22.9882393  86.8382568   8.0066919  23.7744675
  10.7563705  47.4334602  22.1782303   9.8445110  47.2204018  22.3765984
  10.9317560  46.9874344  21.3496590  62.7348709  38.0132408  29.8631306
  62.8281517  37.2900887  29.2429810  62.2333145  38.6745110  29.3862705
  43.8470383   0.9535974  63.3853951  44.3657875   0.6415488  62.6439400
  43.0411072   0.4385528  63.3474998  86.0295181  24.0689774  69.2547302
  86.3044510  23.7520924  70.1150970  85.1971588  24.5126610  69.4176559
   5.7279725  69.1801910  24.7884865   4.9387641  69.3965988  25.2850227
   5.5380073  69.4730301  23.8971996  18.4588680  59.6948738  64.1090164
  18.1226578  60.1740875  63.3516846  18.3460941  60.2981758  64.8435516
  57.4333916  65.2426376  55.0605049  56.8637657  64.6773605  55.5822525
  57.3770790  64.8865280  54.1737976  77.9502335  31.5212669  30.5883503
  77.7706604  31.0700016  29.7635193  77.3501205  31.1196404  31.2166748
  48.9953308  35.7148895  43.8166656  48.3890915  35.5027695  44.5263939
  48.5160751  35.4936867  43.0181580  37.3074799  60.7791710  21.8363094
  37.5803032  60.3181381  22.6295624  36.4507408  61.1457748  22.0550213
  86.3620834  55.3548927  66.8612747  87.0478592  55.5720253  66.2297668
  85.7491608  56.0883904  66.8109131  69.0384979  57.0079193  43.1077423
  68.3661041  56.3272705  43.1368370  68.7555161  57.6520348  43.7567940
  29.6427822  52.5991135  82.1502380  29.5157776  51.8078537  82.6736984
  28.7935181  52.7508354  81.7355499  50.9187698  42.2728996  81.0337219
  50.1424484  42.7346878  81.3504333  51.0692673  42.6297836  80.1583862
  82.9499588  48.8409958   1.3896921  82.1602707  48.3217697   1.2379453
  83.3600845  48.4355240   2.1536441  29.5229664  69.7616653  68.1222076
  30.4717598  69.7407532  67.9973602  29.1632481  69.5577927  67.2589111
  82.5355606  55.8827744   2.7784765  83.0386505  56.6771126   2.9578164
  82.6653061  55.7230377   1.8436593  17.0390110  70.5793152  52.7772522
  16.1353683  70.7321091  53.0535088  17.5488396  71.2358017  53.2519379
  14.9679747  17.2771072  58.4808121  15.0553036  17.3274574  59.4326897
  15.8689194  17.2471714  58.1588860  74.4365082  40.0213394   6.0456882
  74.5107651  39.3312073   5.3865738  73.5810242  40.4181633   5.8816347
  40.4558716  13.8437729  78.1230621  39.5452385  13.7539139  78.4039612
  40.4706573  13.4791050  77.2381744  41.2690315  18.3811531  60.1930008
  41.3436699  18.5984364  61.1222191  40.6241035  19.0014191  59.8530388
  56.2266769   9.2858696   3.0005531  57.1838608   9.2910137   3.0014164
  55.9864578   9.5649986   2.1170294  36.7445679  70.7084808   9.2087841
  37.6625061  70.6459351   9.4728155  36.7631874  70.6232834   8.2555656
  83.3684998  55.6733055  31.2500229  83.0000076  54.7960548  31.3543167
  84.0302505  55.5752831  30.5653992  59.9289284  50.5340652  20.4516315
  60.7488594  50.7065506  20.9144459  59.6506310  51.3914909  20.1297531
  64.2236710  17.5771217  42.1468620  63.3822365  17.9408779  42.4223671
  64.2427902  17.7089882  41.1989822  79.9935608  39.3963089  13.9838114
  79.6698074  39.6213226  13.1115808  80.8494415  38.9977684  13.8261557
  83.8274689  31.1712036  43.1016731  83.4955978  30.2734394  43.0911980
  84.7796860  31.0747375  43.0872231  85.4375916  67.9396667  14.1986952
  85.7790985  67.0710373  14.4110489  86.1778183  68.3971329  13.7999096
  79.1877136  52.0584488  70.4521484  79.9275665  52.1871796  69.8586197
  79.5412827  51.5240593  71.1632385   9.7240505  43.4792442  81.5845871
   9.1615877  43.0805321  80.9205856  10.5834427  43.0834694  81.4395294
  73.1565475   2.1606789   0.2315217  73.1349792   1.6363654  -0.5690169
  73.4089508   1.5416112   0.9165630  60.7352104  31.9091358  21.1524792
  61.1628685  31.4418030  21.8700714  61.0454674  32.8108597  21.2353363
  68.9512024  20.0734997  82.7192764  69.0252457  20.5038643  83.5710602
  69.7958603  19.6405411  82.5954514  23.8026028  51.1090736  61.2167511
  23.1030693  51.7601738  61.2711182  24.4572163  51.4075470  61.8481178
  11.8962717  43.6357307  74.2281036  11.2919006  42.9489708  73.9464569
  11.3320570  44.3797798  74.4385529  71.6267471  30.7560825  44.0715637
  71.1611786  30.3666439  43.3314171  71.0433731  30.6224403  44.8185883
  17.7193584  43.6585312  35.1012077  17.6112881  42.7375641  35.3386269
  16.8908138  43.8975945  34.6857605  64.2327271  25.9637146   8.1408195
  65.1815262  26.0082970   8.0223570  64.0974655  26.1621342   9.0674067
  37.8910980  65.3638687   9.0367746  38.3530464  65.1427002   8.2281218
  37.4859085  66.2121964   8.8568001  39.1711922  38.0859642   1.6370044
  38.6461792  37.5285568   1.0626398  39.9969521  38.2034111   1.1673712
  57.7981529  25.0516014  36.0491371  58.2929649  24.6052551  35.3619919
  57.7221184  25.9547749  35.7413521  54.2343521  38.7443199   7.2709799
  54.9317627  38.0921478   7.2037439  54.1056480  38.8611794   8.2122612
  55.6079216   2.5108562  40.2569351  55.2051430   1.7554011  39.8288116
  55.4892120   2.3473890  41.1925735  14.7641182  20.6856270  65.3694687
  15.6185780  21.0367107  65.6202087  14.1402884  21.1558208  65.9226227
  65.2856750  18.6381378  10.2748899  64.6348114  18.1873646  10.8128586
  64.7709732  19.2084827   9.7039108  84.0840683  56.8415947  53.8921204
  83.1608200  57.0179672  54.0730515  84.2011490  55.9196091  54.1211777
   0.9348953  27.5027618  71.3359375   1.1553617  27.8807602  72.1872559
   1.6606418  26.9095058  71.1421051  26.8263321   0.3498961  86.5133820
  27.2169037   0.7199329  85.7216949  27.2311821   0.8375949  87.2306519
  53.9916229  29.6948509  55.4367676  53.4264183  29.2789803  54.7857437
  54.7675667  29.9624786  54.9443054  54.7093811  24.1695557  80.0336151
  55.6418114  24.3636055  79.9379883  54.3953285  24.0551395  79.1366653
  27.4731579  60.4015465  27.7668686  26.6199207  60.8319588  27.7124119
  27.7809525  60.3644753  26.8612652  17.3063507  16.3565235  67.3112640
  16.7017460  17.0936031  67.3973007  17.0757427  15.9540529  66.4739685
  74.7359085  44.3098831  20.1138515  75.0814590  43.8814278  20.8969555
  73.8085480  44.4486084  20.3061943  50.4364052  65.0824127  81.9651184
  49.9831657  65.3561554  82.7625351  50.3378754  65.8234024  81.3672409
  77.0395279  40.8518295  70.3763962  77.2583466  41.7835312  70.3930817
  77.3714142  40.5429153  69.5333939  58.0842857  47.6185951  73.1222687
  58.8067017  48.2392159  73.2180634  58.4792786  46.7632828  73.2915497
  67.1313934  52.8554955  16.8746796  67.7762909  52.6448059  16.1994400
  66.5409088  53.4811516  16.4550304  11.1938448  44.0092392  55.9142036
  10.4554052  43.6290779  56.3900337  10.8914757  44.0650520  55.0077324
  58.0221977  30.8292160  51.6516190  58.5800095  31.5986519  51.7658539
  57.1552315  31.1173744  51.9372177  18.9775314  45.8950653   0.9444680
  19.5336933  45.1522980   1.1794413  19.1517429  46.0399628   0.0144755
  61.1654015  66.7749252   6.8915758  60.7102318  66.0262756   6.5061107
  61.6448288  67.1657791   6.1610909  57.2309799  29.7704048  31.0217972
  57.7315636  29.1491413  31.5506420  57.5994072  30.6254539  31.2440166
   0.0030912  30.2314243  13.8395452   0.3843735  30.7044849  14.5791855
   0.4059074  30.6290474  13.0676203  60.1004982  63.0154839  51.1042519
  60.7766151  63.6340561  51.3807678  59.2961540  63.5339203  51.0821152
  51.8030128  38.6821938  31.9723339  52.3612671  37.9048691  31.9535313
  51.4302292  38.6880798  32.8539391  54.1837158   5.7095132  30.6467934
  54.7786751   5.3666472  29.9799366  54.6599655   5.6030083  31.4702473
  52.3567200  14.8934011  81.5634308  52.1091881  15.6642723  81.0528259
  53.2954445  14.7928581  81.4055557  74.5411453  14.7928228  42.0765800
  73.6192703  14.6136618  42.2617149  74.5877304  15.7451200  41.9917679
  66.3761139   5.6352172  77.3988953  65.4760590   5.4426293  77.6616669
  66.3579254   5.6055236  76.4423294  61.1128387  42.4513092  26.2975426
  60.3781357  41.9124222  26.0042038  60.7484665  42.9920692  26.9982891
  38.9427528  53.9575310  16.4226265  39.2101326  53.1095772  16.7771873
  38.0534973  54.0855865  16.7528687  77.2430954  56.7216454  49.3019905
  77.9074097  56.0478554  49.1573410  77.6299286  57.5203171  48.9432182
  55.3376350  68.6921616  68.2742310  55.8757019  68.7602692  67.4855118
  54.7351837  69.4338608  68.2179565  74.4016418   0.9640875  49.3720970
  75.1829910   0.4834569  49.0987549  74.7123795   1.5572611  50.0560684
   2.5381534  42.0567474  54.1044083   3.2813210  42.6341057  54.2793159
   2.3691721  41.6236877  54.9411507  48.1385765  69.5802765  54.5786209
  47.9925461  68.6413498  54.6940079  49.0094070  69.6407471  54.1859055
  68.0674591  49.4921341  69.4194107  68.2448120  49.3434601  68.4906082
  67.8618164  50.4251709  69.4776306  86.2337341  25.7118416  42.1443100
  85.8299484  25.8217392  43.0051880  86.7863159  24.9356785  42.2362633
  40.8282318  65.7400742  74.2715988  39.9843864  65.4794998  73.9024658
  40.8085403  65.4107666  75.1701508  67.5633545  21.0320301  73.8733215
  68.3951797  20.8855000  74.3236847  67.0044250  20.3105145  74.1618576
   4.8366656  14.1601620  20.2670269   3.8889246  14.0571213  20.3530579
   4.9440312  14.8576326  19.6203117  13.8867502  42.4629250  38.0689659
  13.6442347  41.6761169  37.5807495  13.3566113  43.1587906  37.6804390
   5.7280631  41.5667458   3.7758191   4.8885598  41.3382797   3.3767321
   6.3664961  41.0161858   3.3224778  28.4178009  29.2690659  74.4463654
  28.3621922  29.4279842  75.3886414  27.7198811  29.8061504  74.0712891
  54.7763939  57.0193481  22.7944984  55.3600883  57.3768005  22.1253529
  55.3273239  56.4193115  23.2971573  49.2560463  52.8303528   1.4869257
  49.2165375  52.1690903   0.7959810  50.0428925  52.6093903   1.9852076
  67.3301239   6.6355486  83.6092453  67.5220795   5.8976979  84.1880035
  67.1957779   7.3756480  84.2012253  41.8706856   3.5863538  63.1386681
  42.0237808   2.8346324  62.5662079  40.9242973   3.5893776  63.2820854
  82.5903931  34.8816376  33.2730408  82.9840622  35.5468597  32.7084732
  82.7502670  34.0553703  32.8170128  15.8532209  69.2596054  29.9587193
  16.5273914  69.8018646  30.3682079  15.5726299  68.6621704  30.6519527
  75.4697723  32.8197479  23.3354588  74.9812698  32.0023842  23.4330101
  75.0847626  33.4078751  23.9851570  33.6517868  63.7185860  25.2616673
  33.7738533  64.3652725  24.5665951  33.1343842  63.0238991  24.8543129
  64.4050369  35.7661705   2.7735004  63.9229202  35.0883865   2.2997866
  64.5688248  36.4452782   2.1191154  46.0046806   6.9106750  65.0083618
  46.1695557   7.1617689  64.0995102  46.5525208   6.1380072  65.1465225
  45.9766312  39.1430817   8.6009178  45.0551605  39.2759895   8.3785257
  46.4556618  39.6724358   7.9633083   7.5173554  57.1702538  57.1347008
   6.9506135  57.3376427  56.3816986   6.9357948  56.7880020  57.7918968
  57.5323105  20.4920216  65.9649124  58.2852287  21.0628109  65.8114777
  56.7727356  21.0665684  65.8691483  32.4770470  58.5178986  15.5030975
  33.0267830  57.8321762  15.1238785  32.9542809  59.3297119  15.3315220
  24.1715107  13.0664415  52.0893059  24.2493076  13.2770443  51.1588097
  24.6390285  12.2369175  52.1870308  66.2687988  55.6134529  66.7992020
  66.8371201  56.3370209  66.5352097  66.0341415  55.1812897  65.9779816
  67.8936691  14.8248549   7.8086610  67.4396820  15.5834112   8.1756973
  67.2265244  14.1392412   7.7757950  66.6431656  64.9279404  26.9278889
  66.3727570  65.3249588  26.0999489  66.3977890  65.5708542  27.5932293
  47.8407364  39.7104263  41.2667923  47.9278221  39.3209343  42.1368179
  48.5530090  39.3226051  40.7583656  52.1932259  39.8916855   2.0151272
  52.2093048  39.1089897   2.5659103  52.2213554  40.6209869   2.6344457
  60.5749321  29.9821091  18.4664402  61.1064720  30.7770596  18.5083275
  59.7630196  30.2589741  18.0417347  79.4189224  67.5006485  71.4478378
  79.7562714  67.8106766  72.2882614  79.1002502  68.2907715  71.0114975
   8.7916126  25.5099983   2.7568240   8.8187246  24.5948257   3.0360289
   8.4319897  25.9794788   3.5094802  40.6347733   1.0283697  57.8622513
  40.9058685   1.1619711  56.9540176  40.1646004   1.8297946  58.0922279
  49.6622009   5.3577328  52.4052200  48.9675331   5.1128802  51.7938995
  49.3961182   4.9688001  53.2383842  51.0748596  25.7410126  81.8136139
  50.5455666  25.0894413  82.2735443  50.4446030  26.4010544  81.5249023
  57.1997833  65.5854187  82.4782333  56.5896645  65.0145798  82.9452820
  57.3392754  66.3234406  83.0716095  76.0096741  28.0616627  41.7433395
  76.5471344  28.7636337  41.3764534  75.3547134  28.5142765  42.2747498
  70.8891220  58.4603004   8.1982508  70.3813705  59.1691132   7.8032761
  70.2320862  57.8262215   8.4854393   7.6989279  33.6234016  16.8506451
   8.0410423  33.3303223  16.0060768   7.3665271  34.5049591  16.6815338
  10.2854080   7.8139148  88.5612411  10.9783583   8.0078754  87.9300232
  10.1405468   6.8715997  88.4758606  68.7676239  41.7936478  63.1207123
  68.9431229  41.1606636  63.8169594  67.8194351  41.9219742  63.1470985
  13.6025705  53.2227898  56.1540680  13.3921757  53.6206894  56.9988403
  12.7659473  52.8866768  55.8326263  13.0179062   6.6200895  84.7075119
  12.9148998   6.8859529  85.6212616  12.1228085   6.4965053  84.3916626
  59.5051384  10.2003965  76.0174713  60.1445999  10.4524088  76.6836624
  60.0345993   9.9010019  75.2783737  80.2467651  23.4428692  85.9419785
  80.8635941  23.5053711  85.2127075  80.7850037  23.1818085  86.6892242
  83.4230652  57.6353798  32.8494072  82.5787354  57.7823753  33.2757034
  83.2556686  56.9314041  32.2228050  64.9540634  47.6327858  47.5921211
  64.4019470  48.4134407  47.6366272  64.5092850  46.9928551  48.1479073
  10.6822443  16.7773819   9.5495262  10.2562160  17.1009617  10.3432693
  10.4422779  15.8516226   9.5092916  70.6431274  14.5270004  56.6568375
  71.3256378  14.6236010  55.9926987  70.4122772  15.4247942  56.8953896
  38.3856316  56.3409500  76.2761917  37.8707542  55.5604706  76.0712814
  39.2774658  56.1159363  76.0111847  85.2006073  18.7085266   9.9091368
  85.3307037  19.1694565  10.7379026  84.4132385  18.1824093  10.0487118
  51.6652718  51.8543625   2.0798154  51.7729797  51.1905899   1.3986125
  52.4234085  51.7355957   2.6519666  66.1827774  44.6062775  44.9808693
  65.2404633  44.7547340  44.9019165  66.4316711  45.0677185  45.7817154
  83.5800476   6.1058445  66.4232559  83.8296127   6.8682213  66.9454880
  84.1736755   5.4128079  66.7122879  26.1539917   4.1464248  32.0274582
  26.7190495   3.9030011  32.7607269  26.1030521   5.1012745  32.0710373
  85.5336227  45.5078354  60.9362106  86.2335892  45.5054283  61.5891037
  85.9773026  45.7000008  60.1101036  48.3087311  59.8066635  61.8891335
  48.1549759  59.1447983  61.2149506  47.6219597  60.4579735  61.7464027
  81.9459305   6.6858907  49.7766495  82.3518829   6.8628321  48.9280472
  82.6776123   6.6704502  50.3936081  17.2461147   3.1393023  26.0296593
  17.0014191   3.1281869  26.9549866  16.4155884   3.0552826  25.5612621
  62.0654716  16.5010128  45.2302856  61.3744316  16.5438690  45.8912392
  62.8758812  16.6335049  45.7221336  84.5495834  58.6714630  76.1641159
  84.5388718  58.1873055  75.3384628  84.2364578  59.5459824  75.9330368
  85.5583038  71.0121536  31.0530186  86.4726410  71.2952652  31.0609112
  85.2899399  71.0434647  31.9712982   6.6973233  41.6517143   6.9301877
   6.4814658  41.7319412   6.0011015   6.3650970  40.7893829   7.1796718
  79.2035904  37.9511871  60.1764984  78.6276627  38.5898743  59.7562332
  78.6516190  37.5266609  60.8332634  86.5052719  47.1975060  39.8435211
  86.2578278  47.9174500  40.4237709  87.2927856  46.8279076  40.2428207
  72.9160843  57.3570442  14.8193283  72.3206329  57.3594284  14.0698900
  73.2559280  58.2510452  14.8580647  52.1570053  16.0529079  29.4008827
  52.8007584  15.5426464  28.9095058  51.7128334  15.4097500  29.9534130
  56.3411331  20.4345055  16.7533760  57.2142715  20.1175594  16.9844685
  56.4488029  20.8207245  15.8841963  11.4113321  35.5651588  36.6392403
  11.4392881  35.9923935  35.7831306  10.7140636  34.9142532  36.5594368
  64.5897675  44.2490044  14.6374407  65.0816422  43.7260170  14.0043736
  65.0233307  45.1023636  14.6314764  46.9237366  59.8921127  81.9919739
  46.8939209  59.3565674  82.7847748  47.2027969  60.7555809  82.2965775
   8.6239462  27.1090908  18.3726540   7.7901187  27.4762955  18.6661243
   8.6143522  26.2070789  18.6928291  61.2764549  42.4184456  61.1095428
  61.9121056  42.3258667  60.3998909  60.9417877  43.3103905  61.0164757
  64.3971176  54.0356903   2.0785732  63.8798943  54.7632866   2.4239929
  64.8195190  54.3919258   1.2969704  65.4065933  54.7131996  14.9933624
  65.5711975  55.6500893  14.8867102  65.8055191  54.3106003  14.2219954
   9.0166578  60.9448700  83.6130829   9.2061310  60.0703125  83.9529114
   8.0848627  61.0739212  83.7901001  23.5724430   5.2906833  84.0215073
  23.5000496   5.3092928  83.0672302  23.8403187   4.3943071  84.2239532
   5.4063144  15.0087414   4.6018023   5.6017919  15.3525858   5.4734626
   4.8325338  14.2597122   4.7629318  45.8932762  10.1738367  21.6855164
  45.3075714   9.5952539  22.1738033  46.7722664   9.9091282  21.9566956
  76.9420929  54.0844955   7.2968616  76.4556961  53.9509392   8.1103811
  76.5315094  54.8502541   6.8952808  36.3716965  43.2353363   7.4857893
  37.0869713  43.2601280   6.8501811  36.7596817  43.5658875   8.2959957
  12.5194788  41.7885437   7.3145843  11.9784060  42.5015717   6.9753752
  12.9566431  41.4310722   6.5417118  30.4267159  63.2966499  30.3873367
  30.8735943  63.0168533  31.1862392  29.9343052  62.5256233  30.1057701
  69.1252441  49.4683380  59.5132027  68.3926620  49.6950340  58.9403458
  68.8758926  48.6291084  59.9001770  68.7905807   2.2752900   7.4614158
  68.7135925   2.8658082   8.2108116  69.7088547   2.3397377   7.1990366
  51.9304657  37.6948967  17.3732243  51.4496117  37.7015495  18.2008514
  52.8518143  37.7221565  17.6313019   1.7921143   2.4529285  44.7883072
   2.2436054   1.7096800  45.1882668   0.8654035   2.2153246  44.8196640
  42.8476562  65.4292450  48.8037910  42.8179550  65.0864944  47.9105530
  42.1122246  65.0064011  49.2471581  43.8546066  10.1638641  78.7462311
  43.4095306  10.9620810  79.0308228  43.7684402  10.1684866  77.7929306
  15.3513527  17.0784626   7.4112535  15.2959490  17.0109863   8.3644629
  16.1770954  16.6487198   7.1883125  62.3071175  51.0863457  21.6282539
  62.8718796  50.4504356  22.0674496  62.6417313  51.1252403  20.7322903
  35.6603546  42.7457695  82.9297791  35.7125893  41.8140373  82.7167511
  35.3182068  43.1544304  82.1346893  58.4877205  30.3599148  36.4279213
  57.6940384  30.0609665  36.8716888  58.9867897  30.8118229  37.1083183
  73.1824417  66.9265518  36.7897568  73.9936447  66.9444504  36.2819519
  73.0669098  67.8285828  37.0884705  55.6786194  -0.2155439  15.6180553
  55.3778915  -0.0441477  14.7256327  55.0861893   0.2925945  16.1721802
  82.4103241  71.5811996   0.9607213  83.1535110  71.2889023   0.4330234
  81.9725189  70.7725525   1.2265123  58.1874237  64.8687897  51.0316162
  58.5786095  65.6412277  51.4397125  57.8144379  65.1938019  50.2121773
  50.5120125  59.8353119  67.8886108  51.1406212  60.2634010  67.3073807
  50.7006798  58.9011726  67.7990799  60.7408943  17.3572235  27.1304989
  61.6032372  17.7299042  26.9469147  60.9263611  16.4881763  27.4862938
  17.2466660  21.8166580  54.9988670  17.4258080  22.7538338  54.9224510
  16.2916222  21.7563915  55.0210075  83.7721558   1.5261426  32.1694717
  83.3230286   0.8081764  31.7233315  83.1746826   1.7827209  32.8719139
  53.7921295  26.1521168  66.8734131  53.8762703  25.8905926  67.7903366
  53.3303833  25.4237804  66.4580154  24.5129280  39.6071892   0.6925337
  24.4177132  38.8972626   0.0575769  25.3834057  39.9665794   0.5212404
  17.6559067  45.7353745  69.1437683  16.7864323  45.8250084  68.7536240
  18.2610035  45.9142342  68.4239807  81.0956726   6.4741406   8.8384552
  80.7672195   6.8770208   8.0346899  80.6091385   5.6530037   8.9109192
  58.7104034   8.9642696  44.4280548  57.9241219   8.9633837  43.8821640
  58.4654350   8.4566240  45.2016945  66.9176636  10.3710003  29.2907181
  67.6593857   9.8948231  29.6639843  66.8574982  10.0526924  28.3899994
  79.6865234  24.9916534  18.1508541  79.8026657  25.1547546  19.0868778
  79.8605499  24.0561142  18.0473480  79.7609329  45.4380264  71.7713470
  79.2947693  45.8883247  72.4757309  80.1549454  46.1422081  71.2564545
  62.4179306  17.3852654   4.8098688  62.7020454  18.2717152   5.0328465
  61.7852402  17.5074654   4.1020536  86.4732285  50.5339394  42.1686478
  86.3906784  50.8216057  43.0778618  85.6571274  50.8135948  41.7539139
  77.3945541  68.3492126  51.9981842  78.3510208  68.3344955  51.9638062
  77.1465607  67.4384689  52.1571655  34.4831848  12.3105602  10.4289293
  33.7386742  11.7113991  10.4831686  34.2724457  13.0109558  11.0463972
  47.5490036   4.0097346  51.4308777  47.5397758   3.0535817  51.4746819
  46.6767426   4.2714334  51.7256813  67.8742142  24.4078388  57.9737549
  67.7081528  25.0335178  58.6788635  67.1756744  24.5704117  57.3398399
  79.0002594  54.5114594  14.3123083  78.9571075  54.8439865  15.2088547
  79.6692276  55.0496750  13.8891735  67.3075638   5.3734326  61.0295868
  66.7188568   4.9847903  61.6765900  66.8501511   6.1595707  60.7312660
  27.2774029  63.7239685  27.5148773  26.4112473  63.5089073  27.8609352
  27.4558716  64.6041336  27.8460655  57.4993477  12.1990271  37.7931709
  56.7423553  12.5590734  38.2552986  58.1835480  12.1444693  38.4603462
  37.2882767  56.2914810   0.9179677  36.7147331  56.9330444   0.4988307
  37.6313057  55.7677536   0.1938990  86.2760315  64.6814651  39.7896042
  86.4170914  64.8234634  38.8535652  85.5842361  64.0211563  39.8301010
  46.7301216  18.3379097  74.9110107  47.0175514  19.2508717  74.9002686
  46.4401741  18.1886692  75.8109512  43.8012810  59.4385376  54.0589981
  44.5180702  58.8193016  54.1968231  43.5772247  59.3433685  53.1332664
  80.9019928  30.4787083  12.7844267  80.8039551  31.0477734  12.0210209
  80.4879608  29.6557674  12.5244637   1.2420231   5.8837671  15.5520372
   0.4893252   5.3324003  15.7657480   0.9413018   6.4280372  14.8243227
  73.5573425  39.4953346  51.6987991  74.2347336  39.3038712  51.0501671
  74.0358582  39.8545151  52.4459572  65.4585266  50.9907417  44.9161568
  66.3081055  51.3401146  44.6471024  65.3990784  50.1417503  44.4780884
  56.9702721  55.8809471  77.5495071  57.4673996  55.1604042  77.9366913
  57.5989304  56.6001968  77.4887238  61.5582809  -0.3165547  83.2249298
  62.3430634   0.2035561  83.3976669  60.8425522   0.3189274  83.2359848
  18.3295650  45.4909134   7.1343064  17.5674858  46.0701027   7.1316781
  18.1577682  44.8658447   6.4300299  84.0845566  62.0553169   0.8090314
  83.1555405  62.2070656   0.9826313  84.0965805  61.3226814   0.1931308
  27.9667645  36.3936081  64.0870743  28.3057079  35.6763115  63.5515022
  28.3067665  37.1852608  63.6700363  21.2887440   2.9296334  50.8359528
  21.2735901   3.8746552  50.9873962  20.3691616   2.6910255  50.7190437
  26.8774090  53.1728172  52.3950081  26.8461609  52.6139832  53.1715088
  26.7737465  54.0615120  52.7351646  76.0000458  31.3104801  28.2948227
  75.6118698  30.5561543  28.7381573  75.8697968  31.1338539  27.3631210
  38.0938416  49.4589920  72.0888214  37.5966797  49.3916359  72.9040070
  37.9319420  48.6290398  71.6402664  48.8934479  31.0522633  61.1696434
  48.9410629  31.9161091  60.7600899  49.3680992  31.1519489  61.9948692
  54.7724075  12.4333191  85.8485107  55.5471382  11.8752718  85.9163818
  54.6483040  12.5574055  84.9075394  60.4504471  42.0087166  22.1421585
  59.7876892  41.3392067  22.3117008  60.4459419  42.1147041  21.1908550
  58.4261398  71.2884293  67.3415756  57.5121574  71.0105896  67.2809906
  58.7820320  71.1336288  66.4665833   1.1412308  57.8898239  15.9498100
   0.6384845  58.5205307  16.4652634   1.6429166  58.4272079  15.3368158
  78.7366867  55.5433998  16.7659988  78.9637146  56.4687042  16.6737785
  77.8444901  55.5490952  17.1126862  24.3863850  12.9480190  49.1794510
  24.3312130  12.1425810  48.6651993  23.7663193  13.5436926  48.7588310
  37.3239250   1.7411571  10.4745140  37.0009727   1.0993679   9.8420248
  38.0589790   1.3044096  10.9048386  24.9499207  68.1614227  17.3444614
  25.5204487  68.9131546  17.1843872  24.8621044  67.7409439  16.4890537
  20.9485207  56.2317085  46.6383324  20.8217258  56.9859657  46.0627899
  21.2468719  56.6092911  47.4657707  65.3032684  61.7725296  81.8044281
  65.2772598  61.6635971  80.8537979  64.8230896  62.5847244  81.9656601
  48.0348320   9.4329853  83.8124161  47.3672867   9.4336128  83.1264038
  47.5897865   9.0724621  84.5793457  24.5703125  55.2006874   3.4954243
  23.7923050  54.9272499   3.9813957  24.9857254  55.8551636   4.0569634
  84.8506241  63.3311653  66.8472748  85.5008621  63.4463997  66.1543503
  84.9033661  64.1367264  67.3615952  30.1210136  41.3894730  68.9591599
  30.8518391  41.6577339  69.5160828  30.5194702  41.2226753  68.1049728
  48.7237816  31.1834431  72.6283188  48.6131973  32.1341705  72.6394348
  47.8355370  30.8401184  72.5314331  17.4615154  46.1851959  47.1953087
  17.4661694  46.6501465  46.3586311  18.3779545  46.1801529  47.4716148
  72.6957626  69.9039230  33.2243843  72.7783737  69.7612457  32.2814903
  71.8617172  69.4954834  33.4562645  56.1212120  70.0386200  26.1080647
  55.7452545  70.1100769  25.2306938  56.5675659  69.1918640  26.1091442
  42.9655838  62.6447258  26.7533684  42.3363686  62.3816414  27.4250126
  42.9500618  61.9295540  26.1173496   2.7100728   8.5885935  47.2952652
   3.2307291   7.8948431  46.8904686   2.4768746   8.2416143  48.1563454
  29.2310143  15.0581093  75.9476776  29.2312851  14.9464483  76.8983383
  28.6263638  15.7836199  75.7919083  46.3783302  36.0040970  64.9813538
  47.2885094  36.0299988  65.2765350  45.8642845  36.1337090  65.7783432
  43.2283745  34.1522484  39.2498398  43.5786629  33.5494690  38.5939522
  42.4352074  33.7228699  39.5703888  70.7434540  10.4856939  28.5389233
  70.8177185  11.2089777  29.1614819  70.0736084   9.9142771  28.9144421
   1.0873173  29.0822182  87.3453522   0.2361374  29.0158653  87.7781601
   1.3567215  28.1743031  87.2062759  69.0458527  39.9241295  82.6109467
  69.0452957  40.8613892  82.8053055  68.5363541  39.8464890  81.8043365
  79.2186737  52.0812073  55.3148766  79.3254089  52.9355812  54.8966827
  78.7869720  51.5423164  54.6519585  49.3527794  24.4326439  69.5030823
  49.5519066  23.6590691  68.9756699  49.0074539  25.0678177  68.8757629
  79.5911713  38.6693611  24.5713139  80.5478745  38.6395874  24.5637360
  79.3252640  37.9802933  23.9624538  79.3449249  44.9181595  22.6931915
  79.6930466  45.8083611  22.7440262  78.4339066  45.0323410  22.4225578
  31.4084549  21.2588787   9.0525494  31.5976162  22.1897964   8.9348993
  32.1086998  20.8104019   8.5784616  58.1291656  42.8970146  43.5841408
  57.8838081  42.4138412  44.3731728  57.6790619  43.7375793  43.6683464
  14.8302937  12.6423693  79.8583298  15.1727734  11.9070435  80.3664932
  14.2822876  12.2352409  79.1873856   2.3065548  68.4365845  36.1657715
   3.2482252  68.4279404  36.3372765   1.9541317  69.0652466  36.7957039
  72.1493683  38.4959831  30.9252949  72.6448288  38.6815567  30.1276016
  72.7435532  38.7337723  31.6370735   6.7434707   8.9575319   8.1097631
   7.6380816   9.1936655   7.8645201   6.7994142   8.0355768   8.3609591
  20.6630497  56.5229034  69.9709167  20.0704441  56.2813988  69.2590714
  21.3536720  57.0312119  69.5455933  37.8664284  63.5988998  61.3607674
  37.5009727  62.9749794  61.9879799  38.8058891  63.4154816  61.3601799
  37.1239967  43.2050514  85.2119217  36.6218834  43.1845131  84.3972473
  36.4670868  43.3406181  85.8947983  76.1182404  66.8835983  35.2928619
  77.0561600  66.7449112  35.1613121  76.0625000  67.3926926  36.1015358
  84.9840775  31.9988613  19.3272953  85.7732468  31.5123272  19.5654755
  84.7759171  31.6992111  18.4423618   7.7916660  26.1054764  54.6166191
   8.0143080  25.2193108  54.9018822   8.5979710  26.4404926  54.2243576
  24.9977207  41.0868416  20.6921539  25.1039124  41.8149490  21.3043785
  24.0608635  40.8915977  20.7123814  60.9115906  39.5030746  71.6498718
  61.4829407  40.2125893  71.3559647  60.1517448  39.5515251  71.0697708
  13.6392050  68.4964905  51.2860565  12.7431355  68.6244965  50.9747620
  13.7281237  69.1072311  52.0177116   7.5911026  15.2972593  73.0348587
   8.0892372  14.6498995  73.5338745   6.7483153  15.3503122  73.4855499
  52.6516685  19.3464890  19.2658062  52.8900833  19.1786442  18.3540936
  51.9163513  18.7570648  19.4334927  33.6626244  14.0476723  64.1508102
  33.5401726  13.2820425  63.5895157  34.0261002  14.7153769  63.5691833
  59.7131805  11.2712221  16.5028839  59.4310608  11.8888111  15.8281813
  59.5925026  10.4093838  16.1042576  44.2392540  42.6122131  16.2058640
  44.0713272  42.3193703  17.1015625  45.1935425  42.6214333  16.1318321
  14.7243080  57.3561287  48.3607407  14.9117126  56.7443085  47.6488495
  15.1418314  56.9655037  49.1284103  21.5711231   7.7670598  82.7359009
  21.1768723   7.1658802  83.3678665  21.6479416   8.5955276  83.2091599
  54.0577393  22.8599434  12.2303858  53.7364426  22.3492908  11.4872627
  53.3093491  23.3949165  12.4948549  21.6350307  61.1156693  79.8613739
  22.1314564  60.3689880  80.1964264  21.8034039  61.8170204  80.4906464
  85.6425323  14.3741026  36.5065765  85.3687744  14.9050903  35.7586861
  85.7656937  15.0049133  37.2159004  48.1410942  41.3339081  61.7045517
  47.3395576  41.0531998  61.2629967  47.8865738  42.1217346  62.1849480
  63.0517654  51.4272461  40.3891640  62.1089478  51.5881462  40.3512726
  63.3473091  51.9151840  41.1577988  64.9959564  58.0617332  84.5952301
  64.4360580  58.6400604  84.0772705  65.3674469  57.4530678  83.9566727
   4.2345314  69.2810211   0.1267949   4.8419480  68.5546570   0.2670579
   4.5753303  69.9875641   0.6753256  19.1879311  48.6144485  41.4144669
  18.5315342  47.9194717  41.4632721  19.9925919  48.2068291  41.7347794
  49.6473579   5.4224286  35.6331291  50.3069420   5.3770056  36.3253136
  50.1378441   5.6757307  34.8511505  47.5116692  13.4224949  30.6978741
  47.5974617  12.8767252  29.9162045  48.1748848  14.1039248  30.5881786
  60.4534721  54.6432190  49.1054268  61.0122528  54.8899727  49.8423843
  61.0528908  54.5766754  48.3621216  36.8396912  45.6571960  10.2596760
  36.4574089  44.8791275  10.6655073  37.3675575  46.0539360  10.9526320
  73.9846191  30.5350952  43.1099701  73.1508179  30.5700321  43.5787849
  74.6462708  30.6756210  43.7872429   9.2304382  71.4215088  67.4822693
   9.3636608  70.6862259  68.0804672   8.3271532  71.6968994  67.6386871
   1.1444157  35.4876976  10.2214890   1.1925672  36.1561661   9.5380688
   1.6396983  35.8566933  10.9527683  30.0020275  15.4362040  84.1720352
  29.2074165  15.6961489  84.6381378  30.5873375  16.1886597  84.2583542
  35.9394417  26.5316982  68.3397217  36.0948982  25.7297630  67.8407516
  35.4620399  26.2414494  69.1169434  71.0408554   6.9443736  38.1776085
  70.4076767   6.2373238  38.0535240  70.8255997   7.3108735  39.0352631
  19.0426159  56.0907021  67.6735535  19.9081612  56.0043755  67.2740402
  18.6903725  56.9025803  67.3088379  27.2958164  20.7088814  73.0371170
  26.5996513  21.3315544  73.2465591  26.8822899  20.0757465  72.4502869
  47.4290047  47.7092972  68.4219742  47.0319519  48.4820976  68.8236694
  48.3212357  47.9821625  68.2082062  52.2617188  12.8205376   9.8824787
  52.6908989  13.0954342  10.6927052  52.3991890  11.8738928   9.8478832
  56.6601486  10.1757975  77.9978485  57.3002052  10.3866634  77.3180695
  57.0714378   9.4761229  78.5053253  20.2724342  56.2141457  41.0311356
  20.8315887  55.4375877  41.0080490  19.6201496  56.0600166  40.3477592
  35.5009079  33.6534462  74.0672531  34.9700928  33.1714096  73.4331360
  36.2174873  33.0565224  74.2827148  28.0651760  52.7853584  37.3089523
  27.2384567  52.5826797  36.8711281  28.2047195  52.0523071  37.9084473
  20.3695850  63.7576256  41.4125137  20.5152378  64.2255402  40.5902748
  20.4042969  62.8320999  41.1707993   0.1080952  51.2568626  17.2788486
   0.6650159  51.1960945  18.0549793  -0.5981749  50.6315422  17.4412899
  74.6482010  61.5867538  59.5773964  74.1569595  61.1933975  60.2986374
  74.9643326  62.4191055  59.9287987  59.0781212  59.0816040  26.2131443
  59.4765625  59.8652992  25.8345985  58.2991142  59.4040413  26.6663742
  74.2681808  55.1077385  20.9833660  73.9509888  54.6706467  21.7736683
  73.7150803  54.7646179  20.2815228  70.6618042  60.4221458  18.4002953
  71.0647583  60.6388359  17.5595169  71.3992691  60.3376656  19.0046406
  54.4860535  21.9902935  87.0268631  55.0787048  22.1210384  86.2866592
  55.0047722  22.2310905  87.7944412  53.1532173   8.6554384  31.1014748
  53.4890518   7.8098588  30.8040848  52.2013474   8.5606241  31.0670490
   9.3540707  26.5029240  71.7814102   9.7002029  27.3814774  71.9381638
   8.5958862  26.4370975  72.3619766  22.0891953  23.9935703  84.1491623
  21.4105816  23.3506622  83.9432831  22.8414459  23.4685917  84.4225616
  83.9222946  23.0747108  20.0085335  83.1087875  22.6696548  20.3091412
  84.2655106  23.5244350  20.7806644  56.5344429  52.1797447  80.1000214
  57.3398399  51.7561760  80.3969345  56.8296967  52.9865074  79.6778946
  71.7407074  69.5869522  55.6156731  71.1331863  69.9825821  56.2406769
  71.9394226  68.7270813  55.9863091  12.1041651  21.9802418  10.7208529
  12.5494747  22.5972824  10.1401711  12.8123884  21.5384655  11.1893454
   9.4835548  12.9958639  81.7244492   9.3191557  12.4116955  82.4646835
  10.2056007  13.5531254  82.0148697  36.3100891  49.1093025  30.4654102
  35.4677429  49.5538521  30.5606136  36.9288635  49.8100815  30.2598400
  81.9624939  14.1644382   7.5819511  81.7150574  14.6809120   6.8149700
  81.4350128  14.5257206   8.2943201  28.5799751   8.4928818  88.9723434
  29.4034615   8.7071180  88.5339279  28.7050419   7.6000204  89.2938843
  18.4592075  38.1514740  35.5742378  18.1238022  37.7972603  34.7506676
  17.9096775  38.9157791  35.7476883  17.7204590   5.6460004  18.1889820
  17.6180019   4.9662666  18.8550873  18.5649509   5.4557033  17.7805061
  44.9081078  46.1932411  77.1669159  45.4205437  46.5427895  76.4379044
  44.1504631  45.7814713  76.7514038  39.5721931  70.9965973   9.7152653
  40.3878250  70.9514694   9.2163239  39.6600494  70.3136368  10.3801556
  58.3564568   8.4902344  79.2093735  59.1401825   9.0086050  79.0269012
  58.4987907   7.6678090  78.7407761  26.9194870  13.1701660   7.9426680
  26.5007629  12.5864391   8.5752535  26.1953793  13.5190344   7.4228687
   9.1108809  62.3097076  44.3012238   9.0877562  61.6344681  43.6231766
   9.7076082  62.9743385  43.9571114  82.7173157  70.3024750  25.0349827
  82.1156921  71.0029755  24.7828255  82.1582642  69.6428833  25.4456253
  34.7477188  60.7348022  55.8236885  34.1817589  59.9636345  55.8586082
  34.3260803  61.3127365  55.1877251  67.8959579   9.2220011  27.1787701
  68.3384705   9.7543879  26.5177269  67.1642075   8.8191872  26.7113209
  52.1668243  48.9932747   4.1821914  51.2970848  49.3772926   4.0712271
  52.2122803  48.3068848   3.5165856  72.8663940  43.3443031  72.4718170
  72.5399857  42.4509430  72.3641357  72.7429733  43.5339241  73.4018936
  73.1698227  14.0775900  81.2930603  73.3690872  13.1888943  80.9985352
  72.9805450  13.9837198  82.2266541  35.6600571  28.2282314  78.7600174
  35.2989540  28.2260742  77.8735428  36.0354195  27.3543301  78.8678665
  24.0672951  16.9996834  69.0798645  23.6670799  16.8345928  69.9335632
  24.7173080  16.3039551  68.9814987   1.5939918  20.9314594  47.8731155
   0.9626355  21.6348228  47.7217827   2.3146176  21.1232414  47.2729912
  78.5318146  28.4317627  79.5272903  78.5740051  28.9283562  80.3445129
  79.3518829  28.6383171  79.0789032  26.4345989  62.4253807  86.3339386
  26.8992271  63.0207939  86.9220123  25.8248081  62.9878311  85.8564072
  44.4416504  55.5862961  52.9452858  44.5259933  55.9015236  53.8451500
  43.4974060  55.5309372  52.7984123  46.4818306  58.8794022  23.8659992
  45.5670242  58.8922539  24.1474247  46.4603043  58.4722481  22.9999771
  82.9972382  17.5206852  11.0483255  82.8072586  17.7384415  11.9608612
  82.5397949  18.1917572  10.5417223  78.9803085  35.2288742  24.8229618
  79.6175919  35.5814056  24.2018147  78.1456451  35.6119576  24.5531273
  61.4951897  40.5706406  15.0993347  61.1498375  41.1809807  14.4478340
  62.4009056  40.4191589  14.8292150  60.1255112  57.4844208  87.9665451
  59.4938889  57.1200218  87.3464661  59.6688652  58.2245293  88.3664856
  18.6924362  48.9003830  30.8232689  18.2046642  49.6566620  30.4971504
  18.0905094  48.4712296  31.4313354  60.4746017  66.8031158  70.7646408
  60.3899536  67.2642365  71.5991592  60.9409981  65.9962692  70.9830551
  55.8849640   7.1687264  52.4617310  56.3922806   7.9341168  52.7319870
  55.3225365   7.4907160  51.7572975  57.9996758  37.5354080   1.9686633
  57.9500504  37.4510765   1.0164781  58.9349289  37.6223221   2.1529958
  56.5315056  65.0261154  45.9675636  56.1514130  64.2482452  46.3758240
  56.9926338  64.6917725  45.1982765  63.2628021  20.2740250  24.1013279
  63.1975060  21.1957207  23.8514366  63.6661987  20.2891750  24.9692421
  31.5367737  51.0080948  44.8289452  31.6843929  51.1573372  45.7628441
  31.2729874  51.8629494  44.4885406  82.4054337  51.5882034  24.5052872
  82.3899918  52.3725929  23.9569054  81.6113815  51.6513710  25.0360699
  77.5203247  51.6823921  16.5865192  78.3474121  51.3881187  16.2049847
  77.7612762  52.4307365  17.1325531  86.0080414  36.0048790  41.4392242
  86.8633575  35.5936241  41.3145866  85.9394379  36.1329308  42.3853340
  32.7800713  60.5936165  25.4765472  33.2762032  59.7997131  25.2770367
  32.3151741  60.7958984  24.6646481  40.7325211  58.4187927  16.4758587
  41.3710709  58.6344566  17.1555462  40.0955353  59.1324310  16.5105534
  76.9211731  28.8329678  14.9588079  76.5736694  28.1406746  14.3964901
  76.3900833  29.6011696  14.7489595  76.5681000   8.9893665  70.1569366
  76.5523453   8.1947155  70.6903381  75.7852478   8.9261227  69.6097870
  26.5065193  68.4058609  82.0215454  27.0130939  67.5954514  81.9682617
  27.1347408  69.0955353  81.8072433  19.5202675  62.3868866   6.7548785
  19.0598717  63.1862564   6.4993882  20.3011360  62.3729439   6.2014518
  84.8744812  43.0455437  12.4294291  84.4949646  42.4222641  11.8099756
  85.7999039  42.8051338  12.4744530  44.7273750  51.9488220  23.8896618
  45.6219635  51.6866379  24.1069145  44.2428589  51.1250916  23.8353996
  77.3369370  54.9548416   4.5216579  76.8644791  55.4253197   5.2084341
  78.2122192  55.3422852   4.5245523  67.7268066  67.0150223  61.2985001
  66.8191605  67.1389160  61.5760918  68.0552292  66.3127365  61.8598938
  41.3445053   2.6516891  28.0725822  41.1652870   3.2303214  28.8137283
  41.2533379   1.7686611  28.4306068  35.9676743  47.2677193  66.4276352
  36.0202980  46.3218842  66.5649643  36.3058205  47.4003372  65.5420227
  65.7938843  50.3479500   1.5518687  65.7445526  51.2950363   1.4221647
  66.2957153  50.0292740   0.8016424  76.9754028  42.1498070  53.1959763
  77.1322327  42.5676651  52.3492012  77.8309937  42.1497345  53.6251526
  25.1102695  21.7141781  64.1956406  24.7874107  21.0948944  64.8502274
  24.3186264  22.0876255  63.8082504  82.0543671  60.1990852  62.1566811
  81.5438385  59.5356026  62.6207695  81.4578781  60.5360031  61.4881630
  68.6077576  53.8466148  28.7456532  67.8791580  53.6009369  28.1755505
  68.4588699  53.3517113  29.5513420   9.4225607  45.1070404  74.8767471
   8.5139275  45.0894470  75.1772614   9.5672989  46.0132294  74.6045380
  46.8935966  43.0337639  23.4085426  46.9594994  42.2148514  23.8997345
  47.1187630  43.7131004  24.0441780   4.6048121  63.9505768   9.2464237
   5.4848270  64.0515213   9.6092119   4.1580038  64.7667007   9.4712200
  23.8205147  24.6794033  66.4126511  22.9395008  25.0387535  66.3081894
  23.7402744  23.7654037  66.1398926  77.2812271   9.5892906  72.6304092
  78.2192078   9.4686098  72.4825592  76.9204102   9.7522821  71.7589264
  54.1356888  41.2690849   6.5326810  55.0265388  41.4660378   6.8222184
  53.9351311  40.4232178   6.9333200  81.9016724  33.8815231  55.7272949
  82.2639084  34.6303329  55.2536964  81.0563354  34.1904221  56.0532150
   0.5784544   1.2352670  47.7205925  -0.1196751   1.4096324  48.3518181
   0.4538517   0.3191749  47.4726372  17.4937477  10.8260784  63.8229103
  16.9154720  10.5527277  64.5350266  17.3340282  11.7654562  63.7318535
  32.2728157  54.8466988  40.6415062  32.4840851  55.6837044  41.0550537
  32.8314819  54.8154907  39.8648834  83.2385635  24.2122631   7.0376463
  82.5517044  24.1875610   6.3714309  84.0549850  24.1446114   6.5425572
  22.3456879  59.6302567  22.5832710  22.4225407  58.8831902  23.1767483
  22.5107136  60.3936844  23.1366024  65.6564941  69.7186584  74.1878510
  66.1328659  70.5441284  74.2767792  65.2810059  69.5642319  75.0546722
  13.8222599  67.8368301  58.8783798  14.5206671  67.3049774  58.4968185
  13.9199696  67.7183762  59.8231850   3.9043553  56.9716492  71.1544495
   3.5914183  56.4584122  71.8993607   3.1523607  57.0201912  70.5642166
  56.0657120  28.3441544  20.2773132  55.3612976  28.6276627  20.8601112
  56.5230408  27.6617565  20.7686539  25.5286503   0.4554175  10.4251356
  24.9522381  -0.2954102  10.5673990  26.0686226   0.4957807  11.2144604
  56.8462715  69.0675049  15.7411585  56.2484436  68.5372086  15.2142630
  56.3931122  69.9037399  15.8488026  64.6746216  49.5339928  10.9855833
  64.3709717  48.6264992  11.0075684  64.1709366  49.9380417  10.2789869
  69.5902405  26.3231773  70.7626038  69.8440857  26.8963203  71.4859924
  69.7535934  25.4384232  71.0893478  77.6334686  11.4835463  25.2175331
  77.3266296  10.6864281  24.7854614  78.5880127  11.4160051  25.1948681
  35.2523422  58.7312698  39.8328896  34.3845139  59.1350212  39.8423920
  35.2297058  58.1323586  39.0865479  63.4901848  32.4140282  40.5482559
  63.2767563  32.3746262  39.6159859  62.8938675  31.7868042  40.9571991
  30.1297665  28.9579334  12.3489828  30.5237980  28.6590061  13.1685028
  29.2372189  29.2067623  12.5891390  42.0361481  23.6167393  75.2419128
  42.5531235  24.1077919  75.8805313  42.1379395  24.1051140  74.4249878
  38.0730820  33.3513451  88.3809128  38.7485237  32.7925606  88.7653122
  37.4375648  32.7387428  88.0106812  77.5989380  49.9347115  36.1552887
  78.4149399  49.5312424  36.4512482  77.3567734  49.4392624  35.3729057
  14.6042423  60.9146042  65.1684647  14.8612909  61.1029968  66.0710602
  14.2150068  61.7309494  64.8549271  74.8266144  21.2041149  42.6390190
  75.5264816  21.0346489  42.0083847  75.0319824  20.6375732  43.3827133
  63.8967590   5.0412250   8.7211800  64.3652344   4.3803291   8.2112951
  64.5739136   5.6637378   8.9860849   4.6414914  16.6068611  83.1272507
   3.7133198  16.7542381  82.9455643   5.0296564  17.4817486  83.1157761
  30.4471169  56.1647530  82.6137390  30.7840576  56.2754478  83.5028152
  31.2252102  55.9980507  82.0817490  57.7881050  46.3788490  69.8076477
  57.1721840  45.6932526  70.0661545  58.6231079  46.1066322  70.1883011
  60.2714424  14.8312845  77.0725403  60.6399155  15.2398729  76.2892685
  60.7426529  15.2385941  77.7993774  35.4674072  42.1122856  31.1978168
  36.2349358  42.6717377  31.0789051  35.8058968  41.2206917  31.1158714
  56.8688011  71.3068390  77.6432114  56.6127167  71.8081970  76.8690720
  56.6722527  70.3980484  77.4158173  53.4107742  71.1529312  21.9583244
  53.2887726  71.3286972  21.0253448  52.5937881  71.4413605  22.3652267
  43.6295242  49.1591339  68.9948273  43.1329498  48.4162979  68.6515503
  43.0048676  49.6306725  69.5459061  36.9114685   4.0656691  80.9808807
  36.9366226   3.9780111  81.9337311  35.9871292   3.9615076  80.7550964
  85.0014877  26.2430725  37.4742699  85.8727722  26.0934772  37.1072159
  84.6253128  25.3673573  37.5628281  18.5215340  55.7568817  47.7042274
  19.2826042  55.7463799  47.1238022  18.3624249  56.6854134  47.8737831
  51.6674690  57.9343681  87.9002380  52.1833649  58.1411438  87.1209259
  52.2198639  57.3339119  88.4007874  18.4354954  21.9989643  73.8709641
  19.2844086  21.9157009  73.4366302  18.3964005  22.9147129  74.1468430
  62.0194397  24.6465950  35.3183174  61.4026337  23.9336777  35.4842262
  62.8748932  24.2189274  35.2791214  64.9598846  44.8658295   6.8432665
  64.6523743  44.1435280   6.2955890  65.7412567  44.5221672   7.2763867
  58.6997719  32.1188431  31.7454147  59.3517456  31.8192062  32.3789558
  58.4489098  32.9896736  32.0535698   3.4184802  36.3430748  64.0275040
   3.3397174  35.8430595  63.2150955   4.3369608  36.2475014  64.2794800
  70.7148590  65.6042709  19.6987991  71.1134872  65.4476852  20.5548420
  69.8781128  65.1408997  19.7358646  55.2172813  14.3832741  35.1942902
  56.0059776  14.9201183  35.2716942  55.3627625  13.8557243  34.4089508
  36.5388069   8.6513453  82.1618729  36.5703468   8.8214417  81.2204361
  35.6761665   8.2624378  82.3062286   2.4706023  17.3122692  18.1617470
   2.6236122  18.1420860  18.6136589   2.5662062  17.5240536  17.2331791
  49.8567848   5.4837651  69.9627609  50.1632118   5.2755804  69.0801544
  49.8174133   4.6375685  70.4084473  71.0075302   3.2260108  86.3540955
  71.4618835   2.4420903  86.6627350  70.3483200   2.8960054  85.7435455
  42.4700584  45.8649788  49.7899323  41.9639168  45.0558586  49.8632507
  43.2430344  45.7140884  50.3339653  82.4020462  64.7237473   1.0071895
  82.6689148  65.5153046   0.5398002  82.9885941  64.6823502   1.7624941
  43.6342735  61.5833397   7.0875049  43.1410484  61.2910881   6.3209877
  44.2809944  60.8929634   7.2336798  45.6975899   5.1422057  43.7058678
  45.4674606   4.9778252  44.6203346  44.8742218   5.4065413  43.2954750
   6.1161280  71.1682358  28.8167686   6.2646670  71.6647110  28.0119820
   5.3352432  71.5653229  29.2024765   6.3882508  65.3787842  36.4806633
   6.7370524  65.9935837  35.8352318   5.7029967  64.9024734  36.0118446
  76.8506546  18.6972179  56.9903793  76.0887070  19.2618465  56.8605576
  76.4962158  17.8082829  56.9704170  83.8772507  29.8000450  33.4946175
  84.2103500  29.4822388  34.3338280  84.3885651  29.3258648  32.8389130
   1.0320709   4.3559813  24.3719616   1.1651554   3.9229112  25.2151527
   0.5224116   3.7291605  23.8585663  84.4585419  59.2923203  27.5622597
  83.7669067  59.3137283  28.2236328  85.1171799  58.6991386  27.9235935
  29.1723614  18.0997276  76.4845428  29.7912502  18.0885735  75.7544174
  28.5827999  18.8276653  76.2876892  80.4100342   6.4218535  22.6766834
  81.1747818   6.0364118  23.1042595  80.6269073   7.3500586  22.5893307
   8.9190865  44.7271957  18.3081226   8.5489244  44.2771835  17.5487156
   9.2262630  45.5656776  17.9634171  82.4231110  59.5710449  51.0812531
  83.2070999  60.0598106  50.8308449  82.1841049  59.9243698  51.9381485
  78.3465958  20.2162628  86.7265778  78.7890625  19.6734962  87.3791504
  79.0080338  20.3655720  86.0509720  75.8619385  27.1574936  13.1893482
  75.7860413  27.5776634  12.3326521  76.4136276  26.3912067  13.0322523
  82.6907196  67.6151428  68.8182068  82.5706253  67.6467819  69.7673187
  83.6343155  67.5065231  68.6996689  37.3204842  67.0658722  75.6091690
  36.4499741  66.6774979  75.6964035  37.3862495  67.3008881  74.6836014
  78.4170227  41.0172882  75.4787445  77.7676849  40.5924263  76.0391846
  79.1342010  41.2424965  76.0713425  63.1052170   6.1661077  79.5840683
  63.2450142   6.5208921  78.7061081  63.9870300   6.0210409  79.9269867
  43.8276405  52.2686462  17.7670536  44.1858978  51.4959412  17.3302288
  42.9361649  52.3443718  17.4268074  17.9582176  44.5327530  14.6474056
  17.9961052  44.6859398  13.7033033  18.6278095  45.1120605  15.0111084
  70.8702011  47.8974724  27.8900623  71.4316559  47.1469116  28.0841122
  70.5936890  47.7617683  26.9837742  79.0018997  34.4696655  48.9407387
  79.9283447  34.2449112  48.8546562  78.9615479  35.4030952  48.7326355
  19.5030575  32.4363594  52.4366989  18.9244003  31.6747837  52.3994141
  19.7101059  32.6248894  51.5213737  49.5197945  46.3215752  28.2990818
  50.2579193  45.7168427  28.2235527  49.8129845  47.1145935  27.8503075
  72.5399399  42.1605301  22.4351501  72.3780060  42.0574379  23.3729038
  73.4159088  42.5430183  22.3839893  19.0809097  21.4437847  21.3610134
  19.1121559  22.3927670  21.2398033  19.4248276  21.0863152  20.5423756
  86.4025497  55.2080498   2.6509647  86.4588928  55.9761620   2.0825810
  85.5004349  54.9033432   2.5531127  25.8467979  42.6132011   8.4441032
  25.2157402  43.1804695   8.0011568  25.3336182  42.1610718   9.1137733
   1.7567384   0.9502089  79.8715973   2.0421875   1.8529109  80.0125961
   1.7661226   0.8418095  78.9206009  59.8716087   5.0850391  57.0425224
  59.4769859   4.6338396  56.2962456  59.1871643   5.0849943  57.7116776
  81.9619141  68.8533173  87.4289780  81.1756821  68.3170929  87.5315781
  81.7694855  69.4200668  86.6819839  83.1862869  10.5286436  86.5463943
  82.3170395  10.1389952  86.6403046  83.6178207   9.9937496  85.8801346
  74.3534927  48.8321342  28.9289474  74.5312958  48.7009354  27.9976025
  74.2215652  47.9492073  29.2743015  35.2295532  17.7861443   9.9167404
  35.7253952  17.0159149   9.6390409  35.0635986  18.2688980   9.1070251
  25.7557316  70.2562485  21.4952812  26.1831474  70.4933090  20.6722698
  25.9871998  70.9631882  22.0976830  64.1231308  28.4177017  82.9374924
  64.1141891  27.5916615  82.4539566  63.4025421  28.3372498  83.5624008
  24.5584068   4.9215703  16.5980072  23.6619129   4.9800582  16.9283295
  24.5431995   4.1790290  15.9941597  39.0387840  49.3070145  12.9549732
  38.7954063  50.1518555  13.3334560  39.6967468  48.9562836  13.5552244
  47.5902328  50.9746780  18.7368927  48.4770432  50.7282791  18.4740391
  47.4595680  51.8425064  18.3547554  66.7963028  40.9613037  75.5663376
  67.5861053  41.4870872  75.4398499  66.0751190  41.5749092  75.4263077
   2.9139712  42.4058876  42.6683044   3.5443852  42.3166161  41.9535751
   2.0827293  42.1166153  42.2920189   2.0333178  44.5673370  13.3323917
   1.9214962  44.7463036  12.3987436   1.6349814  45.3197746  13.7698832
  63.3365555  49.0619202  39.1336517  63.5714722  49.9886551  39.1806602
  62.4583626  49.0179634  39.5119057   5.7163353  21.6924744   7.1079059
   6.4807072  22.2611923   7.2002468   5.7703114  21.0956230   7.8542895
  86.2252884  20.9536495  37.5114708  86.2055817  21.8474350  37.8535118
  85.3772736  20.8429794  37.0815239  75.7848969  57.5062599  24.1637497
  76.5019226  57.7050285  24.7659111  75.0024414  57.5050964  24.7151108
  32.7639542  31.4640274  61.6246643  31.9167118  31.0324593  61.7349396
  33.3659897  30.7553368  61.3976250  65.4162903  22.0355682  66.9378128
  65.0011292  21.4037838  66.3506851  66.2762909  22.1947899  66.5488586
  56.1395340  36.5574112   6.9666085  56.4417496  36.6235962   6.0607848
  55.9090309  35.6347694   7.0753865  61.2837334  15.6572189  14.0587969
  60.6972694  16.3713989  13.8093147  61.4442406  15.7941628  14.9924536
  36.1252403  24.2776756  19.6659164  36.3495407  24.8547535  18.9359150
  36.7468071  24.5110378  20.3554287  66.7846832  31.8856754  18.4983349
  65.8753510  31.5986691  18.4148464  67.2864990  31.0737152  18.5700092
  40.9983101  31.2699795  71.2950363  40.3137589  31.7710114  70.8516464
  41.0273056  30.4364147  70.8253937  80.1382446  62.6036568  16.7646236
  80.1517334  62.3908463  17.6977692  81.0383987  62.8603287  16.5644569
  37.6672211  56.5924835  42.9179230  36.7504387  56.3591690  43.0638733
  38.1606407  55.8389778  43.2419586  82.5984650  33.8382111  79.1316452
  83.4759445  33.4733849  79.2463684  82.6416473  34.7004738  79.5450134
  37.5196838  27.0134773  83.0106125  36.5657196  27.0109310  83.0891876
  37.7478256  27.9355717  82.8926010   3.3475547  21.1784706  24.8028927
   2.4329312  21.2245789  24.5243797   3.7235494  22.0153122  24.5298462
  74.0096130  13.7144680  39.7481422  74.5247192  13.9093971  40.5310249
  74.5174713  14.0883636  39.0280571  58.0217781  23.9928799  51.9811478
  57.7865906  23.4933929  52.7630882  57.6242790  24.8528614  52.1177330
  30.7861729  51.9880486  52.4694672  31.3342686  52.2394905  53.2128372
  31.1595249  52.4610901  51.7257805   9.7720098  12.2977896  76.8471527
   9.6966438  11.7985392  76.0339508   8.9833202  12.0724316  77.3405228
  61.4148750  35.7754517  53.8017502  60.8429489  36.3527908  53.2959785
  62.0922890  35.5060234  53.1814690  77.8938675  52.8120422  89.0312271
  78.2589417  52.9913712  88.1647415  77.4843216  51.9511795  88.9450989
   9.9093628  58.0420494  55.9752998  10.0990944  58.9673653  56.1303024
   9.0483322  57.9046745  56.3702507  38.1081924  45.2426262  73.8727112
  37.9692154  45.6261292  74.7386475  37.5496788  45.7574883  73.2902908
  55.4696541  25.0958595  83.4026947  55.9945335  25.3643856  82.6486206
  54.7551880  24.5818882  83.0263901   7.3259716  39.4476624  17.7405663
   7.9166203  38.7827530  17.3866463   7.5644784  39.5120926  18.6653347
  58.1567154  63.4884796  38.4013596  57.6282425  63.9163628  37.7276649
  58.7336502  62.8995323  37.9150314  71.6295929  58.5272713  23.3040428
  72.3166122  57.9134636  23.0442886  71.8894730  58.8223381  24.1767559
  24.8437252  17.6433792   9.3670902  25.5375271  16.9940929   9.4823980
  25.2170963  18.4560375   9.7082815  44.8378906  46.9827271  82.0091629
  45.5111465  47.6399040  81.8328705  44.2242584  47.0667381  81.2793503
  34.9553795  30.5556374  79.8486862  35.2570724  29.7108688  79.5146484
  34.1644516  30.7442703  79.3436203  39.5830956  63.1315384  64.7277222
  40.0568504  63.8261566  65.1852188  38.6620903  63.3820648  64.7999725
  28.4974403  29.1856480  65.7982941  27.6715832  29.6622086  65.7141495
  28.5917740  29.0340919  66.7387009   2.5381324  23.1990242  51.9876518
   2.1945202  22.4119339  51.5649834   2.7115345  23.8025532  51.2652130
  54.7458496  26.4009399  59.7256126  54.8550491  27.2317028  59.2628593
  54.6510315  25.7500725  59.0301895  38.6319466  50.9102707  49.5200844
  38.4701691  51.6494675  50.1063004  38.0403595  51.0561066  48.7818489
  15.8983898   0.6140139  62.5625839  15.7315102   0.6334008  61.6202431
  16.6704159   0.0561917  62.6576767  42.9285774  20.4848804  73.5470734
  42.4115143  20.6226139  72.7534103  43.7877884  20.2086029  73.2282257
  10.0775986  48.3845634  30.9738083  10.0018139  48.0908012  30.0659580
   9.4464016  47.8475418  31.4527988  40.3466301  14.9058542  62.1454391
  40.3266563  14.1539297  61.5534554  40.1614265  14.5360546  63.0086746
  12.6705132  66.6294785  86.8942108  12.9719095  67.2789536  87.5294800
  11.7157707  66.6590500  86.9560471   9.4423151  47.6632271  34.9610443
   9.1300831  46.8654251  35.3879547   8.6740351  48.0075722  34.5056305
  26.8684406   4.5398922  68.0115662  26.7102814   5.4279594  67.6913223
  27.1328354   4.0483942  67.2339020  84.0697479  27.0731735  84.2511749
  83.7526627  26.5283680  84.9715042  83.4085541  26.9732723  83.5662842
  64.2609787   8.4872446  75.0345688  65.1952057   8.3452406  74.8819656
  64.1447678   9.4331570  74.9452591  84.1024628  55.6177750  12.6014032
  84.7465668  56.1209259  12.1032066  84.4937439  55.5208626  13.4695845
  44.1525345  46.8061523  56.7340660  44.9578667  46.6385841  56.2445869
  43.6529579  45.9931335  56.6588249  79.4599152   0.7227238  18.4915867
  78.8344193   0.0067114  18.3806076  79.8114395   0.5991707  19.3732872
  77.1039200  19.5073357  38.5942802  76.7158813  19.2793121  37.7494926
  77.7699509  20.1615887  38.3831367  11.5648394  45.8737259  11.2287941
  12.2747612  45.8177528  10.5891762  10.7681351  45.7441978  10.7142878
   4.3836679  45.8247223  14.2619495   3.8937335  45.3256569  13.6084003
   3.7405815  46.4282990  14.6339273  45.9225540  16.9325714  60.1164742
  45.0661926  17.2694855  59.8530922  46.3393250  17.6655865  60.5694885
  78.4248734  28.9162502  76.4539185  77.9471970  28.1679306  76.0960388
  78.3517914  28.8153934  77.4029770  64.8067856  48.2917252  43.9855804
  65.5646515  47.7260513  44.1335411  64.3650284  47.9071465  43.2284927
  62.7866096  57.9598885  50.4048691  62.6582947  58.0557442  49.4611664
  62.7470131  57.0157318  50.5572891  30.0583744  31.7986526  80.9840775
  30.9698639  32.0902710  80.9645920  30.0979080  30.8728771  80.7440643
  68.2950134  57.4890594  86.6338043  69.0537491  56.9466400  86.8490601
  67.7260284  56.9131508  86.1231079  73.8031769   8.1140661  49.4639130
  74.5884018   8.6607647  49.4361382  74.1063004   7.2772336  49.8161354
  55.6166458  50.2830544  65.5381699  55.3912392  51.1726570  65.8102570
  54.8691902  49.7519379  65.8128662  63.7520790  28.6680431  44.7226372
  64.6109467  28.2928982  44.5281181  63.4968605  28.2646618  45.5523224
  60.2519150  49.5913086  73.7081070  60.6334229  48.8556633  74.1871719
  60.8610268  50.3148346  73.8555069  70.1902390  14.0013762  46.5475998
  70.9904480  14.4350233  46.8439941  69.7535172  13.7273550  47.3540840
   4.2516804   3.4557736  31.3331032   4.4423871   4.2291040  30.8022346
   4.0287871   2.7769845  30.6960831  45.2084694  61.4820061  69.0496902
  44.6130028  60.7761993  68.7977295  44.7666435  62.2816010  68.7639084
  56.2348061  15.4242134  13.0213032  55.8201904  15.8821440  12.2901230
  56.7832909  14.7582312  12.6067371  41.2169838  28.6297417   0.0950086
  40.7670975  27.8034935  -0.0814841  41.3616333  28.6263371   1.0412097
   1.1048549  44.8199387  76.5206757   0.1816457  44.8457909  76.2691879
   1.2030575  43.9894753  76.9864197  46.2822876  57.2204399  16.5822544
  46.0584717  57.7667847  15.8288336  45.5080414  56.6749840  16.7210140
  61.9638329  21.3791084  61.3407097  62.1697502  20.4447460  61.3689270
  61.1475334  21.4594765  61.8340950  74.7698746  60.5942383  26.7749920
  74.7693710  61.0586243  27.6119976  75.5061569  60.9705086  26.2927685
  59.4415894   1.2360460  82.2924957  59.2344284   0.5574394  81.6499939
  58.9259300   1.9934530  82.0156174  65.9101944  64.7187119  52.3794823
  65.6843719  65.2036285  53.1732674  65.4022141  65.1421509  51.6874695
  26.2822723  31.8148117  59.0022163  27.0627422  31.5442886  58.5185661
  25.9768143  32.5983505  58.5450554   3.2054062  68.1562271   8.9368172
   2.5978851  68.0600510   8.2034006   3.1132791  67.3425293   9.4324312
  18.6001759  57.4905128  86.5653534  18.2666817  56.6776047  86.1856232
  19.5502014  57.4293823  86.4656143  26.2372112  65.9372177  39.4015999
  25.7439137  66.1468887  40.1946487  26.2478008  64.9805374  39.3720360
  71.6677856  48.0374832  64.1787720  70.9716797  47.5272293  63.7648735
  71.7751846  47.6395073  65.0426712  50.9423561  29.0177937  18.5269547
  51.0951271  29.3441811  19.4137268  51.5151253  28.2546825  18.4506168
   7.3160224  65.8210678  81.2049789   6.6659904  65.1263428  81.0998688
   8.1342325  65.4322815  80.8957748  29.6720505  39.0550385  17.1986828
  30.5520630  39.1447029  17.5644245  29.2699509  38.3537483  17.7112675
  38.2799110   1.8399254  36.0730934  38.7302361   2.4598730  36.6467667
  38.6399651   2.0134251  35.2033272  62.3967094  50.8751984  24.4507370
  61.5402756  51.2972221  24.5189095  62.9945297  51.4725342  24.9002132
  17.0443516  45.0744247  87.3822784  17.3056583  45.2711868  86.4827042
  16.5255013  45.8321800  87.6521530  52.2300987  68.1050568  73.0261459
  52.3848877  67.3313217  72.4842911  51.6740265  68.6676102  72.4871216
  16.0659580  56.7124672  50.7181931  15.3060951  56.2583504  51.0823555
  16.0965538  57.5446358  51.1902046  78.7940903  32.2657356  46.3572617
  78.1747055  32.7206345  46.9279366  79.5423355  32.0721474  46.9219589
  46.7977371  33.2892265  23.2055073  46.6797028  32.5907974  23.8493195
  46.0209694  33.8397827  23.3042622  79.1518707  30.0526524  16.3167648
  78.6319122  29.4726028  15.7605076  79.8874664  29.5121841  16.6049118
  37.8972321  62.6914558  18.6293106  38.2821999  62.8979340  19.4810123
  37.2730408  63.3995667  18.4705944   7.4891310  38.6956635  75.6333923
   7.3506665  38.4743195  74.7124863   6.6136751  38.6718140  76.0197067
  19.8369865  26.7584820  69.1212311  19.7254143  25.8124733  69.0271454
  20.6277752  26.8547840  69.6519089  62.6613045  70.7839432  79.1141205
  62.1091423  70.5776138  79.8682938  62.1206741  70.5663528  78.3547821
   1.7784216  16.9373589  82.8504257   1.2898806  16.8689461  82.0301361
   1.1957020  17.4199963  83.4367142  74.8099136  13.9924097  56.7589874
  74.1845474  14.3960466  56.1571312  75.5036697  13.6546650  56.1925430
  46.2083015  47.2688751  62.5196304  45.5523758  47.7548027  63.0194969
  45.7835655  47.0858345  61.6815834  19.9387512  20.5322037  67.0667572
  19.7395000  20.8477955  67.9481964  19.1076260  20.5954056  66.5961533
  68.6927795  52.8411407  82.4202118  68.4135132  52.0365143  81.9833832
  69.0448532  53.3859863  81.7163544  68.2938538  33.8020630  65.9112167
  67.6949692  33.3237267  66.4845886  68.4578323  33.2030067  65.1828766
  65.6568146  14.7516785  42.1319504  65.6978302  15.7074547  42.0996742
  66.1088867  14.5198078  42.9431877  22.7800598  58.0163422  30.0346622
  23.6705990  58.3294067  29.8760338  22.8954678  57.2124329  30.5412598
  17.0860023  60.6218071  46.0067825  16.5933342  60.2809715  46.7533340
  16.8551826  60.0406761  45.2820473  57.0209274  51.9450569  52.0774918
  57.7230453  52.3449974  51.5643539  56.3218613  52.5989189  52.0773735
  63.4380341  22.7416534  -0.0949306  63.8433151  23.3576012   0.5154688
  62.5090065  22.9719982  -0.0861188  11.6252832  11.3943367  12.8091860
  10.8548117  11.9188948  12.5913696  11.4583101  10.5435810  12.4035168
  29.8418217  52.8081779  72.5128632  29.9966621  53.7479858  72.6078339
  30.4075413  52.5443611  71.7871933  76.5845032  38.8174934  38.9498291
  76.6089783  38.7567062  37.9948730  75.9795151  39.5374031  39.1285782
  40.0406418  49.3067169  69.3674316  40.8816071  49.6922951  69.6130524
  40.0199852  48.4659767  69.8245544  15.4175415  69.1131897  77.8063812
  14.6342649  69.6502151  77.6867447  15.6538811  68.8339386  76.9218521
  66.1386871   8.7419281  85.2153778  65.6372147   8.5791664  86.0142899
  65.9588470   9.6575651  85.0020752  67.2570572  11.2322073  86.3931885
  67.7386322  10.4064713  86.4429779  66.7311554  11.1551371  85.5971222
  48.0920105  69.0320663  83.4938583  47.1901550  68.7629395  83.3193283
  48.2043839  68.8971634  84.4348145  20.0414581  52.8264771  12.3740625
  19.7578640  53.6306381  11.9391708  20.8244686  52.5576706  11.8935738
  66.1282272  27.7286377  43.6041069  66.9653397  28.0752697  43.9128494
  66.1628418  27.8307838  42.6530037  29.5368938  49.1632080  47.9107437
  30.1755390  49.8761978  47.9076500  28.7086544  49.5845337  48.1403923
  58.6022682  41.3421936  34.0414429  58.0307426  42.1100388  34.0391502
  58.7161446  41.1256142  33.1160507  16.5981541   2.9634101  83.9585190
  16.0659885   2.6565700  84.6926041  16.1628513   3.7638621  83.6652298
  82.4843445  22.3347588  55.3639030  82.4935226  21.7358036  54.6173096
  82.0166397  21.8567352  56.0487213  69.6711197  21.6571083  43.1985359
  69.4280014  22.4330788  42.6935654  69.2271118  21.7695217  44.0390472
  61.7413788  63.7180099  12.4738102  60.9975739  64.2842789  12.2680750
  62.3954277  64.3082352  12.8480902  15.1965027  11.1350346  15.5547724
  14.7487707  11.9297628  15.8448992  15.8430691  10.9610949  16.2388248
  70.7981644  50.3380051  65.2466049  70.4982300  49.6897774  65.8838425
  71.2638092  49.8261032  64.5852737   4.5629053  46.5668259  17.3636951
   3.6549163  46.2824211  17.2592793   4.5541763  47.4915314  17.1165638
   6.2953272  70.7147446  43.0351334   5.5985146  70.6089478  42.3874550
   6.1491933  70.0063324  43.6620483   6.4437060  46.2924500   8.2971935
   5.6615262  45.8731155   7.9386024   7.0594392  45.5726776   8.4351492
   5.4959278  58.3599129   6.1574821   5.0923162  57.9842644   5.3750386
   5.9925199  59.1113777   5.8335538  61.3261261  18.6529808  89.2109146
  62.0893059  19.1534119  88.9221954  61.4215469  17.8022594  88.7826614
  22.7426395  63.7410507  64.4406128  22.5676956  64.4492264  63.8208466
  22.4347725  62.9516144  63.9953804  24.9599247  37.4497490  52.8639107
  25.4979153  36.8095284  52.3981705  24.0951843  37.3747330  52.4603920
  31.3586655  38.9277763  19.9536190  32.2544212  38.9686852  20.2885475
  30.8862057  38.3997307  20.5971889  77.7015533  62.9245262  21.8433819
  78.3827133  62.9574814  22.5150738  77.2067719  62.1297607  22.0428104
  70.1346359  25.6585655   9.5660028  70.2752228  26.1130199  10.3966284
  69.6053772  24.8952389   9.7972031  39.5116730  39.5162621  51.8767624
  39.9243050  38.9283905  52.5095100  38.8753319  38.9669151  51.4190254
  34.7407265  62.2262726  22.4520359  33.7841415  62.2430534  22.4220428
  35.0104980  62.9634171  21.9042435  34.0990219  58.2365875  25.1697483
  33.6713295  57.8772812  24.3924389  35.0093193  57.9498749  25.0963554
  65.4092407  18.3293705  81.9331665  65.7571335  17.6636963  82.5265274
  66.1775894  18.6614151  81.4688110  40.5553207  58.8468437  34.3118820
  39.6333504  58.8395920  34.0546875  40.9646187  58.1848221  33.7547188
  66.1471786  51.5265312  27.5808353  65.9260101  52.0191917  28.3711529
  66.3575745  50.6479950  27.8972797  46.2999115  55.1872673  68.3416595
  46.1884804  56.1378784  68.3292389  47.2050514  55.0485573  68.0628815
  78.2680359  27.6456318  32.2551155  78.8093491  28.3844509  31.9769840
  77.9428940  27.8987904  33.1190758  41.8320999  64.7755585  25.2411957
  41.8295593  65.3726959  25.9892960  42.0370750  63.9200020  25.6183414
  68.2549591  38.5138206   0.0819983  68.7922363  37.7259903   0.1649830
  68.6914139  39.1608467   0.6361619   5.9661379  27.9153309  35.3128510
   5.9224405  27.1693745  34.7146263   5.3932772  27.6728077  36.0403442
  29.4586182  59.7608643   7.6137586  29.0348778  60.0170937   6.7945995
  29.4862633  60.5657463   8.1310940  67.9048767  50.1318665  62.4099770
  68.5182877  49.6870232  61.8250999  67.9309692  51.0476799  62.1327705
   8.4713783  32.5932732  79.9199066   7.8504629  33.1342087  79.4319687
   8.2200165  32.7076340  80.8364029   3.3407571  49.3111687  14.7054386
   3.8456459  49.4502144  15.5066776   3.9377813  49.5601578  13.9998903
  47.2681046  47.7563744  27.1718140  47.8314705  47.9945908  27.9080925
  46.7195816  48.5279846  27.0304871  67.5676956  20.0355167  10.4543591
  67.6291504  20.3398857  11.3597946  66.8607025  19.3903389  10.4660215
  24.8629398  69.8839722  50.3264313  24.6558113  69.1894531  50.9517174
  24.1488895  70.5140610  50.4230995  54.7795334  30.8604221  25.1791534
  55.4365730  31.2833748  25.7320023  54.4272118  31.5692272  24.6409225
  26.4873142  47.6029549  48.3143806  26.1301765  47.6069450  47.4263115
  26.6731529  48.5230179  48.5019379  71.9551392   4.1550827  50.3308487
  72.1997299   3.4506030  50.9309425  71.3187714   3.7548463  49.7383308
  74.8704453  48.1667023  60.7384758  74.9293976  47.2143784  60.6620865
  74.4380341  48.4454193  59.9312744  12.6634092  67.2608871  30.2798176
  12.8861790  66.5653229  30.8985195  12.7219038  66.8443985  29.4199677
  12.8313217  49.0779953   8.5563364  11.9453020  49.0725708   8.9185133
  12.7381859  48.6826897   7.6895652  77.7476120  21.2069588  18.8314495
  77.2508163  22.0023346  19.0232964  78.2789078  21.4345989  18.0684719
  11.9712830  40.4709969  71.3926010  12.5388079  40.9369125  72.0066605
  11.7090454  41.1365662  70.7566071  28.0491505  17.4128017  72.5313110
  27.3783360  18.0791149  72.3820877  28.7522182  17.8780632  72.9845886
  36.1864815  35.1959991  58.2406540  36.5450172  34.3094292  58.2816238
  36.8656006  35.7472076  58.6294937  60.2418709  14.4036036  88.4640961
  60.8776894  13.6977968  88.5815887  60.7740746  15.1960430  88.3931580
  26.4639454  25.9655132  71.4708557  26.6315784  26.0970020  70.5376663
  26.2411098  26.8365726  71.7992325  76.6732101   1.0069287   8.7071695
  77.5802612   0.7140023   8.7947998  76.2816315   0.8331181   9.5631409
  58.7870941  40.1344528  39.6928444  58.7820625  39.2048454  39.9209633
  59.0001984  40.5809975  40.5122452  20.8010826  11.1248283  68.5477829
  21.4404659  11.5034819  69.1511459  20.3353024  11.8795786  68.1877365
  76.7291336  36.4233971  23.4460888  77.4235153  36.5969543  22.8105259
  75.9190750  36.4939575  22.9410515  71.5606079  20.0806198   9.4666691
  72.2207336  19.4617500   9.1544647  71.3624115  19.7904892  10.3570471
  81.8886414  61.4660988  77.0882416  82.5035934  61.3403511  76.3655701
  81.0589218  61.1199074  76.7596817   4.4690642  19.3580399  59.8608170
   4.4457326  18.9322929  59.0038338   3.8785777  18.8358459  60.4038391
  80.7491837  51.0482292   6.2662768  81.5360107  51.5648575   6.0924053
  80.4833374  51.3063812   7.1488395  37.4688225  56.0955925  56.2384567
  36.6325722  56.1997375  56.6924057  38.1269226  56.1632004  56.9302406
  63.9509811  64.8593750  88.0492249  64.3197250  65.7401505  87.9821548
  64.6635437  64.3277740  88.4040298  86.2092743  11.0674286   4.9968610
  86.8153534  10.6468792   5.6068082  85.4522400  10.4822836   4.9697795
  79.3016281  57.2915688  12.8377733  78.6407623  57.0486221  12.1893415
  80.0468216  56.7225571  12.6450472  41.5798607  28.7394695   5.3332906
  42.3795166  28.6274071   5.8473225  40.9880676  28.0618668   5.6601906
  61.4698410  27.4531689  36.0959778  61.8904839  28.0620270  35.4888649
  61.8828545  26.6091900  35.9133568  43.9561615  59.2050476  22.1293583
  43.0480728  59.1996307  21.8267384  44.4678230  59.4139709  21.3478317
  57.4810448  21.9889221   2.2097685  57.3582306  21.0806656   2.4858418
  58.3936501  22.0311069   1.9240984  63.3545532  19.8471603  82.7216415
  62.9763870  19.6955128  83.5877991  63.9962921  19.1451187  82.6142273
  51.1532593  54.7800560  52.3453255  51.0674934  55.6909065  52.0638466
  50.7762375  54.7647057  53.2250137  71.5819321  45.1964607  46.1702881
  72.2581635  45.1076012  45.4986916  71.5612793  46.1330109  46.3669472
  32.6189537  32.9731941  69.7662888  32.7597656  32.0367241  69.6268845
  31.8208218  33.1709404  69.2762756  60.9862747  67.4933472  15.4951315
  60.7641029  66.9288635  16.2355556  61.5170937  66.9395752  14.9225912
   6.8755608  52.7768707  49.4791336   7.6823306  53.2751617  49.6097565
   6.7360339  52.7908936  48.5322609   6.8144269  33.0580978  41.6654968
   7.3371954  32.8572197  40.8892288   6.1529484  33.6765442  41.3553276
  43.6215134  68.8449249  82.9264755  43.4599304  69.7481003  82.6537170
  42.9397049  68.3364792  82.4873199  42.3968163  61.3209610  79.5274277
  43.2047424  61.1740112  79.0355988  42.2874374  62.2718887  79.5297699
  76.9056931  23.4012547  56.5182152  76.8520966  22.8934116  57.3278160
  77.8435287  23.5347919  56.3808823  34.5162849  68.1302719  57.7607002
  34.7516708  69.0428467  57.9281235  33.5656548  68.1446228  57.6496658
  49.8547668  31.4405594  75.2680817  49.4885292  31.1999569  74.4170761
  49.4035149  32.2515450  75.5023880  55.4248619  62.1120033  25.8137321
  54.5757027  61.7136841  26.0047836  55.8725777  61.4692421  25.2636089
  23.1144314  52.6127167  19.6609783  22.6645832  53.1900024  19.0440445
  23.8912106  52.3149109  19.1875248  76.2144547  10.2895670   0.0401940
  76.2439957  10.4471817   0.9838661  75.7361984   9.4653444  -0.0501176
  74.0286789  70.6695557  46.7125969  74.2444000  69.9342499  47.2862053
  74.8756943  70.9807739  46.3933220  67.5637283  58.8050346  44.8347511
  67.5965652  59.5158310  44.1945038  68.3104935  58.9672089  45.4111786
  74.6211853  23.5331364  46.1227379  73.8707962  22.9431915  46.1942062
  74.2399292  24.3775635  45.8822784  24.6495552  27.1545601  77.6526947
  24.2712460  27.6104965  76.9008713  23.9222717  26.6507950  78.0180893
  85.5831070  67.6716995   5.7931762  86.0872040  67.9288712   5.0211825
  84.7202072  68.0629807   5.6570311  11.8074722   7.7466168   4.4168048
  11.0583296   7.2072415   4.1636419  11.8025208   8.4717855   3.7920351
  50.1084976  65.4411469  53.8718185  49.9658127  64.9799957  53.0452538
  50.6610870  66.1868591  53.6377487  21.5276318  10.0077248  84.3913345
  21.0714321  10.3668957  85.1523285  21.5038681  10.7119370  83.7434540
  20.7307262  47.8865662  65.4657440  21.5356884  48.0927467  64.9906082
  20.0404720  47.9477654  64.8054123  19.2156906   8.4584579  56.8529472
  19.9292374   8.7449446  57.4230423  18.9062958   9.2617626  56.4343719
  71.4344482   9.8355913  82.4368515  70.8591995  10.2614250  83.0724487
  71.5834351   8.9612417  82.7967758  70.8896408  54.9631042  76.0233841
  71.1847458  55.0654602  76.9281845  71.4816132  54.3096428  75.6508484
   9.6610279  33.7749786  72.5373077   9.5123711  34.7160301  72.4448090
   8.9242945  33.3699913  72.0796585  17.7987518  55.2450752  15.7901983
  17.4202824  55.1824341  14.9132328  18.6924572  55.5550537  15.6437874
   7.5630112  33.1766281  82.5911942   6.8381829  33.6753616  82.9681854
   8.3264427  33.4368362  83.1066513  61.9938469  66.6269455  41.3957634
  61.5007896  67.4450760  41.4573097  61.4629517  66.0695648  40.8268089
  51.1592178   8.2547064   5.7111678  50.5979385   8.9951258   5.9413347
  51.5424767   8.4976006   4.8683467  18.1178665  50.4361801  25.7537670
  17.1963501  50.6788101  25.6633759  18.3074551  50.5579338  26.6840706
   1.7706895  49.5119934  38.1329918   1.8503046  48.9687233  38.9170570
   1.1366949  50.1877136  38.3731689  69.8027115  61.8683929   1.1697323
  68.9387817  61.5846939   1.4687036  70.2960587  61.0558434   1.0574827
  56.6291237  43.3113174   4.9872746  56.1721039  44.1476212   4.8980470
  56.4926987  42.8730125   4.1473293  83.4788742  70.6590652  28.5706272
  84.2210999  70.7066574  29.1731777  83.6151733  71.3874435  27.9647236
  47.4138412  48.3830528  21.8655243  47.8081207  49.1670074  22.2478771
  46.9356995  48.7039986  21.1009293  56.0564308  42.3852615  60.2296448
  55.5388107  41.6740303  59.8522110  56.3476295  42.8963890  59.4745407
   2.3155966  49.6763000  83.8824615   1.8816947  49.7976494  84.7269974
   2.2831826  48.7318687  83.7300491  51.7168350  21.6859970  86.5257034
  52.6287231  21.5088482  86.2948151  51.7289886  21.8049679  87.4754028
  27.4195709  70.3932114  53.5275764  26.5925846  70.8185806  53.7542572
  28.0925846  70.9707031  53.8878288  60.8555641  63.4960823  67.8033905
  60.9894753  64.3586884  68.1960907  61.7123451  63.0727119  67.8573914
  39.4835587  21.0844498  69.1992722  39.3665924  21.8633003  68.6552658
  39.7654457  20.4047928  68.5870285  53.8166008  28.3415775  87.6610489
  54.5715561  28.8978672  87.4691772  53.8200378  27.6846581  86.9648590
  67.6926346  21.0089817  12.9547729  67.8612518  21.2609921  13.8626776
  68.5345383  21.1238022  12.5140285   2.6291318  18.8404961  15.9437590
   2.4796481  18.5362473  15.0485935   2.9837718  19.7235603  15.8405123
  23.4454861   6.8105941  53.7663307  23.3868484   6.3020473  52.9575233
  23.6447659   6.1630411  54.4424934  63.3427620  71.1724930  68.1101913
  63.4272537  70.5516739  68.8338470  62.9157677  70.6726608  67.4144363
  31.4952164   3.7629597  24.1863842  32.3194733   4.0982800  24.5390759
  30.8196201   4.1677680  24.7303810  80.3875504  55.2637062  82.2680359
  79.9101562  55.6292229  83.0128326  80.2861328  55.9161453  81.5750198
  45.3236389  60.8962479  63.5725327  46.0719566  61.4355659  63.3168144
  45.1299400  60.3715858  62.7957191  85.2069016   8.3820639  87.7765274
  85.2142105   8.8631392  88.6040192  84.7816544   8.9759922  87.1579437
   4.4798942   4.9955225   3.3202455   3.6514533   4.7571177   3.7362747
   4.4585886   4.5517058   2.4724221  12.2101507  62.7160912  81.6496735
  13.0835819  63.0024605  81.3825760  12.3020496  61.7752037  81.7997513
  77.1661301  27.9999352  48.7284775  76.6375656  28.7809315  48.5644760
  76.6424026  27.4799366  49.3380241  84.0454178  16.2261848  55.5000191
  84.9207230  16.3155575  55.1230774  84.1988983  16.1148434  56.4382477
  76.8262405  44.4888916  86.8260193  76.4595184  45.3603592  86.9753342
  77.1221619  44.2023048  87.6900330   2.9812026  23.2880478  38.6638641
   3.0937116  22.8812561  39.5229912   3.8238485  23.7050152  38.4840927
  52.7966423  10.3602142  35.3070374  52.8470802  10.0155268  36.1985970
  51.8587418  10.4459982  35.1361160  64.2214355   8.7434750  58.8255463
  63.6719017   8.6206799  58.0514908  64.3323669   9.6918631  58.8925209
  74.0841446  65.5208893  77.5638351  73.5670547  64.9511490  78.1332550
  73.7157211  65.3851776  76.6908646  14.5432625  65.3285980  12.4679375
  14.6037807  64.3913727  12.2830944  13.6085052  65.5250931  12.4058819
  51.1629333  41.4986496  42.5947876  51.8647842  42.1127281  42.3790512
  50.9865990  41.6528969  43.5228729  12.6824980  69.3401794  81.5255051
  13.1584349  68.6528854  81.0593033  12.3900681  68.9219360  82.3353119
  39.4196548  36.1268311  15.2216673  39.6035042  36.1218185  14.2823029
  39.9429207  36.8514290  15.5642729  57.6233215  15.1623669  77.7467422
  58.5506020  15.0194740  77.5571060  57.1730843  14.4523630  77.2891235
  47.8824043  43.1430817  72.1008835  48.1894417  43.6030846  72.8821335
  48.6272888  43.1676216  71.5002365  38.8902016  58.0299187  22.8539753
  39.2133446  58.7185783  23.4349709  39.6347923  57.8246231  22.2885818
  37.7291870  29.5647850  44.5971794  37.6106110  28.8069935  45.1698227
  38.6733284  29.6043301  44.4446526  46.7968979  19.3244724  37.9425735
  47.3459625  20.0840569  38.1369743  46.9515419  18.7241955  38.6719475
  62.9798698  18.0746784  52.9809341  63.8147888  18.3583641  53.3533096
  63.2063942  17.3285294  52.4257965  69.0700455  30.8214531  22.8912907
  68.7214584  31.2217484  23.6878376  68.3231277  30.3620644  22.5074730
  41.4468842  52.4016724   7.1115780  40.9935570  52.6241379   7.9247394
  41.3347511  53.1730881   6.5560813  12.5418463  67.2647858  54.4716454
  11.7168274  67.7477722  54.5196304  12.3913517  66.4805984  54.9995003
  51.5357132  49.3480492  79.9213333  52.2844315  49.9433289  79.9573059
  51.2976799  49.2069283  80.8376617  55.4105873  49.3379288   1.9162012
  55.9109039  49.8386917   2.5605218  55.2255325  49.9647827   1.2168899
  78.0410614  46.7159348  69.2441254  77.3128281  46.4261513  69.7936172
  77.6493149  46.8573151  68.3822861  21.7301159   9.1496820  66.6542511
  21.4469585   9.8437195  67.2495422  22.4591675   8.7272511  67.1084213
  32.2912178   7.3693523  82.3416748  32.4275322   7.8738275  81.5397034
  32.4068565   8.0055809  83.0474167  74.6933899   2.3289344  69.7002106
  75.4870682   2.1155763  69.2094955  74.0031662   2.3595402  69.0377274
  84.0418854  48.4285698  27.8663120  83.3935699  47.7864304  27.5772076
  84.1517410  48.2538643  28.8010006  32.8890228  39.5918198  71.7949753
  33.4448586  40.2969246  71.4631577  33.4464149  38.8141518  71.7670898
  56.2833290  13.3004208  72.7287216  55.8006554  13.3822756  73.5512543
  57.0907707  13.7933111  72.8747635  68.4923706  18.5531521   6.4466014
  68.4306717  19.3951588   6.8976583  67.6090393  18.3944435   6.1137776
  75.2096863  52.3397827  21.1786804  74.9524384  53.2563820  21.2781658
  74.5093536  51.9498978  20.6554642  78.2462540  66.5817337   7.3905144
  77.8856430  66.0129089   8.0706835  77.9859467  67.4644699   7.6536722
  12.3754034  66.0926208  77.9254150  12.1225643  66.9978333  77.7440491
  13.2393923  66.1620483  78.3315353  43.1932297  46.3721275  32.7353859
  42.6299095  47.1302986  32.5802155  43.1001396  46.1920357  33.6708717
   3.1884179  51.5205650   3.6631966   2.6200509  50.7886353   3.4234757
   2.7010231  52.2998161   3.3958950   1.7174897  65.3652344   7.8408022
   0.9546752  64.8866577   7.5162954   1.5715008  66.2682114   7.5587549
  11.4703579  66.2970047  49.1997986  11.2085600  67.0598526  49.7153168
  12.1660442  65.8875809  49.7142181  53.1305733  22.9866657  82.2245331
  52.4472809  23.4957962  81.7884903  53.8598251  22.9840755  81.6045227
  82.2187195  30.9492283  64.9814987  81.5675583  30.3170872  64.6771622
  82.4487534  30.6512470  65.8615646  76.7397537  53.8107986  53.2609901
  76.4366989  54.4458542  52.6120720  76.3521423  52.9808731  52.9831123
  69.5071411   6.3291264  63.5722771  68.8445129   6.9984441  63.4014816
  69.1142349   5.7682905  64.2410965  12.5190096  56.7328568  63.8412552
  13.3162899  57.1960907  64.0981445  12.1674242  57.2463760  63.1139870
  41.1804276  15.5411091  65.8749924  41.8976479  15.1850529  65.3505402
  40.8582993  16.2852745  65.3663788   2.8592789  52.6610641  35.2430420
   2.5881565  52.8764381  36.1354218   2.1572065  53.0039291  34.6900787
  66.5179520  36.4031410  14.4557095  67.3179016  35.9031982  14.6180725
  65.8096313  35.8084793  14.7024689  28.5265465  46.4017410  59.8491325
  28.7603912  45.4760857  59.9178085  29.2579460  46.7991180  59.3765030
  24.9465008  31.7157230  21.9800701  25.5799923  31.4991798  22.6641979
  24.8261414  32.6622849  22.0560188  70.9265060   8.1189518  88.1933594
  71.7524490   7.7254853  88.4748611  71.1154099   9.0554237  88.1336365
  86.3868179  32.2911301  23.4214802  86.4986038  32.4874191  24.3516445
  86.8512650  32.9961472  22.9704094  36.2917976  40.9767456  80.2159882
  35.8148346  40.6697540  80.9870224  35.7826424  40.6507492  79.4738846
  36.1051979  57.9022751  34.9483986  35.3233109  58.2211990  34.4976501
  36.6787872  58.6666451  35.0028687   5.8192301  65.9802704  48.3446312
   6.6915283  66.0499802  48.7325325   5.3937602  66.8098907  48.5612831
  26.0247879  70.2884140  24.5210934  25.4748764  69.6079712  24.9094658
  25.4455643  71.0458984  24.4377747  84.1278915   9.9313335  42.5461273
  83.6403122   9.2595301  42.0694885  83.4710922  10.3599215  43.0949097
  50.6424217   4.8705201  67.3534622  50.7063370   4.3648691  66.5432358
  51.4787903   4.7224431  67.7948074  82.3750229  39.7638969   9.7243643
  83.2870865  40.0485954   9.7819719  81.9212112  40.4966850   9.3080606
  48.2247276  22.8984604  71.6396103  48.7925529  23.2229061  70.9406509
  48.6355209  22.0813179  71.9220276  23.9348660  68.7605362  85.9363937
  24.4686470  68.8704224  85.1494827  23.9161396  69.6299286  86.3364410
  56.2728844  70.2602768  49.8784637  56.2696877  70.9471207  49.2117805
  57.0430832  69.7304382  49.6727867   0.2027872  66.6860046  70.3449478
   0.0154554  67.4040070  70.9496078   0.8177726  67.0590210  69.7133789
   5.8685479  55.8253670  41.3658371   5.4151206  54.9878578  41.4618149
   5.1659093  56.4695625  41.2789764  65.5870895  59.4786606  67.1905136
  66.0575256  60.2412338  67.5272751  64.9133072  59.8462601  66.6185684
  77.6661072  19.8671398   5.9940572  78.4306335  19.2983437   5.9035187
  77.4333725  20.1004372   5.0953684   1.9921367  38.2833252  18.7201023
   1.7961518  37.4804192  19.2029724   2.8601396  38.1320343  18.3460522
  81.7456970  53.0789223  51.6181679  80.7952881  53.1630669  51.6948700
  81.8945618  52.1403542  51.5034637  61.4853020  33.2760162  29.9679203
  61.1869736  33.7669678  30.7335548  62.3428154  33.6489754  29.7634583
  27.1358871  65.8527527  67.7128601  26.2227726  65.9965286  67.4643021
  27.2041969  64.9060516  67.8366776  26.5502949  68.8964996  30.0203362
  27.2440586  68.4181519  29.5663490  26.3262482  69.6136703  29.4272957
  55.0876961  35.2832756  28.0460052  55.8974915  34.7787132  27.9692898
  55.0962791  35.6149063  28.9438801  68.7134399   3.5374377  13.5984173
  67.9434586   3.0539601  13.2990723  68.8229370   4.2364192  12.9536953
  78.2138443  43.0629272  -0.3143020  78.9548798  43.6372871  -0.1213832
  77.6462784  43.1383896   0.4527743   7.5294142  48.0262985  62.6762505
   6.6699786  48.3229904  62.9755478   7.8269715  47.4259491  63.3598251
  80.3619385  32.1802330  41.2370110  81.1887054  32.1840668  41.7193756
  79.8878403  32.9429474  41.5682678  26.6205597   3.1251132  13.7401695
  26.8899689   2.7179427  12.9168463  27.4239559   3.1717668  14.2584438
  74.4120331  55.7649879  82.9278793  75.0428314  55.0451736  82.9139099
  74.8309250  56.4402122  83.4615784  41.6706314  16.8065529  80.2144089
  41.8465424  17.7100391  79.9517365  42.1968422  16.2763386  79.6159058
  32.6099815  18.5741653  65.5580292  31.9966469  19.1483364  66.0167007
  33.0980606  18.1382217  66.2565689  78.7045059  13.5984659  16.2016811
  77.9703293  14.1376829  16.4957256  79.0902557  13.2582932  17.0089664
  83.7021637  39.3625221  40.0330887  84.4969254  39.1601219  39.5395088
  83.5278015  40.2835083  39.8391533  41.3411369  41.5650444  40.4818573
  41.8185577  42.1859055  41.0321579  41.5986328  40.7045364  40.8126984
   0.7168858   5.3276792  47.3226089   0.2990605   5.4414530  46.4689674
   0.0603343   4.8752766  47.8522377  77.7180786  58.8964996  67.8894806
  77.3104172  58.9024124  67.0234528  78.4579163  59.4986382  67.8100586
  77.2713852  20.6263123  41.2213936  77.9181900  21.2991123  41.0087509
  77.0043030  20.2739925  40.3724098  14.2710505  36.6857491  46.9747391
  14.5694847  37.4293671  47.4983826  15.0692596  36.3357811  46.5789909
  81.2207184  35.6539879  23.2886639  81.3223267  35.4599648  22.3568573
  81.4399261  34.8331223  23.7295265   4.8255925  20.2057705   4.5986996
   5.1726723  19.5656490   5.2199993   4.9993429  21.0540771   5.0066414
  54.8318939  36.8345871  17.0182476  54.4466820  36.4331512  17.7971516
  55.7544174  36.5812035  17.0495625  65.2131271  58.5654373   2.2103906
  64.7531967  59.1306686   1.5897430  65.6802216  57.9362755   1.6606520
  58.8581161  30.7244034  78.3288803  58.8906441  30.3149910  79.1934891
  59.1685486  31.6179733  78.4751663   6.3620062  25.3469563  20.0060902
   6.5212188  24.5524292  20.5156078   5.8241506  25.8945103  20.5780411
  45.3384476  55.7286835  79.0516891  44.5719795  55.4661217  78.5419617
  45.1806679  56.6483803  79.2649765  47.0249901  13.8682489  77.8262634
  47.2758179  12.9790592  77.5759430  47.5874138  14.4337330  77.2969818
  71.5603027  58.4748993  43.2931824  71.3376541  59.1917152  43.8871803
  70.9663162  57.7660370  43.5400047  53.9621620   2.6297083  73.5053329
  54.1810608   2.7772815  72.5852585  53.4781799   3.4136190  73.7650986
  35.8955612  66.3043976  63.1250114  36.7386856  66.7575760  63.1260071
  35.9878578  65.6282654  62.4537735  20.9226456  33.4817467  62.6767731
  20.8768311  32.7405014  62.0728798  20.4989109  34.2000198  62.2069168
  79.9145279  64.8518219   2.7332411  79.8258133  63.9686012   2.3750749
  80.7793198  65.1421280   2.4432621  30.3429451  57.8555679  52.0650635
  29.5373631  57.9497185  52.5734024  30.1369095  58.2452202  51.2153854
  62.7641602  51.2001762  18.9160137  63.3834839  51.6026726  18.3071899
  61.9049683  51.4927177  18.6119652  75.5774002  56.1477814  87.1991577
  75.9184570  56.5198631  88.0124588  76.3526535  55.8247414  86.7399597
  20.2242947   6.8215985  76.6281509  19.7315865   7.4894171  76.1511917
  19.6353054   6.5451837  77.3302307  27.0370407  56.2862053  78.7709122
  27.7692986  56.9023514  78.7512054  27.4171486  55.4730110  79.1032791
  83.1101608  27.5704746  52.6459045  82.8183975  27.0661201  53.4053307
  82.3845901  28.1668987  52.4613609  58.9446220  29.8796005  73.9387512
  57.9913177  29.8263569  73.8708954  59.1596336  29.3538570  74.7092056
  69.9194031  50.3457756  28.6025906  69.2912369  50.4830818  27.8935127
  70.3469849  49.5170593  28.3866463  37.4372444  51.3087044  46.2201729
  36.8591385  50.8716660  46.8454933  36.8753242  51.9461517  45.7795639
  81.7736740  55.1786919  25.3538094  81.1847610  55.1671753  26.1083145
  81.9960403  56.1024284  25.2376175  63.4300041  50.9777489  57.4587822
  64.2692337  51.2869148  57.1176910  63.4885025  50.0235863  57.4099922
  48.9928169  56.0286026   6.6497154  49.5275955  55.6067696   5.9771833
  48.1863861  55.5134506   6.6724758  69.3594360  35.3918343   5.1167955
  70.2086792  34.9640350   5.0072412  69.2094803  35.8428383   4.2859273
  72.3479233  20.6899967   5.7064028  73.0075455  20.9877682   6.3328738
  72.5044556  21.2190113   4.9241810  51.8249168  26.7641354  74.8076172
  51.1924438  27.2840252  74.3117065  51.2926750  26.1167469  75.2700424
  39.9143066  -0.0590476  68.8553085  39.8829269   0.5555744  69.5884399
  39.4539528   0.3900740  68.1463699  33.6948318   8.3983793  70.9931107
  34.1454964   8.5409594  71.8254623  33.0588379   9.1117544  70.9398193
  38.1775780  45.3537216  61.1733856  38.1369171  45.0785751  62.0892830
  38.0749474  44.5429955  60.6749649  15.2442818  46.6598816  27.1786442
  15.7398911  46.6456947  27.9974232  15.6888323  46.0235863  26.6185265
   5.2618289  47.4583778  10.5843287   4.6564088  46.7278366  10.7108507
   5.4949579  47.4183617   9.6568146  60.8550148  29.6325436  72.2166367
  61.5560074  29.5429688  72.8622513  60.0492325  29.6045895  72.7325516
   8.1563406  16.7529945   5.7740374   8.3161087  15.8743839   5.4294386
   8.9462090  16.9619808   6.2726994  12.4708042  41.0396042  65.3549347
  11.6256466  41.2257080  65.7639618  12.9623356  40.5656052  66.0257187
  19.3725147  65.9929581  53.6160736  19.5161572  65.9824142  54.5623741
  19.3150387  66.9219971  53.3928757  40.6470337   5.9943323  69.1873245
  40.9820709   6.2894201  68.3406219  40.1292419   6.7318020  69.5102234
  83.9702301  32.7744026  40.8098030  84.7110367  33.3587189  40.9710922
  84.0099792  32.1352692  41.5212517  50.5277290  22.6890564  78.6461945
  49.7320404  23.0305519  78.2381592  50.8753853  22.0656929  78.0084000
  47.7550697  43.9498978  62.4448318  47.0511971  44.2175598  63.0357246
  47.6622810  44.5254097  61.6856155   3.8022406  42.8358765  58.3190956
   4.1806617  43.1832924  59.1267662   4.5522680  42.4999962  57.8283043
  62.5775375  20.0326557  12.2989388  62.8990784  19.1325989  12.2465553
  61.8231010  19.9836864  12.8860149  67.2698441  18.3750896  19.0988102
  67.0255585  18.1623383  19.9995289  67.4764099  17.5295296  18.7005787
  18.8087673  48.2132301  63.0732765  18.3476486  49.0508614  63.1177063
  19.6412067  48.4203186  62.6485558  72.3816986   0.8503714  18.0576210
  71.9733734   0.6516767  18.9002476  73.0333176   1.5218047  18.2596340
  79.8685532  20.5955276  62.4139061  79.6691513  19.8088074  61.9064217
  79.0976028  20.7262230  62.9659805  73.6561432  31.7349052  86.7318954
  73.9627304  31.1748180  87.4450150  72.7520752  31.4584808  86.5819855
  80.8922577  26.4194527  63.7092819  80.2148361  26.4874744  64.3821182
  80.6261978  27.0469818  63.0372314  49.5709305  25.4564190  13.8599482
  50.4708672  25.2005863  13.6577282  49.6307564  26.3847466  14.0854683
  49.3564491  32.9052658  85.7364960  48.4282646  32.7987633  85.5282669
  49.7159958  33.3842659  84.9898224  80.7960968  68.4118500  47.9993362
  81.4810486  68.6285019  48.6319046  80.8508682  69.1040878  47.3405190
  46.0013618  25.0566692  82.3161697  45.8715668  24.9890633  83.2621155
  45.1335297  24.9008446  81.9435959  27.2648506  53.9862633   4.7894340
  27.8532658  54.1504211   5.5263553  26.4941807  54.5231018   4.9741035
  80.9784012  36.7528648   4.7249436  81.5109024  37.0197678   3.9756484
  80.6522293  35.8842430   4.4897037  49.3384285  33.9419937  78.7761917
  48.6967964  33.4403687  78.2732925  49.1037788  34.8566055  78.6191635
  66.7406235  19.8382645  52.3741379  66.0502396  20.3719730  51.9807510
  67.4386444  19.8289165  51.7192268  85.5234604   4.2246580  80.2377701
  84.7703934   4.8111634  80.1661148  85.7910538   4.0667434  79.3323975
  58.3847771  -0.0384320  14.0220022  59.0719452   0.6158338  14.1483707
  58.3904572  -0.5509464  14.8304138  41.6319084  26.5264339  79.1384811
  40.9064598  25.9450626  79.3664322  41.2465134  27.1674938  78.5411987
  68.6203995   0.2963170  70.2079697  67.7685547   0.7300873  70.2573929
  68.4398804  -0.6136030  70.4439621  71.9115677  51.0903320  78.9683228
  72.8629074  51.0392494  79.0609055  71.6032486  51.3876953  79.8243332
   6.2653294  25.4288940  11.7781954   7.1821871  25.5717392  11.5432510
   5.8988276  24.9518089  11.0336838  82.1941223  32.0606270  69.8128052
  82.0183411  32.6332893  70.5593872  82.9115601  32.4891090  69.3459778
  85.8491745   6.2224102  54.0071182  86.4537125   6.2484941  54.7487984
  85.3584061   7.0418773  54.0692062   6.7734318  11.2728167  83.0329285
   7.2300596  11.5817251  82.2504272   5.8470626  11.4233665  82.8447571
  86.5017014   5.0686946  31.6504192  86.9092789   4.2985482  32.0466347
  86.0866394   4.7370811  30.8541889  47.2675743  25.1277943  79.9094086
  46.8436470  24.6337013  80.6111145  47.5411720  24.4615936  79.2788925
  69.9973984  10.8597879   8.6373663  69.9400940  10.5977163   7.7185264
  69.6464691  10.1125736   9.1218815  55.3150177   6.3938136  25.8011608
  56.1213341   6.3932056  25.2853222  55.5242119   6.9213700  26.5719738
   7.0775452  59.3269196  23.2498646   7.8465929  59.2415314  22.6863880
   6.5657411  58.5365105  23.0779819  31.6838531  47.4285316  26.7493782
  32.2503853  48.1995277  26.7204361  31.9515820  46.9642143  27.5424500
  50.6035156  17.6499786  19.1919327  50.3699570  16.7569523  19.4452820
  49.9638557  18.2017097  19.6421070  63.4252968   6.0625935  31.1259575
  63.2140083   6.8099399  30.5664368  64.0291595   6.4157104  31.7793255
  60.1670609  15.9797459  52.3509483  60.0025978  15.5599451  53.1953125
  60.2797661  16.9065247  52.5621567  46.5713196  41.3682327  74.4512482
  46.8736038  41.7803383  75.2605896  47.3676262  41.2402077  73.9357529
  74.6656342  46.0931206  44.7951355  75.4798279  45.7579575  44.4196587
  73.9776535  45.5782013  44.3735123  83.8936539  47.8047066  33.6225586
  84.6998444  47.3060150  33.4898720  84.0819855  48.3694496  34.3721123
  86.8739853  36.7947769   2.0711761  85.9463043  36.9209290   2.2704921
  87.2581406  37.6673279   2.1566744  76.8415909  27.8266315  81.8864594
  76.5885162  28.3759193  82.6283951  77.6935730  27.4673767  82.1340485
   4.3666878   1.2435349  36.5835571   3.6675763   1.2981191  37.2350922
   5.0991988   1.7168789  36.9780273  71.4803696  68.0113907  70.9611511
  70.9193420  68.7853470  71.0109558  72.0076981  68.0460663  71.7592468
  54.2209358   4.7500052  43.1826363  53.8965797   4.7276812  42.2823410
  54.3568878   5.6797361  43.3652496  11.9591970  60.9165306   8.2665358
  11.1726665  61.4355850   8.0986528  11.9242210  60.7249641   9.2037182
  82.5262299  61.2452812  79.7513580  82.0794144  60.4298973  79.9788132
  82.4277420  61.3155441  78.8018341   8.3640852  17.6568642  57.9734039
   8.9710579  17.1162415  57.4678917   7.5877647  17.1075783  58.0822296
  54.1905975  50.8076630  23.8182793  54.5791779  49.9363289  23.8958225
  54.0008812  50.9031105  22.8849354  82.1104355   3.6134555  46.8867035
  81.7326736   4.4913621  46.9397049  82.9520416   3.7408841  46.4488831
  65.5033493  32.9955673  32.8281136  65.3491821  32.7949448  33.7512703
  66.0533981  33.7788162  32.8418465  79.0895462  42.4780197  10.1908197
  78.5133820  42.9311066   9.5752068  79.8046570  43.0946388  10.3477707
  72.8795242  18.7587242  68.0743484  72.3248138  18.0539570  67.7399292
  72.5395203  19.5499249  67.6564560  85.2558136  10.0024519   0.8478240
  85.5647736  10.9083443   0.8594984  84.4252625  10.0265121   1.3230550
  13.3996801  22.3953209  19.6257095  13.2258539  22.0125961  20.4856739
  13.9986153  21.7781239  19.2054996  18.7405567  54.3556747  73.2600327
  18.5076408  54.1875305  74.1731033  18.9182358  53.4889755  72.8946609
  17.2095070  13.8165026  71.4972382  17.2992287  13.6002846  72.4253693
  16.3679276  14.2685356  71.4368896  46.2856865  49.1598358  78.4101334
  46.7635880  49.7635155  78.9788284  45.6999054  48.6869164  79.0012589
  31.4808903  53.0051079  88.2930145  30.6668148  52.7598724  87.8532715
  31.1971378  53.4597435  89.0861206  80.9250870  22.4153671  17.6893158
  81.7825394  22.6775513  17.3542633  80.4703140  22.0552483  16.9279194
  85.0285339  17.7768250  78.5345993  85.8231659  18.3073101  78.5926743
  84.5885696  18.0902042  77.7443695  44.4339218  56.5025101  23.3923855
  44.1910095  55.6986275  22.9330463  44.8870621  57.0276794  22.7327690
  17.5600624  59.0623703  29.5680199  18.3936691  58.7032738  29.8719654
  17.6336212  60.0038567  29.7243099  22.0217743  38.2222443  71.7245102
  21.4852486  38.8628883  71.2576599  22.9116306  38.5709114  71.6713867
  42.5522461  14.6498137  68.1527557  41.9753036  15.0706930  67.5153961
  42.1439323  13.8006392  68.3213196  66.4385071  38.8408318  27.8570061
  66.8140106  38.7086411  28.7275009  65.7962570  39.5403824  27.9769115
  69.4198761   3.3725498  58.4865112  69.5921631   3.9182804  59.2537956
  69.7804108   2.5160425  58.7159538  71.5144272   2.4006729   6.4813643
  71.9019547   3.1836350   6.8725514  72.0544510   1.6792901   6.8041821
  56.5076447  62.7185898  28.3695335  56.1666985  62.6675949  27.4765682
  56.4998131  61.8134995  28.6809521  50.6990471  40.8608170  73.4138336
  50.0083542  41.0490036  74.0492554  51.3491020  41.5489273  73.5558472
  20.4198780  37.4763527  81.8756790  21.1096954  37.9247627  81.3864822
  20.5147038  36.5551300  81.6336288  36.8780594  49.8827820  62.8353157
  37.6620064  49.8195190  63.3808937  37.0214539  49.2459755  62.1352081
  76.8687363  65.2404861   9.3810244  76.2191467  65.7843781   9.8264980
  76.5579529  64.3440475   9.5076914  31.8249111  61.7383270  85.4204483
  31.3809834  61.3144684  86.1549530  31.4945202  61.2831078  84.6459427
  82.9556808  67.1609879  43.6371765  83.5247574  67.2669830  42.8748436
  82.0844727  67.4000092  43.3207932  54.2812691   9.1309757  54.6426735
  54.0459290   9.4182644  53.7604561  54.3797646   8.1818533  54.5671921
  78.2715149  64.3547974  36.5694122  78.8138580  63.8013382  36.0074768
  78.7455444  65.1850052  36.6172180  66.1141052  31.9815006   6.1947608
  67.0545120  31.9208241   6.0268693  65.8061905  32.6576195   5.5912027
  51.7312927   4.2080998  29.5309410  52.2383995   3.4804990  29.8910389
  52.3887672   4.8558583  29.2772293  53.0359001  35.7797394  26.4652081
  52.9582634  36.7088890  26.6817398  53.8771133  35.5163345  26.8383179
  52.7530861  67.0684662  10.9343958  53.6940002  66.9402847  11.0547581
  52.3666534  66.8044434  11.7693758  78.1045914  60.2035141  87.0727615
  78.3743515  60.9704132  86.5674591  77.2495499  59.9680519  86.7126236
  29.5190086  58.0497284  18.5439339  29.5695171  57.1008377  18.4286785
  30.4255009  58.3484192  18.4712257  72.8760376  28.2471619  68.9926071
  73.6882019  27.8317184  68.7027283  72.2773285  28.1447659  68.2528152
   1.7658200  45.7820435  10.7844782   2.3660014  46.3898163  10.3524790
   1.7658180  45.0062752  10.2237501  67.9073105   9.2853756  59.2126617
  67.4482574   9.0195074  58.4159050  68.7916718   9.5031738  58.9182091
  46.0124741  40.8257523  28.6668301  45.5220413  40.0062866  28.6021290
  45.6289215  41.3881950  27.9939404  20.7239780  45.7931252  55.1840401
  21.2311096  46.2576675  54.5182724  20.3080711  46.4869766  55.6957283
  11.4626245  11.9647284   4.4962120  11.5209217  12.9012289   4.6854205
  12.3687115  11.6931219   4.3496919  65.0190201  66.2845840  54.3775864
  65.5861359  66.7721558  53.7801933  64.3874207  66.9322586  54.6903763
   1.6850997  17.4176369  25.6840763   1.7485251  16.9818516  26.5339565
   2.4844816  17.9405785  25.6228065  65.0322342  37.2414665  48.9190102
  64.4368896  37.0172615  49.6342239  65.3627625  38.1106186  49.1460533
   6.8901563   7.4762163  87.4524765   7.7958593   7.1938620  87.3251572
   6.3649287   6.7860079  87.0475311  30.3534203  42.4014816  22.0631618
  29.9598465  42.8631020  21.3227329  31.2946796  42.4329071  21.8920631
  12.4120140   0.8916340  23.5339088  12.4387512   1.2489597  24.4215088
  12.9671431   1.4799187  23.0220642   9.0945196  64.0761871  11.8742895
   9.3643684  63.1859322  12.0997953   8.9294710  64.4973602  12.7178574
  36.6191330  66.5731049   4.0470300  36.9123573  66.1645737   4.8614993
  36.9794426  67.4592743   4.0803170  68.8590927  48.5158043  80.8573914
  68.3704910  47.8522873  80.3703156  68.3198700  49.3042068  80.7949905
  41.7394753  42.4441986  49.3399811  42.5556717  42.0337143  49.6255722
  41.5138359  41.9894638  48.5284805   5.0525031  43.8626289  62.3883705
   4.3691978  43.2969055  62.7479324   4.8488131  44.7324219  62.7321777
  49.3125916  60.7318764  75.1027756  49.7021866  60.5331421  75.9542160
  49.3100090  61.6880188  75.0578690  74.7767792  30.0872841  76.2796936
  73.8714371  29.9419899  76.5544052  75.3006058  29.5925369  76.9098206
  80.7547302  45.8018761  18.0187092  79.9383469  45.3134499  17.9129257
  81.4428406  45.1498680  17.8859482  66.5830994   5.4758105  10.9014273
  65.9233017   5.0886755  11.4767771  67.2801056   5.7593489  11.4930487
  17.3347797  37.5623741  39.8877258  16.7905579  37.1237526  40.5416870
  17.7429295  36.8484001  39.3979416  48.8998909  43.2456245  29.9215355
  48.8078995  42.6894608  30.6951332  48.0136795  43.5630264  29.7479858
  41.3483849  70.7247086  86.7089005  40.5532837  71.0904694  86.3212585
  41.5583649  71.3183899  87.4297867  36.6553650  14.7243271   5.5148783
  37.3799667  14.9459267   4.9300046  37.0660782  14.2437201   6.2336016
  32.4024887  52.1964684  41.4329109  32.9018173  52.9839325  41.2165718
  31.8542500  52.4563675  42.1732635  31.0930729  70.5020447  29.2011623
  30.3392391  70.5191574  28.6115265  31.8423920  70.6947556  28.6375885
  25.0440979  55.9706764  28.8537140  25.2063293  55.9187012  29.7956314
  25.8118343  56.4221268  28.5029945  29.0695839   9.6996946  75.4929657
  29.0832005  10.0497084  74.6021576  28.3482208   9.0705156  75.4920883
  22.2409782  59.8083038  88.2888031  22.0996704  59.3362465  87.4681778
  21.9426327  60.6994514  88.1069260  13.2534256  29.4630127  45.7731018
  12.4394321  29.5854912  46.2616119  13.7473469  30.2687836  45.9247818
  61.7306137  53.8000526  21.8065929  62.3315887  53.9469643  21.0761986
  61.9882622  52.9491653  22.1613312  78.7783432  37.4090691   6.4636478
  79.6370773  37.2593422   6.0681834  78.8808365  37.1271935   7.3726439
  58.2506599  39.2505798  63.9280396  57.5319023  38.7106171  64.2567673
  57.9216652  39.6120720  63.1050491  11.8441000  50.1961632  32.0568390
  11.4146290  49.5695992  31.4744282  11.6329899  49.8876724  32.9380302
  84.4280090  33.8532104  44.2866821  85.0008392  33.3600426  44.8739471
  83.8493423  33.1925812  43.9059601  66.3746872  16.3924484  65.5103912
  65.5913544  16.5131283  64.9736786  66.6957321  15.5224047  65.2733612
  75.6742630   7.6810756  64.0928192  74.8257446   7.5778627  63.6620064
  75.4609451   8.0080824  64.9667740  41.3505211  40.5337181  54.8289070
  42.2281342  40.2725372  54.5499649  40.8174591  39.7476807  54.7096481
  60.3166046  11.3659582  22.8754635  60.5787010  10.6428957  22.3056259
  59.3646278  11.2883883  22.9383526   5.1505547  49.0025597  23.6232815
   4.5686255  48.7842026  22.8953323   5.1621552  49.9595070  23.6419029
  83.1767807   5.4643612   6.0147133  83.2136078   4.5620122   5.6974726
  82.4798126   5.8710060   5.4998279  72.5669250  60.6725845  55.0638199
  72.8343658  59.7587852  55.1622086  72.4443283  60.9841461  55.9605522
  37.6933060  66.6763535  47.7843399  37.2097282  66.0749207  47.2180710
  37.0720482  67.3797836  47.9726295  65.4115372  36.9598885  68.3842316
  65.2701950  36.1200104  68.8210983  66.2385101  36.8496056  67.9149933
  36.5353737  71.5069046  82.8811188  37.3794670  71.9464417  82.9838181
  36.6386833  70.6777802  83.3481522  28.9047832  62.3916283  81.9564438
  29.3221684  63.2524414  81.9884644  29.5236912  61.8088455  82.3963852
  28.4977837  37.1172333  55.3909416  28.2997856  36.6568718  56.2064743
  28.1873741  36.5291138  54.7024689  14.6861916  47.7095146  46.3806915
  14.3469105  48.4534912  46.8782997  14.7976141  47.0167198  47.0317307
  31.5832729  55.6453781  44.0494804  32.5218620  55.4996490  43.9309731
  31.5155754  56.5601997  44.3228912  40.1844826  31.0775433  88.4001846
  40.7085800  31.6779690  88.9303131  40.6192436  30.2303410  88.4974442
  25.5986042  69.1475983   0.2602144  25.4735985  69.9925995   0.6921611
  26.1900158  69.3362274  -0.4684030  70.0895004  53.1632385  71.1175385
  70.8808594  53.0014915  70.6039124  69.3784943  52.8194733  70.5766830
   3.8436213  67.0671616  50.8669548   3.3348951  66.9934082  51.6744156
   3.7228129  66.2241745  50.4299088  48.8711243  30.3837547  21.5814133
  49.7655983  30.2080307  21.2894001  48.9556274  30.5620575  22.5180569
  19.7355690  17.4261208  77.1144104  19.7543907  18.2501240  76.6276855
  20.3880577  17.5410576  77.8052597  34.7910347  25.9202518  82.8098373
  35.1228371  25.5594978  83.6320267  33.9925308  26.3862762  83.0577164
  46.8175316  11.5314941  28.6826687  45.9958382  11.0590658  28.5490170
  47.0200958  11.9068823  27.8257637  70.0948715  55.5724144  49.3155289
  69.8361588  56.0832901  50.0825386  69.4630203  54.8541794  49.2818909
  56.9196129  53.4881363  22.0126667  56.3637047  53.9979706  21.4233704
  56.4704514  53.5248070  22.8571434  17.9698563  44.0557671  31.8001804
  18.1597176  43.1223450  31.8945675  17.0781498  44.0849380  31.4534225
  74.6659164  44.2704124  84.8038330  74.0757828  43.8588829  84.1724625
  74.9981995  43.5433235  85.3302841  74.1082077  26.2555523  21.3411942
  74.7612000  26.4473705  20.6681137  74.0674133  27.0527592  21.8694229
  78.9303665  50.4939384  81.8989182  78.6867142  49.6265411  82.2221603
  79.7901764  50.3672409  81.4977798  81.7605820  31.9133511  57.9175491
  80.9579620  32.1420860  58.3862953  81.8052444  32.5427856  57.1977921
  14.3825264  67.7926941  72.5822525  15.2318802  67.8276749  73.0222626
  13.7980127  67.3858871  73.2218475  60.3341904  27.7903519  70.0162964
  60.7503777  28.1095448  70.8170090  60.4540367  28.4997234  69.3849030
  46.3394547  58.4760284  73.3798676  45.4924355  58.9199562  73.3383636
  46.3829346  58.1257401  74.2696075  72.1052856  69.5142059  27.3011627
  71.2726669  69.9516983  27.4788799  72.1497116  68.8113785  27.9494610
  79.3839951  49.6883163  88.1036072  78.4907684  49.7028046  87.7598495
  79.8535004  49.0872536  87.5252380  78.9032898  65.6792603  33.9959068
  79.7334976  66.1556778  33.9926453  79.1327515  64.8002319  34.2973747
  67.2272644  59.7986259   4.6198606  68.0938416  60.1783180   4.4745359
  67.2001877  59.0356445   4.0424905  14.6482973  42.7010078  44.2860603
  15.2354765  43.2047806  43.7224426  14.6511421  41.8210793  43.9092941
  51.0972252  49.9612083  40.2963409  51.3353348  49.6311150  41.1627007
  50.8253174  49.1829453  39.8099213  79.8814163  39.1641350  19.7975006
  79.1646576  39.6760826  20.1721897  80.0759964  39.5970917  18.9662857
  70.2738571  23.1261959  39.7201653  70.8421555  23.3586140  38.9858284
  70.8693619  22.7744884  40.3819084  53.3042641  53.7514267  79.7327423
  53.7059021  54.1593170  80.4999084  53.5668869  54.3086815  79.0001221
  63.5869370  28.4420490  30.7420464  63.5548286  29.3987007  30.7464619
  62.6761780  28.1712971  30.8579979  29.6304226  55.6307907  45.9896164
  30.0452709  55.2240028  46.7503128  30.1277332  55.3015289  45.2409515
  62.2444458  31.1567249  14.3533936  62.0632401  32.0329742  14.0134220
  61.4077759  30.8614197  14.7125692  50.2544518  24.7529945   1.4610931
  50.6026917  25.3882103   2.0867620  49.7963638  25.2844982   0.8100232
  50.7808151  44.4671478  84.1067886  50.1757774  44.8446693  84.7452545
  50.2161674  44.0144920  83.4802856  76.1191330  28.1504402  78.2212143
  76.9008560  28.4134178  78.7069931  76.0450439  27.2090950  78.3780899
  77.9924469  20.9655209  64.4513931  78.3223114  20.2277222  64.9643021
  78.0343170  21.7111912  65.0501022  34.2843513  42.2289276  33.7959862
  34.5198784  42.3577919  32.8772087  33.5936546  42.8713722  33.9585648
  19.5645428  62.1600456  44.0023193  19.2841206  62.9384499  43.5209808
  19.4216385  61.4366379  43.3919983  26.1701412  56.4108582  17.4013863
  26.1226845  56.7590828  16.5110378  26.0642223  57.1776657  17.9644318
  18.6176147  60.7348595  40.2148514  17.8494663  61.2791443  40.0418396
  19.1663914  60.8411407  39.4378166   9.6788034  20.4875908  -0.1451422
   8.9287348  21.0584240  -0.3118085   9.3799095  19.8944740   0.5441383
  86.1138153  10.4622707  40.6867752  85.3980560  10.3210011  41.3064270
  86.2040253  11.4139595  40.6379623  20.3667259  50.3366585  60.1509018
  20.1900978  50.8813324  60.9179497  20.0883465  49.4586525  60.4113731
  32.7603989  45.8615494  28.6880875  32.1241608  45.4541435  28.1003342
  32.2690430  46.0324554  29.4915752  72.5581665  46.6675224  38.0294456
  72.6041870  45.7559090  38.3176804  72.2998199  46.6150246  37.1092644
  18.3004055  65.5284805  82.8690186  17.6285725  65.4082642  83.5401535
  18.9880142  64.9054718  83.1041489   1.4330931  44.1965065   8.6068926
   1.6803262  44.9339104   8.0489130   1.8463856  43.4367332   8.1968088
  15.4057932  44.3470726  51.0912552  14.8921385  43.5458870  51.1937027
  16.1609631  44.2225761  51.6660995  45.0270996  61.9334526  29.2876148
  44.7453842  62.0654526  28.3823814  45.2915611  62.8038292  29.5854931
  84.6792221  46.6168556  65.1622391  85.6179276  46.4314842  65.1888123
  84.2744217  45.7742424  64.9563828   4.1189723  27.1256008  12.5890141
   4.9366121  26.6324482  12.5219564   3.8142226  27.2080917  11.6853800
  34.5832024   2.3146744   5.1249900  34.7851562   1.9172767   5.9720559
  35.1051750   1.8163825   4.4961176  72.5845337  63.6731567  86.1913452
  71.7475662  64.0843964  85.9754791  72.3663254  63.0211220  86.8572769
  73.8073425  68.2012939  75.2555618  74.0533600  68.8400040  75.9247131
  74.6408463  67.8535309  74.9384460  53.2031059  63.8629570  75.9179306
  52.8181534  63.4049911  76.6651306  52.9479561  63.3390541  75.1585464
  56.3055458  58.1781082  12.3313208  55.9008865  58.7664528  11.6938810
  56.7174606  57.4964714  11.8003492  71.0830612  17.0930119   8.0900393
  70.8466415  17.4406185   7.2300920  70.5351181  17.5811729   8.7046022
  38.0816841  67.7540588  60.1393814  38.9237976  67.3007355  60.1790695
  37.6851311  67.4516220  59.3223724  67.0452347  28.7956333  83.5615158
  66.1186981  28.5789833  83.6655426  67.3830643  28.8386097  84.4560852
  54.3601227  39.2476578  72.8030701  53.4753265  39.0243721  72.5140839
  54.5366516  38.6425629  73.5234375  74.9722214  54.3434525  67.2366028
  74.1609726  54.8340492  67.1046371  74.8696442  53.9381371  68.0976639
  46.3471565  15.0012579   6.5887337  47.0849724  15.3777685   6.1090450
  46.5808144  15.1090784   7.5106936  60.0251198  58.3070908  84.8036194
  60.7015419  58.6334076  84.2101517  59.9813614  58.9621162  85.5002213
  80.0379639  23.6469498  36.3022804  79.1418762  23.3134499  36.3474464
  79.9521027  24.5867615  36.4623260  60.2807007   8.3900013  27.5949802
  61.1513786   8.7152815  27.3661957  59.6922455   9.1168928  27.3910713
  32.7003212  25.9178581  79.1366272  33.5881348  25.7668152  79.4609833
  32.4393921  25.0801907  78.7539215  55.7886543  20.4163284  36.0554886
  55.6183777  21.3556938  35.9859924  56.3418503  20.3299828  36.8318558
  62.6941032  32.1214333  33.8752289  62.7596169  32.8136864  34.5330467
  61.8461876  31.7104511  34.0436554  17.0879135  53.5610924  67.2152786
  17.5300274  54.4072647  67.2842560  16.5585365  53.5019150  68.0105667
  19.6783829   9.9675493  89.0459137  18.7896404  10.2813854  88.8789597
  19.8261623   9.2994518  88.3765564  81.3323517   4.1031961  32.1475906
  82.0936050   4.6824088  32.1124458  81.4829407   3.5562463  32.9185638
  68.2339859  50.1986580  18.7750969  68.6567307  50.4888916  19.5833549
  67.7667389  50.9716568  18.4582577  32.6360130  60.0278664  39.8082657
  33.2689323  60.6628075  39.4728699  32.1517792  59.7405815  39.0341721
  59.4315758  45.3290939  75.1002579  59.1873970  44.7030258  75.7819061
  59.7768059  44.7877197  74.3903503  81.5791016  18.9312592  64.2782516
  81.5347519  19.5599194  63.5577965  80.7883606  18.4005070  64.1820068
  21.0606117   3.9180872  57.3098068  20.1250210   3.7194955  57.2715645
  21.4391136   3.1934745  57.8077087   1.7791154  20.9720421  74.9562683
   2.2187996  20.1478252  75.1650162   2.2582412  21.3147030  74.2017822
  83.3523331  25.4552212  33.3221626  84.0784454  25.9470062  33.7057419
  83.3854218  25.6676922  32.3894272  65.1921005  22.1879730  15.4496670
  65.8271103  21.8391361  16.0752106  64.3728027  22.2369862  15.9421959
   3.9006708   1.3079262  70.5819931   4.0754685   1.1132838  69.6612396
   3.3116369   0.6092667  70.8668518  36.1965942   4.6440444  77.8554535
  36.5410576   4.9672108  77.0229034  36.9750557   4.4390454  78.3733368
   4.2202873  61.5449753  74.6003952   4.5281854  61.4652557  73.6975784
   4.9999232  61.7904129  75.0985489  30.7805119  41.0625839  31.7881203
  30.6659622  41.9458313  31.4374275  31.6310368  41.0874023  32.2265511
  49.0481491  15.1136436  16.4577408  49.6903877  14.4038858  16.4552994
  48.3409500  14.7948046  17.0184917  21.9878082  32.6088448  23.0315971
  21.3058167  32.9510460  22.4536533  22.4415779  33.3875847  23.3539143
  85.3980484  26.2737236  30.0159264  85.4118423  26.9776554  30.6644039
  85.9320984  25.5803986  30.4036484  51.3231201   4.1975346  64.8160172
  51.1998749   3.7815683  63.9627800  51.1692581   5.1281595  64.6532440
  11.3778276  49.6556778  52.6949196  12.1646824  49.3061371  53.1131477
  11.6978168  50.0782166  51.8978653   0.6960872   6.6068354  84.2540741
   0.0247601   5.9939661  84.5539780   1.0245830   7.0134687  85.0559235
   6.8140192  59.6135063  28.0460739   7.0172491  58.7629204  27.6569328
   6.9462843  60.2401085  27.3346634   7.9302373  19.5323963  18.2764511
   8.6905832  18.9509640  18.2699032   7.4271750  19.2601948  19.0439587
  80.0836334  45.5891190   9.7383919  80.2826767  45.7318459   8.8130589
  79.3729019  46.2016907   9.9277506  29.7947979  21.3011570  77.1621780
  30.1170654  20.4752483  77.5230789  29.6184425  21.1076126  76.2414856
  15.5073652  52.7191010  14.2762365  16.3960400  52.3858719  14.4005241
  15.6293011  53.6134338  13.9575882  75.7636108   7.2350659  85.9669037
  75.4665833   7.3968759  85.0714569  75.2801666   7.8681302  86.4976959
  44.5282593  57.0555229  70.9269333  45.3238869  56.6802979  71.3043137
  44.7874908  57.3322525  70.0480423  36.7855339  29.6192894  73.0723038
  36.4265633  28.7352734  73.1490173  37.3097496  29.5962925  72.2717438
  83.0442810  42.5169945  46.9845047  83.1931686  43.4123192  47.2885704
  83.8558578  42.2780342  46.5367546  38.6679382   9.7478676  88.9814682
  39.0039558  10.3199234  88.2914886  39.1757774   8.9413929  88.8924179
  30.0750408  61.2508507  46.4876785  30.8639469  61.7387810  46.7238655
  29.4162655  61.5406380  47.1187668  44.5141487  39.6112328  18.9439774
  44.8487396  40.4981956  19.0765533  45.2603111  39.1233711  18.5954609
  78.0760727  11.3487072   6.7943263  78.6829376  11.9004545   6.3008523
  77.4581528  11.9647894   7.1878357  41.3230667  59.5742340  55.5325546
  42.1408463  59.5894165  55.0353241  41.2916832  58.6974258  55.9152412
  26.2106304  44.9183006  55.6985474  26.6408405  44.0642090  55.6575813
  26.2961311  45.1859055  56.6135902  18.6442947  18.9904099   3.0626264
  18.6275692  18.1370087   2.6294305  19.4513741  19.4008427   2.7521417
  58.9397850  27.8779011  10.6736574  58.9471436  28.0967388  11.6054773
  58.1624222  27.3305950  10.5622978  77.7505722  59.9399529  62.3294373
  77.5773926  59.2897911  61.6486053  78.3922195  60.5322266  61.9373627
  61.3262367  36.6421623  84.0202789  62.0618248  37.2505493  83.9495163
  61.6750374  35.9012375  84.5158615  83.6096268  44.7614098  48.2421341
  84.0917664  45.5873260  48.2826080  83.0496902  44.7726593  49.0183907
  22.5635910   4.1487484  61.0168152  22.2578278   4.9831233  60.6610641
  22.3918056   3.5143299  60.3209457  15.1077881  61.7895241  60.2539062
  15.0138788  60.8778419  60.5300331  15.5536509  61.7389832  59.4083977
  53.3972588   8.1976242  27.7346382  54.1181488   8.4650812  28.3047409
  53.0121765   9.0205355  27.4333706  52.0220985  46.6679115  87.6846161
  51.6852798  46.7265511  86.7905579  52.8703613  46.2339783  87.5930176
  23.8668900  52.6543732  27.8840218  23.5465126  53.1100044  27.1055679
  23.7689934  51.7253990  27.6750889  60.3388519  61.4500084  28.9742908
  60.3903656  60.5397644  29.2658997  59.8827171  61.4068222  28.1338692
  68.8793869   3.6349881  50.8237114  69.2276230   2.8820050  50.3462410
  68.8251114   4.3301716  50.1679649  74.9621506  70.3499069  40.7606125
  75.3402786  70.6194153  41.5976372  74.2396622  69.7694397  41.0000038
  35.9250107  35.9096527  88.2417145  35.4538345  36.7364159  88.3450623
  35.6240196  35.5659637  87.4005737   4.4498377  10.8553648   8.1232224
   3.9955180  10.2522202   8.7114754   5.2906513  10.4323330   7.9491282
  38.1558075  59.8643227  56.4370995  38.7737465  60.4127045  56.9204865
  37.3993340  59.7862968  57.0183830   6.2470088   5.4543533  15.0056601
   6.7825303   4.9794989  15.6412401   5.3925467   5.0246215  15.0438337
  70.7552872  45.2938042   4.0680256  70.4625702  45.9005051   3.3879805
  70.5199432  45.7238770   4.8901443  77.3905411   7.5814071  81.8630371
  77.0409088   8.1314068  81.1619797  78.3367538   7.7218251  81.8283310
  29.1310387   3.5194728  74.4435120  28.7731266   4.2714748  73.9716797
  29.0383015   2.7877073  73.8334732  44.0392761   5.0540357  81.7082596
  43.4935265   4.2681675  81.6799622  44.7552376   4.8704619  81.1000366
  13.4964161  37.2241364  41.1417847  14.3517628  36.9054871  41.4300117
  13.4885206  37.0682030  40.1974030  71.4827652  10.7785587  56.0604973
  71.0775833  10.1447382  56.6523857  72.4089584  10.5371904  56.0487251
  49.3183174  25.9140816  87.2430878  49.2265778  26.4098721  88.0567245
  49.7819023  26.5073814  86.6520538   1.9284055  34.1302223  15.3432083
   1.0499424  34.1781578  14.9660654   1.7965544  34.2873039  16.2781792
  44.8366013  46.0868568  40.3077507  45.1717567  45.9086189  41.1864624
  45.2178726  45.3991508  39.7619286   8.3729706  54.0376587  63.7182236
   7.7440586  53.3609962  63.9688835   7.9295588  54.8622971  63.9171944
  12.8897324  68.3143158   9.9828615  12.2907934  68.3593979  10.7281609
  12.3225155  68.3854980   9.2151184  59.9751205  47.7140694  38.3741302
  60.8539276  47.8674660  38.7211189  59.4036331  47.7596550  39.1406517
  84.7058640  58.0746155  56.4033661  84.6062927  58.4073906  55.5114174
  84.7783737  57.1259575  56.2983742  79.6647568  25.7044811  59.8590240
  80.0825806  24.9383507  60.2523460  80.1145401  25.8192596  59.0219116
  78.3956528   4.5697331  31.8370037  78.5694122   4.9723797  30.9861717
  79.2596741   4.4742541  32.2377281   7.3948240  14.5157309  13.3954172
   7.9600401  13.8443365  13.0133286   7.8462725  15.3401804  13.2145586
  73.2507324  57.1205673  85.8940430  73.6662598  57.9817047  85.8492279
  73.8383179  56.5992737  86.4410553  29.6191940   0.8447072  14.5396271
  29.1741524   0.0175321  14.3553724  30.0953960   0.6841878  15.3543043
  52.1144981  10.0479717  15.2706060  51.8395538   9.1376238  15.3797112
  53.0709915  10.0115280  15.2756052  64.7740784  52.2051811  87.5606766
  64.2286606  51.4602165  87.8132095  65.4854355  52.2092209  88.2011337
  62.5881767  69.1846771  70.2940674  62.6334763  69.5008698  71.1964035
  62.0580826  68.3893127  70.3453140  27.9558754  62.2295418  52.8006439
  27.4749794  61.9684944  52.0152588  27.4592094  62.9690742  53.1508598
  77.7576752  71.5179977  50.7346115  76.9086227  71.3291855  51.1342316
  78.3976059  71.2523804  51.3950386  67.0502625  31.2555885  55.4014206
  67.8283386  31.1078320  54.8638382  66.6557617  32.0487900  55.0388832
  29.8568249  56.2826538  34.0096550  29.8285141  56.1436539  34.9562836
  28.9504070  56.4735069  33.7683830  71.8960114  50.8733292   3.6638451
  71.6818390  51.3652458   2.8711407  72.4081421  51.4841843   4.1937637
  41.6811714   9.2300186  60.2012138  42.4955025   9.6626263  60.4580231
  41.7807007   8.3294554  60.5099411  67.6456070  29.8825645  60.6440506
  67.8687592  29.3925858  61.4354782  67.1048660  30.6081562  60.9560585
  78.4390717  58.8294334  73.5401306  77.8146973  58.4774971  74.1745834
  77.9053040  59.3574257  72.9463730  41.3721428  65.4717941   6.8611193
  40.8187561  65.2611008   6.1090527  41.4818230  64.6382751   7.3187709
  58.8664055  52.3832588   6.4256339  59.7577667  52.0359154   6.4582052
  58.4096375  51.8131256   5.8071346  66.6813431   0.2001728  33.9489517
  66.4104385   0.6061329  34.7723808  65.9903564   0.4325178  33.3286438
  51.0113907  36.1303329  13.4341736  50.5046120  36.0127525  14.2376556
  51.9222565  36.0211411  13.7073669  52.1986046   4.7959514  32.8249397
  51.7442474   5.6105099  33.0400848  52.5852661   4.9574804  31.9643402
  60.0508232  16.4474697  62.3280144  60.8660889  15.9492016  62.2705536
  59.4960518  16.0791664  61.6403999  78.2695694  31.4551334  78.1257706
  79.0472107  31.6925945  78.6308670  78.5912323  31.3375301  77.2319412
  24.2923565  51.3979797  73.9123001  24.0419617  51.4541435  72.9901428
  24.0023823  52.2282372  74.2902145  49.5012016  20.5102043  13.0372543
  49.0073967  20.6256275  13.8490829  49.3403053  21.3138161  12.5427313
  30.5620041  44.6199799  42.9334068  29.8425503  45.1694336  42.6224136
  31.3512478  45.1240692  42.7353630  33.9484787  69.5447311  84.4219513
  34.4513397  69.5134811  83.6080780  34.1029625  68.6936035  84.8317719
  27.2325516  12.9544802  74.6723099  27.0808830  13.8596687  74.4005356
  26.4118214  12.5039206  74.4732437  17.4753056  65.8782120   1.0699539
  17.2242374  66.0995712   1.9667234  18.0741634  66.5779495   0.8092411
  16.0475922  30.5501785  65.3542328  15.6076870  29.7015133  65.3044357
  15.7182322  31.0354366  64.5977402   4.5719566  18.5299606  51.9567566
   5.5149240  18.4680996  52.1091270   4.4760818  19.2557945  51.3401489
  80.5108643  55.7073517  21.9424248  79.9731216  55.6628609  21.1518021
  81.3313065  55.2788696  21.6984863  56.4016647  49.3418465  83.5960846
  56.7464447  48.4605980  83.7401657  55.6833115  49.2194710  82.9754181
  83.7513123   0.1852647  48.8420601  83.4344406   0.3455193  47.9531631
  83.6387863   1.0230621  49.2911301  46.0057411  58.8829231  49.2177658
  45.8430824  58.3494530  48.4398308  46.0058250  58.2568207  49.9418030
  30.6199703  67.5138092  55.2943001  29.8067989  67.9251862  55.0014687
  31.3099899  67.9965591  54.8392563  18.7443562  22.1739502  87.3619995
  18.7379398  21.6668415  86.5501938  19.6459942  22.4849491  87.4430084
   4.8387742  71.1474075  11.4763641   5.7694983  71.1359558  11.2530851
   4.7087722  71.9865189  11.9182138  27.5223179   3.6614068   2.3534498
  26.9011135   3.0113001   2.6816211  27.0492477   4.4919558   2.4046733
  26.5624809  29.8360252  20.0997868  25.7137699  29.9857426  20.5163250
  27.2011585  29.9860878  20.7967834  16.7925816  50.9171677  71.2378311
  15.9123640  51.2210541  71.0162430  16.9227028  50.1416588  70.6920395
  35.9651566  61.7782516  30.6636772  36.7471046  61.3587303  30.3048019
  35.6185684  61.1428642  31.2900887  60.3242149  32.5436516  64.1729813
  60.9594650  33.1887321  64.4837341  60.8305397  31.9635963  63.6042976
  77.9666443  11.0016499  87.1632462  77.5528336  10.5607986  87.9052963
  77.2436829  11.1966591  86.5669785  72.3981171  39.5459290  44.2363167
  73.2565002  39.3371811  43.8677597  71.8986359  39.8942451  43.4977875
  13.9087095  34.4819870  56.5634689  14.1819620  35.3316917  56.9092522
  14.2670422  34.4580116  55.6761971  38.4516907  51.5410080  68.7936249
  39.0603027  50.9353790  69.2167511  38.3391037  51.1894073  67.9104919
  32.6616211  60.1395111  74.7314682  31.8558884  59.6404381  74.8654556
  33.3274078  59.4757156  74.5516205  36.5983772  18.9617691  76.3339005
  36.6542130  19.8803539  76.0706177  35.7002373  18.8567524  76.6478119
  18.1078224  35.7224197  15.6077528  18.4732475  35.7101288  14.7231369
  17.6554127  36.5637817  15.6683388   1.5618281  49.7112885   7.8794589
   0.9578832  49.8091774   8.6155977   1.1478020  50.1941261   7.1641393
  70.5445251  54.7912865  14.3852692  70.3029022  54.9248772  15.3017855
  71.3975601  55.2166710  14.2980099  64.7666550  37.0090141  72.7101974
  65.3148727  37.4369736  72.0525208  63.8744888  37.1032791  72.3764420
  70.9367447  39.4191856   7.0758567  71.2605743  40.0049210   7.7601671
  70.0883331  39.1175041   7.4005413  29.8552494  30.9881821  60.9852448
  29.9625988  31.0877361  60.0393066  28.9107208  31.0513191  61.1270638
   9.7138939  63.5433807  49.6341591   9.2183018  62.8007393  49.9792709
   9.5119295  63.5520821  48.6985474  50.6588478  71.4094467  25.0155830
  50.7634773  70.4624176  25.1073570  50.6357613  71.7361374  25.9150105
  16.6876049  49.3616066  48.5921478  17.1195145  49.2722473  47.7426147
  17.4058857  49.4652824  49.2162895  27.6278229  56.3093224  27.9727955
  28.3305931  56.4147224  27.3315163  27.2549953  55.4489822  27.7803192
  32.3193474  62.9624481   7.2029281  32.9646797  62.2563782   7.1677618
  32.6964073  63.6585693   6.6649036  68.2861023  58.0428543  24.6330853
  68.6444473  58.8853683  24.9123516  67.8513947  57.6972160  25.4126968
  48.4939499  65.7393036   7.2484927  48.9578552  65.5406113   8.0618448
  47.9507294  64.9676971   7.0879579  49.2324371  55.7912521  70.0155640
  48.9918709  56.0476990  70.9058456  49.5736580  54.9015770  70.1065216
  23.4138279   4.5045710   8.8614731  22.7862606   5.0950980   9.2782097
  24.0675545   5.0855756   8.4724913  79.7585526   8.2297049  74.0522308
  79.9021072   8.6242476  74.9124451  79.8998337   8.9462433  73.4334946
  63.2161713   9.9273415  53.4933052  63.7770920   9.2363100  53.1410561
  62.3483658   9.5270796  53.5474892  69.5422516  22.6336937   1.9333097
  68.8288574  23.1370010   1.5409043  70.2694473  22.7294197   1.3182862
  77.6843948  33.4224396  12.5066519  78.4967499  33.7696877  12.1382322
  77.9707642  32.8280754  13.2001619  15.6611500  43.4776878  10.3448944
  16.1742077  43.4293633   9.5382547  14.9110947  44.0278320  10.1190853
  54.4933052  21.6306763   5.2453208  53.9592667  21.0396404   5.7760882
  55.3620377  21.2287979   5.2399526  31.0898266  40.8455200  26.1648006
  31.3530254  40.0366440  25.7258472  30.3491364  40.5896492  26.7144718
  31.4703884  57.6789932  58.1772995  30.9637680  57.6768684  58.9894333
  31.7493343  58.5885010  58.0713959  47.4336586  66.6702957  69.7504730
  48.1225853  67.0257187  69.1889725  47.2100754  65.8291702  69.3520203
  81.0274658  67.9444809  30.5772533  80.3992691  68.5659027  30.2092342
  81.7544403  68.4891663  30.8790245  29.8859653  38.8546753  75.1732941
  29.5836487  39.3764915  75.9166336  29.5700169  39.3283539  74.4038544
  58.2933846  20.0423603  21.4500523  58.4431992  19.8487930  20.5246773
  59.1710777  20.1040096  21.8269978  68.7938766  14.8085728  87.8374023
  69.1365356  15.6952410  87.7249908  68.3269806  14.8363276  88.6725540
  73.9558105   4.9856782  48.3897896  74.9003067   5.0659866  48.5228424
  73.6226578   4.6622963  49.2268448  28.9659443  66.0676880  65.5468521
  29.7581577  66.2044525  66.0663910  28.3868523  65.5660477  66.1206512
  57.2780571  63.4897079  12.6394558  57.5372505  62.8911934  11.9388638
  56.5592728  63.0406837  13.0843735  67.0099258  12.2168655  12.4751616
  67.3796768  12.0427933  11.6095886  66.8953705  13.1668596  12.5000420
  30.2265053  35.2848740   8.6920080  30.5443268  34.8571777   7.8968368
  29.6882763  34.6206169   9.1224813  47.5294571  24.2157516   4.7898579
  47.8491135  23.7107792   4.0421581  47.2185440  25.0369987   4.4089146
  64.9320450  47.5900650  68.3132019  65.8095016  47.6423836  68.6921082
  64.3718796  48.0442123  68.9426422   0.4290329  18.3574142  48.2261848
   0.4308261  19.3063583  48.1007500  -0.4725527  18.1499958  48.4718513
  82.3786240   4.5969419  64.0677261  82.9389954   5.0937948  64.6638489
  82.9685745   3.9672129  63.6534386  68.0443726  30.7761974  65.4656677
  67.2607727  31.2462330  65.7507401  68.3888702  30.3779545  66.2650146
  86.4939499  40.0503502  69.2798843  87.1379318  40.7567139  69.2292328
  86.1355209  39.9890671  68.3944473  57.2053947   1.0010010  53.1768494
  56.4253998   0.4535265  53.2669296  56.9161072   1.7449977  52.6486282
  66.8769684  55.1109314  78.3758545  67.0073853  54.3640747  77.7915344
  67.4599075  54.9408112  79.1157608  50.2337952  35.7967415  15.9186411
  50.2112274  35.1505775  16.6244678  50.5647507  36.5932884  16.3336296
  24.6159801  39.2373924  16.3070354  24.9362583  38.8056831  17.0990467
  24.2735653  38.5246925  15.7675562  59.7891731   1.6465217  35.3467331
  59.7344475   2.5208371  35.7324944  60.5448532   1.6901095  34.7608337
  34.9452133  52.5038033  14.3295450  34.4078636  53.0116920  14.9374399
  34.5809479  52.7001038  13.4664059  43.8964844  39.6908913  53.3044281
  44.3701973  40.5212135  53.3533592  43.6767540  39.5947495  52.3777618
  20.1658497  60.3282089  47.1790009  19.5650043  61.0099487  46.8782616
  20.3069706  59.7768059  46.4094086  80.0952301  37.6004524  75.2565308
  79.1505890  37.4466629  75.2720795  80.4333115  37.0888519  75.9915085
  70.7170792  65.1628571  63.0676003  71.0444031  65.7500916  62.3862381
  69.8934326  65.5599823  63.3506622  55.8761940  66.6477737  18.2544479
  56.3226776  67.4487686  18.5288582  55.1887093  66.5207748  18.9082584
  70.9800491  63.7891998  41.9679413  71.8231964  63.6036720  41.5545197
  70.8382034  64.7232361  41.8140450  28.1418056  65.6465683  86.0378876
  27.7647457  65.1943207  86.7925644  29.0542870  65.3581619  86.0171738
  63.4126854  46.1183891  10.2094002  62.9098625  45.8967209   9.4256477
  62.7969208  45.9951591  10.9318151  33.4297714  50.5742874  83.4366531
  32.6028976  50.7662277  83.8789978  34.0065269  51.2975197  83.6826630
  58.8592758  26.5394402  19.8763924  59.2431526  25.6791172  20.0458374
  57.9190025  26.3731861  19.8094597  15.7212620  66.3484802  62.4029922
  15.1552200  66.7007751  63.0898132  15.1872883  65.6817017  61.9711266
  53.2604027  19.2582626  48.8389816  52.9461174  20.1543903  48.9590225
  53.8845367  19.1257362  49.5525131  39.1696472  54.1768494  30.4303818
  40.0186234  53.8108215  30.1823997  38.9684639  53.7666931  31.2715302
  32.3678131  58.2338333  44.5419426  31.8349590  59.0253792  44.6177750
  33.2136803  58.4776039  44.9178619  84.2539215  50.4177094  17.5664444
  83.4322968  50.4096146  18.0574646  84.1109543  51.0595894  16.8708954
  77.0453033  43.9376373   6.9326520  77.8317108  44.4328842   6.7034669
  76.8964844  44.1385956   7.8566117  36.0603752  61.0533524  34.4983826
  36.6710548  61.4437408  33.8731613  36.5662346  60.9692192  35.3066292
  43.4404373  71.0649948  17.5575161  42.6367035  71.5137863  17.8198643
  43.3344421  70.9133224  16.6183701  60.7685699  27.3983803  63.5362968
  60.9286041  26.9729080  64.3786697  61.5102043  27.1362667  62.9908524
  79.7781067  33.9864044  28.1248665  80.1867218  33.2017708  27.7593231
  80.1000061  34.7017670  27.5763512  52.7465630  29.7612610  60.3895035
  53.0849838  29.2616405  59.6464806  52.2169800  30.4524975  59.9920502
   9.9790230   5.7689600   4.2484393  10.5072155   5.0591655   4.6137276
   9.2822828   5.3247938   3.7652204   9.3822603  29.4077148  64.7834167
   9.3420582  28.5571671  65.2206573  10.1637917  29.3573856  64.2330475
  35.5623894  29.2273617  82.8087006  34.7061729  29.5345974  83.1065826
  35.5044441  29.2458649  81.8534393  24.3953743  30.4045277  16.1966515
  23.9873886  31.2203388  15.9064255  25.3322182  30.5996914  16.2182140
  59.2222099  12.3068733  84.6027145  59.2752571  12.1830473  83.6550446
  58.8986320  11.4698982  84.9358826  71.8233948  16.7924824  13.0220442
  72.3365707  16.0746002  12.6512032  71.7052689  16.5526161  13.9411430
  86.0901184  43.0093422  80.0850830  85.9173660  43.9415092  80.2171860
  85.3509979  42.7006989  79.5609894  46.3249435  70.8186340  17.1509838
  46.4644585  69.8795319  17.2728539  45.4345474  70.9715347  17.4672871
  63.6400490  62.8970184  34.5686913  63.5512390  63.8161354  34.8208237
  62.7470551  62.5535240  34.5970268  35.0371857  25.0490952   1.6089611
  34.8685646  25.4029846   0.7357137  34.2187195  24.6179237   1.8548056
  56.8596268  58.5525169  21.5930328  56.6868896  59.3775787  21.1395283
  57.7831306  58.3717117  21.4178715  20.2751579  11.9583559  82.6791611
  19.5569782  12.0095320  82.0484238  21.0555248  11.8186274  82.1427536
  13.8660345  19.7347202   7.9274545  14.7948551  19.8672791   7.7378411
  13.4462528  20.5487652   7.6493478  58.2109985  50.0270500  61.8167229
  58.6713791  50.3018875  61.0237885  58.9067459  49.8671265  62.4543724
  38.9210930   4.5223699   5.9324589  38.4079018   5.3303556   5.9272871
  38.5560989   4.0114260   6.6549187  23.4354858   9.5077219  60.3532333
  23.3571644   8.6982737  60.8581009  24.3607178   9.5508070  60.1117401
  51.2666473   5.5450249   4.5848160  52.1920547   5.3010015   4.5673327
  51.2591248   6.4298372   4.9498940  15.6891460  69.6117859  13.2476740
  15.1132040  69.4522781  13.9953899  16.5080166  69.9183044  13.6372004
  18.2477779  46.8717499  76.0011673  17.5754833  46.9701042  76.6753922
  17.8006363  46.4290276  75.2798538  29.7221088  53.3573036  48.0040932
  29.0916214  53.0290794  48.6451759  29.4331284  52.9842682  47.1712837
  72.4825134  35.5811882  16.8057575  73.3936539  35.7618484  17.0368958
  71.9873199  36.2946053  17.2083035  76.7126007   3.6263058  12.8339939
  76.8499756   4.4967728  13.2076902  76.2917938   3.7915471  11.9902821
  39.5742760  46.3722153  36.0977440  39.3435669  45.5451813  36.5208511
  39.6101341  47.0059586  36.8142014  63.9132843  43.3847923  26.5996075
  62.9922752  43.1249542  26.6209183  63.9088593  44.3045387  26.8647099
  57.1083450  39.9123497  73.2072296  57.6089439  39.6592712  72.4316101
  56.2089996  39.6528740  73.0070267  34.2484360  26.7588863  62.6581612
  34.3412895  26.3074684  63.4971046  34.9970627  26.4606857  62.1415710
  70.5383987  55.7793198  17.2752190  71.4423141  56.0728798  17.3891907
  70.1275940  55.9329681  18.1260204  36.2873154  51.3269653  71.4668884
  37.1046715  50.8321037  71.4097214  35.9096947  51.2679176  70.5893021
  70.1109772  64.4183578  78.7419815  69.6775589  63.5947342  78.9656525
  69.5856018  64.7792358  78.0278473   3.2756805  14.3019590  76.9900208
   3.1753533  13.5422869  76.4163818   3.7797401  13.9746246  77.7350082
   3.4656041  44.0980682  78.8255920   2.9609246  44.9043236  78.9327393
   2.8127489  43.4347992  78.6017838  67.1832962  21.0180988  23.1219215
  68.1005020  21.2656059  23.2389774  66.7555542  21.2934799  23.9327431
   0.8106350  59.3672333   5.1759181   0.3178307  58.5477180   5.1338248
   0.1729852  60.0423470   4.9438500  20.5253010  67.7625351  88.8031311
  19.7732258  68.3234329  88.9928894  21.2124310  68.3687515  88.5263901
  44.3565102   8.3730059  87.7208328  44.5983467   9.2203617  87.3470230
  43.6557274   8.5758228  88.3405151  58.3353081  68.2144089  55.6839180
  58.5435104  67.2813416  55.7315598  57.3936424  68.2584686  55.8499146
  57.6261520   3.7796438  33.6450233  57.6078072   4.0828395  32.7372971
  58.5037651   4.0035944  33.9546547  12.7131376  60.0670509  81.9001770
  12.0602570  59.3721886  81.8156204  13.0353508  59.9850121  82.7977753
  19.9949932  35.4386101  78.7412415  20.4311695  35.7649040  77.9541473
  20.6876335  35.4012260  79.4008560  20.2126579  24.9071770  76.2723236
  20.3383884  25.5183620  76.9981918  20.7039089  25.2926273  75.5468369
  70.2077332  37.6843109  83.4242554  69.3218536  37.5546837  83.7628403
  70.1565704  38.4996567  82.9254227  29.0799332   0.6355595   9.1865091
  28.9436684   1.2467048   8.4625168  28.8362904  -0.2180618   8.8284588
  62.0168419  39.5479889  25.8298721  62.9081192  39.6273155  25.4899178
  61.7504005  40.4483604  26.0158024  73.1117935  67.3848724  28.9165173
  73.9249344  67.0203857  28.5669765  72.4897308  66.6581345  28.8831177
   5.0725684  21.6464119  11.1669569   5.6304517  21.0045300  10.7276554
   5.6659164  22.1206341  11.7494364  54.2305489  36.1780128   0.8132652
  54.8647537  35.8610077   0.1702067  53.9895477  35.3997688   1.3157474
  48.9239540  32.9005165  46.9578819  48.5905876  33.6971970  46.5450897
  48.1576805  32.3320961  47.0350685  52.5041618  31.8698063  12.7876310
  51.5949402  32.1599007  12.8610716  52.7052460  31.4929066  13.6442194
  86.3835678  17.1073589  23.9512005  87.1650467  17.2653046  24.4808865
  86.4000778  17.7975693  23.2882004   6.6230626  40.2925606  42.1635742
   7.3556361  40.1512604  41.5639038   5.8437285  40.1298256  41.6321716
   7.6909728   4.0462761  52.4622650   7.7477732   4.6001987  53.2408371
   7.6105533   3.1567550  52.8065300  28.2901859  66.4179306  80.5727158
  28.7712708  66.1500626  81.3556824  27.5949192  65.7660217  80.4840775
  62.5377579  56.6494370  58.4548225  62.5765343  57.4934311  58.0049324
  63.0769958  56.7696877  59.2364845  57.0786362  16.6106510  52.9231796
  57.1398239  16.1446114  52.0893364  56.4523125  16.1008854  53.4370766
  71.2385635  21.9514427  88.8506317  72.0334778  22.0829163  88.3338470
  70.5383759  22.3176708  88.3104095  21.5669937  23.1449070  70.2952576
  21.0488739  23.6506538  69.6691589  22.4094067  23.0153122  69.8596268
   1.5051337   9.0515165  76.5503845   0.7864738   8.7434578  77.1025238
   2.1943927   8.3977337  76.6675262  74.9626236  53.4795113  84.8102951
  75.4302673  53.2949371  83.9957581  75.4167557  54.2361908  85.1810150
  10.4538403  58.2520866  36.0716171   9.7453241  58.1446152  36.7061958
  10.0218420  58.1993599  35.2190742  48.4629364  15.6599779  13.8615294
  48.9201546  15.5279436  14.6920433  47.5857468  15.9479618  14.1141777
  74.6762238  30.6584549  56.8775330  74.6958847  30.3654766  55.9664841
  75.3253632  30.1109695  57.3192444  75.3158798  65.9936066  46.4361916
  74.7733154  65.2074890  46.3739052  76.1751099  65.6707153  46.7076454
  76.0446396  60.5114174  21.7986355  75.8046188  59.6128349  22.0248432
  76.1791687  60.4920959  20.8511333  72.3691483  29.9407940  28.3067513
  72.6408539  30.8293228  28.0766964  73.1087952  29.5839081  28.7984715
  61.5434608  44.0360603  49.8575935  62.3300896  43.7675133  49.3829041
  60.8318024  43.5583382  49.4315071  62.2245064  57.2872658  39.0822220
  61.7746010  56.4764290  38.8448296  62.4735603  57.6771584  38.2442551
  53.9687424  19.0716953  65.3266525  53.6178703  18.3965549  64.7458725
  54.7859917  18.7005138  65.6591492  66.2250519  14.2121048  69.1522675
  65.3841858  14.6325274  68.9722214  66.8428726  14.6525640  68.5687180
  22.7677307  65.3314362  42.2489510  23.0222549  65.7864990  41.4462242
  21.9162140  64.9445801  42.0452499  73.4594421  34.2100868  40.7040062
  72.5676422  34.5553360  40.7454491  73.9359207  34.6960182  41.3771095
  58.2778702  18.6316795  31.0864830  58.6121864  18.2835102  30.2598972
  58.6076088  19.5297070  31.1189442  31.2515697  15.0194454  78.6845627
  31.7563381  15.7845888  78.4088898  31.8891964  14.3057718  78.7028885
   3.8427980  65.0642090  59.9098206   3.5782146  65.5523987  59.1301384
   3.6975379  65.6727982  60.6342163  82.8624191  62.4073296  65.4224243
  83.3651810  62.1914825  64.6370163  83.4811020  62.8778534  65.9810562
   6.4113369  67.9618149  53.7861557   6.6859140  67.2242355  53.2413406
   5.9164791  67.5606842  54.5006065  24.5084000  20.7621880  69.4385452
  23.7135830  20.7459049  68.9054108  25.1517792  21.2175808  68.8954926
  33.4364929  24.5957317   5.7892728  33.5472374  24.6810856   6.7362056
  34.0084076  25.2684269   5.4196424  35.6390114  48.2158432  43.8782883
  35.6567535  47.2834740  44.0941544  34.8462486  48.5447617  44.3020477
   6.1739230  35.3836136  45.0721931   7.0737767  35.4105530  44.7469711
   5.9094343  34.4694214  44.9695930   5.5886436  56.7415352  35.0815620
   5.3876338  57.0834465  35.9527245   5.1087036  57.3139229  34.4830093
  49.0604897  54.4390221  16.4043694  48.4124146  54.0901337  17.0163383
  49.7177048  54.8545341  16.9626236  39.2966843  43.0958862  77.4684906
  38.5242119  42.7256737  77.8956451  39.5401230  42.4462585  76.8089828
   8.6208668  24.3065224  86.1278152   9.4182625  24.3954086  85.6058121
   8.2208185  23.4941502  85.8175812  81.5069199  27.5135307   0.9438581
  80.8622131  26.8420429   1.1667677  81.2059860  28.2967930   1.4044762
  61.0933495  27.9031239   9.2998171  60.3113060  28.1440125   9.7964172
  61.8150940  28.3147678   9.7750750  49.2514076  53.1513748  31.8776493
  48.9886398  52.6970062  32.6781082  49.9378624  53.7558937  32.1597290
  33.1919060  51.8612213  28.1348820  32.3532219  52.2320251  27.8603973
  33.2934380  51.0752296  27.5980949  66.3145676  49.2971001  79.2840424
  65.5262756  49.6771698  78.8962555  66.8570480  49.0536728  78.5339127
  76.4744720   2.3970428  47.5117989  76.6070633   1.5904646  47.0137215
  75.7852325   2.8613110  47.0367851  38.4875946  40.3178444  78.8366547
  38.0275345  40.2711411  79.6747437  39.4135475  40.2423553  79.0671921
  12.8122454   5.9603686  12.1357641  12.1481104   5.8605132  12.8178091
  12.7717361   6.8860931  11.8957129  28.6803474  41.6252670  50.1057129
  28.2670918  41.9282722  50.9141922  29.4062195  42.2332382  49.9653168
  42.5201302  51.9178734  41.6236877  42.7632332  51.5830612  40.7605324
  41.9455109  52.6608582  41.4392586  58.9838219  71.3905792  47.7987175
  58.7344627  70.4811783  47.9631767  58.1938438  71.8946075  47.9939651
  34.3791428  21.3970356   3.9310083  34.2009544  22.2494755   4.3282824
  34.1328812  21.5047588   3.0123234  29.5616608  60.7140961  41.3624992
  29.8114376  60.1742249  40.6125793  29.9350719  60.2612228  42.1186104
  33.8599434  48.6867218  53.0733032  33.9008369  49.6325760  53.2144279
  34.5712967  48.5052261  52.4590836  49.7863808  68.9061661  15.6094284
  50.5538521  68.5633469  15.1515102  49.3098564  68.1266785  15.8950024
  58.7857361  55.8090286  84.9701767  59.0694809  55.3245163  84.1949539
  59.2746086  56.6310463  84.9310837  67.2363129  39.9835472  72.5384140
  66.4880142  40.0988922  73.1240540  66.8653183  39.5842247  71.7515564
  53.6060638   9.0807209  57.6148148  54.3868599   8.5273914  57.5944176
  53.7278900   9.6936808  56.8897820  46.1374130  12.2718897  15.1773748
  46.8023872  12.3724289  14.4962463  46.6350403  12.0723124  15.9703255
   2.2627883  53.1781693  71.0852509   2.5275288  52.8160629  70.2396622
   1.4670327  53.6748047  70.8945618  72.3873138  51.4630432  70.2263489
  72.7918015  51.3428612  69.3671799  73.1058044  51.7463074  70.7918243
  52.9891739  50.6054840  54.9866524  53.3994598  50.8803749  55.8066101
  52.0675659  50.4772377  55.2111969  21.6824856  22.4077053  13.2655306
  21.6569252  22.9564857  14.0493793  22.3473530  22.8145065  12.7099257
  63.4536057  47.2866821  79.6485748  63.5050163  46.3446465  79.8103027
  64.2397385  47.4856453  79.1400070  56.3148766  44.4023399  70.6292191
  56.2790756  44.2820435  71.5781555  55.7982292  43.6779404  70.2762985
  85.7374649   5.5248585  44.3747177  85.1273193   5.2749329  43.6808205
  86.0384064   6.3987422  44.1257362  72.5033264  57.5518188  28.1061878
  71.8068008  58.1933174  28.2460670  72.0424423  56.7409363  27.8910313
  86.2219620  30.1462517  55.7944603  85.8429489  31.0248547  55.8197517
  85.9427490  29.7891331  54.9514084  83.2909622  17.8433666  52.7290421
  82.6830292  17.1091061  52.6423836  84.1168671  17.4402122  52.9965820
   8.4317923  51.2820892  44.6113205   8.2537079  50.6982307  43.8740082
   8.9070711  50.7374306  45.2387657   7.8821669   5.5348320  71.8576660
   7.5103250   6.1608305  71.2363052   8.7198963   5.9205532  72.1139069
  75.9888611  36.4608498  45.0681534  76.8787918  36.1331139  45.1979446
  75.5342255  35.7481003  44.6192398  76.9270782  15.7252302  33.9726257
  77.7553177  15.2532082  33.8863449  77.0559387  16.2989826  34.7278938
  81.0588760   0.9805625   5.0779929  81.2992783   1.0538012   6.0016131
  80.2620163   1.5044558   4.9956398  47.2526169  66.0179596  64.4897614
  47.0781250  66.6716003  63.8126068  48.0882759  66.2861328  64.8718491
  13.4623547  62.1498795  33.9311905  13.5209351  61.1960068  33.9853058
  12.6829042  62.3712692  34.4407768  30.0975933  67.8347473  11.3823252
  30.6720848  67.4517212  12.0452604  30.2191544  68.7794647  11.4769859
  81.2994766  45.0698700  30.0401897  80.7413635  45.5585327  30.6451263
  81.3629532  44.1960182  30.4256573  19.0690765  28.7670078  72.6911774
  18.8648376  28.2751389  71.8958282  18.2397060  28.8075256  73.1673431
  77.0423660  18.3234673  52.2993889  76.5877075  17.7273712  52.8945236
  77.2067413  19.1068134  52.8243484  65.2782440  32.1156235  65.6599808
  64.5023880  31.9208336  66.1856613  64.9345322  32.3061104  64.7871628
  21.8987160  61.0605049  14.5671587  22.5948086  61.3378563  15.1627760
  21.4245224  60.3844566  15.0512390  73.4268646   2.9240685  19.2759933
  74.0064774   3.4089038  18.6884480  72.6407547   3.4666278  19.3384075
   1.2530115  18.3472385  54.7064552   1.2319202  19.2668533  54.4417038
   1.8134371  17.9236145  54.0563011  33.7870674  63.3622246  87.6488113
  34.6035995  63.0563393  87.2539215  33.1431732  62.6932640  87.4161530
  75.9495468  64.4739456  12.7896910  75.2335587  64.8213196  12.2577810
  75.5319061  64.2070541  13.6085777  65.9689636  43.6564713  67.5873108
  66.7204819  44.1327858  67.9402542  65.3634491  44.3411522  67.3030548
  12.2452402  57.6093941  49.7216759  11.5670271  57.4067764  49.0773125
  13.0669651  57.5321159  49.2368774  60.8301048  54.9326401  67.1176834
  60.9462662  54.4005470  67.9048386  61.0799561  54.3532333  66.3978958
  28.9696274  69.9003296  51.3111916  28.3506432  69.9792938  52.0370407
  28.8202553  70.6842880  50.7826767   7.9553342  28.3969746  11.6983070
   8.0932884  28.5975704  10.7725849   8.4304399  27.5780582  11.8393126
   7.3449984  45.9583397  24.6627865   7.4338551  46.8031197  24.2215519
   6.5344944  45.5890617  24.3121433  76.3410721  10.6867151  75.8474045
  75.9293213  11.5266228  75.6442947  77.2519226  10.7940235  75.5734177
  18.4023209  40.8697510  73.1323090  18.7735806  41.6824837  72.7890015
  19.1636257  40.3362083  73.3603058  10.9765320  41.4132957  51.1385078
  11.2658663  42.3255577  51.1213341  11.1364937  41.0945282  50.2502327
  74.3208618  55.9613953  41.5312767  74.8225098  55.3582382  40.9828339
  74.2740021  56.7685013  41.0188141  66.6176605  19.4967785  30.6110973
  67.2310028  20.2296200  30.6657066  65.8869934  19.7535419  31.1736221
  15.1994410   5.1754541  83.7060318  15.2865486   5.4774036  82.8018875
  14.3698053   5.5483294  84.0041962  60.4413643  69.9032669   5.3321953
  61.2035484  69.4006348   5.0446658  60.5972328  70.7867203   4.9983616
  66.0342178  69.7471542  42.7290001  65.5407867  70.1090851  41.9929543
  65.4952164  69.9393463  43.4963150  21.3388348  17.4059734  73.4577103
  21.8685513  17.6464920  74.2178345  21.0411968  18.2420101  73.0989761
  65.3593292  19.8704224  71.5529327  66.3035965  19.7618370  71.4397812
  65.2231750  20.8176956  71.5337906  53.6991234  17.3334408  58.4649200
  53.3554840  17.0070724  57.6332817  53.0524902  17.9766712  58.7553596
  22.5719948  53.6571350  61.0704498  21.8160019  53.8542747  60.5174179
  22.9618816  54.5113029  61.2565079  38.0723953  20.4030266  86.1087570
  38.5044861  21.1390572  85.6754074  37.1416321  20.5295544  85.9246445
   3.9122736   3.6903343   7.2183290   3.4320557   3.3307152   6.4724760
   4.5314403   4.3079801   6.8292556   9.6408691  66.1189728  27.3766117
  10.5346575  66.0188599  27.0489674   9.1454010  66.4447403  26.6251984
  67.0036240  30.9829941  40.3131218  67.6113205  31.4560280  39.7446365
  67.1376801  31.3673000  41.1794777  72.0473404  63.7350426  39.0462265
  72.5609894  64.4990234  39.3083801  72.4460220  63.4489174  38.2243881
  49.6546974  55.3468628  40.2823257  49.6850357  54.4007607  40.4244614
  50.5725441  55.6185074  40.2816086   9.5680618   7.2848506  18.3347969
  10.0418682   7.4429059  19.1513500   9.2687922   6.3782120  18.4031754
  53.9183617  60.3593407  84.4991913  53.9377251  60.9780579  85.2292938
  53.4256363  59.6098366  84.8334122  57.2957039  59.4366722  53.4461899
  57.7177277  58.7739754  53.9929619  57.8965073  60.1815720  53.4659958
  19.5547924  26.5113831  64.6676102  19.7326317  27.4515495  64.6412582
  18.6531563  26.4293709  64.3568726  82.7723465  35.3245506  88.4753647
  83.5727615  35.8433990  88.5551529  82.0661850  35.9706802  88.4843445
  57.3428040  61.7765312  68.3106155  57.4922600  61.4904938  67.4094620
  56.4776154  62.1855774  68.2917023  22.5438118  46.9560051  58.7493896
  22.6329956  47.8099670  59.1725121  22.7037201  47.1303978  57.8218956
  56.9232674  63.2592163  52.6909943  56.9435349  62.4063911  52.2568169
  57.5611038  63.7875137  52.2111053  65.9635086  12.9130745  31.9252987
  65.2095032  13.3591852  31.5396786  65.5821228  12.2165375  32.4597321
   9.4650784  59.0867958  59.1359749   9.1095791  59.8340073  58.6548080
   9.4054832  58.3556519  58.5210686  47.0830116  22.4337482  26.3957062
  47.6115570  23.1740551  26.6937351  47.4347038  21.6813850  26.8716221
  45.5965576  22.4283123  72.2760544  45.5081673  21.4857197  72.4172592
  46.4957848  22.5410614  71.9679871  38.2053986   6.6199727  73.0730820
  39.0570297   6.4487615  72.6710358  38.0826912   7.5648012  72.9810333
  48.3638496  41.7669830  67.4650803  47.9217644  42.5514297  67.1403732
  49.1780014  41.7258835  66.9633865   0.3741616  61.3071022  49.1657753
   1.1141276  60.9722557  48.6592598   0.7216991  61.4218750  50.0502396
  35.2215271  69.3365402   5.2436562  35.9359398  69.4362640   5.8728600
  35.6286011  69.4950790   4.3919592  86.5122833  49.1688423  27.0872669
  85.6471939  49.1327400  27.4953651  86.5636368  50.0479736  26.7121296
  75.9041824  64.5830994  49.6677170  76.3857117  64.8668900  48.8906555
  75.0805054  65.0692596  49.6298828  69.0977325  17.9138279   9.8344984
  68.5324936  17.5785332   9.1385727  68.6855774  18.7349415  10.1030769
  26.2790337   1.2889419  55.8133125  27.1396675   1.3485489  55.3986015
  26.2156563   0.3791000  56.1038322  22.1851749  18.1337585  83.6518555
  22.3136463  17.1923389  83.7678604  21.8244057  18.2193146  82.7693863
  49.5182953  58.8248863  45.2108879  49.6357155  58.7280693  46.1559143
  48.7531815  59.3930893  45.1215706   9.7749977  63.5861092  76.5632553
   9.5493240  64.1208649  77.3244019  10.4794846  63.0160561  76.8714218
   2.2222216  16.2146378  88.0807724   2.4336462  15.5409803  87.4344635
   2.2601824  15.7597046  88.9220963  73.8156281  48.4474449  43.6648865
  74.0350647  47.8907433  44.4119873  73.6278152  49.3030586  44.0507431
  82.7350388  22.1559181  73.8750992  83.1628418  22.4279518  73.0631790
  83.2638779  22.5507526  74.5684052  22.1203594  53.7058983  37.7336540
  22.6715813  54.4744644  37.5863762  22.5763874  52.9944000  37.2841644
  42.4505310  50.6363182  78.3556061  41.8541756  51.1421089  77.8035507
  43.2200966  51.1970749  78.4533386  75.7528915  56.3451195   6.3188038
  74.8316498  56.5160789   6.5145535  76.0313339  57.0993462   5.7993407
  73.8166428  22.8740902  29.9430695  74.2713242  22.7900658  30.7811852
  73.4665298  21.9998341  29.7718182  50.4822121  54.6615028  55.0825195
  50.9561996  53.9680595  55.5415421  50.7956429  55.4720116  55.4838562
  51.8868370   3.9682167  56.5311966  51.8436356   3.1973326  57.0969734
  52.7922478   3.9873612  56.2211990  25.3770676  16.8226318  60.6176796
  26.3082542  16.6207981  60.5261002  25.0489464  16.1659660  61.2319756
  56.3895988  39.3817863  31.1105423  56.7792931  38.9115295  31.8475819
  56.7547302  40.2646294  31.1697159  68.8270874  70.1101761  30.8445797
  68.2717438  70.4619370  30.1488132  69.6452255  70.6013260  30.7693787
  67.3201599  60.2994614  12.8989487  67.5635605  61.1435204  13.2791452
  68.1552887  59.8645325  12.7268534  57.1506271  40.2100983  76.9231262
  56.3043900  39.7645035  76.9625549  57.1223412  40.7059174  76.1048355
  12.8056126  36.1590385  44.5742226  13.5937138  35.8640404  44.1180382
  13.0776663  36.2509804  45.4873314  18.8412533  51.5687027  43.4642410
  19.7066422  51.3910675  43.0957527  18.6510525  52.4703102  43.2050934
  44.3086586  11.3794546  86.8541565  44.0672684  11.0442781  85.9906616
  43.5317650  11.8517447  87.1535110  52.5787315  21.4744301  65.7581100
  52.5411453  21.9743099  64.9426727  53.2313843  20.7941799  65.5921707
  14.7786961  46.9267235  71.9864655  14.8815069  47.0689812  72.9274368
  14.0633860  46.2945251  71.9165573  67.2355804  18.5692863  21.7863045
  67.5299988  19.3011341  22.3284740  66.3571243  18.3696995  22.1098995
  58.2993279   8.3471899  30.3828602  59.2311249   8.4272346  30.1789551
  58.2282677   7.5189080  30.8573399  60.5059929  47.7333488  75.7323914
  59.9707222  46.9559860  75.5729599  61.3006020  47.3962593  76.1461563
  26.9203205   6.2375546  59.6029396  27.5391922   6.9649510  59.5387344
  27.4449482   5.4593954  59.4146194  21.9687309  46.1044197  13.6220131
  22.6567631  45.7256927  14.1691990  21.1523228  45.8109016  14.0264330
  70.3981552  28.8237267  21.4795036  70.2467346  29.5365887  22.1000919
  69.5248718  28.4791069  21.2928619  11.5299683  62.8254128  88.9702530
  12.2938118  62.2885246  89.1812744  11.7688627  63.2733650  88.1587753
  25.5840206  47.3164406  18.2217846  25.7288208  47.7275925  17.3695984
  25.9706383  47.9258881  18.8505402  33.8527412  40.3711128   3.9760494
  33.3884583  41.2023849   3.8777590  34.4287148  40.5059929   4.7285752
  47.4290886  24.0189095  87.2526550  47.1574669  23.9163418  88.1647644
  47.9635010  24.8130302  87.2497482  61.7346230  69.8474655  38.0292587
  61.1408463  70.2977142  37.4284782  62.5062523  70.4123001  38.0715332
  14.4517279  58.7929764  17.2754326  14.0324078  57.9726448  17.0157127
  13.9797792  59.4680634  16.7878323  70.9539032  37.9357681   1.5711654
  70.8943253  38.8910179   1.5577041  71.8705063  37.7500610   1.3672507
  24.0397816  39.2751083  58.3998604  23.5358315  39.2209206  57.5878716
  23.4767113  39.7652855  58.9989548  72.6928940  26.7324409  49.3835106
  72.6872635  25.7805805  49.4843102  72.9608307  27.0625286  50.2411118
  86.7789764  -0.1754283  64.9954453  86.0882950   0.3871356  65.3457565
  86.9559402   0.1773343  64.1233978   8.3504267  66.2739105  49.2770157
   8.6654739  65.3773956  49.1619644   8.9599962  66.8090591  48.7688141
  28.8180828  30.6117077  86.6794128  29.6425171  30.3605423  86.2629318
  29.0818958  31.0405025  87.4935226  12.9817553  64.3855591  36.3881760
  12.0507965  64.2279205  36.5453262  13.0017357  65.1560211  35.8205299
  46.8295746  14.5492840   2.0047209  46.4652328  14.0383434   2.7275124
  46.2645721  14.3462563   1.2592107  46.8564529  60.6578751  52.2162857
  46.7058792  60.2872429  51.3466911  47.7571945  60.4130516  52.4283066
  18.4705505  55.3457985  39.2147789  17.5708523  55.3952789  39.5377731
  18.3802013  55.2707787  38.2648087  64.2350082  64.6999893  84.6606216
  64.6610489  65.5292358  84.8775864  63.9889069  64.3283310  85.5076981
  45.9997787  68.8688660  70.2065659  46.6357307  68.1586533  70.2925568
  45.4986000  68.6478500  69.4215851  76.9243088  67.7907867  17.8638020
  77.7024841  67.6992874  18.4136219  77.1828079  67.4212875  17.0194778
  45.3919411  53.1024132  15.2625179  44.8456955  52.3302727  15.4096451
  45.8673439  52.9090500  14.4545355  31.2795410  62.6282196  34.9882393
  31.8750343  62.8555489  35.7023392  31.0267181  63.4703560  34.6099319
  21.1002979  59.5856247  64.9816971  21.0285206  60.4115448  64.5032272
  20.1979980  59.2765579  65.0627060  75.4280319  21.0655727  67.1636276
  75.5510483  20.1176586  67.1130447  74.4783173  21.1830158  67.1854553
  79.1206055   2.6979957  34.6338768  78.3348389   2.1514111  34.6406937
  78.8416595   3.5233927  35.0302849  32.4691811  45.5720634  58.9454956
  32.4253006  46.3001099  59.5653801  31.7580242  44.9887161  59.2104416
  72.8090897  35.1230698  28.1644726  73.4456635  35.8322716  28.2541428
  71.9595718  35.5468712  28.2867260   9.6499138   8.8266497  15.9338408
  10.3853865   9.3473978  16.2565384   9.5106010   8.1639433  16.6103344
  10.8936300  61.6962280  35.3938904  10.6632843  61.4856911  36.2987900
  10.1525211  61.3786659  34.8779984  59.1748619  25.2101498  86.6405258
  58.2846565  25.2992306  86.3001938  59.0980911  25.4228153  87.5706329
  28.9546204  57.2392197   8.1223812  28.9198685  58.1230431   7.7564926
  29.8878269  57.0280876   8.1503315  46.8775826  56.1235771  56.7339783
  47.2407951  55.4577789  56.1500092  47.6296997  56.6617813  56.9807396
  32.5637894   2.2048740   3.2542284  33.2284088   2.3154933   3.9341371
  33.0587997   2.1932402   2.4350464  42.2473373  59.1329384  14.0928822
  41.8556480  58.8630829  14.9235382  42.1830673  60.0879707  14.0968380
  85.5952148  71.1076508  54.0108643  86.3444977  71.5971069  53.6713943
  85.9789886  70.3222961  54.4009438  48.2538414  33.7392807  63.6624680
  49.1049843  33.9247017  64.0592117  48.3379669  34.0473976  62.7601242
  32.4708710  50.6629257   1.7867020  33.3799667  50.9588737   1.8334934
  31.9999199  51.2398682   2.3880138  17.5648403  49.7812424  66.9417648
  17.5072289  50.1570244  66.0633011  16.6866112  49.4424324  67.1154099
  48.4070282   0.2855298  18.6122589  47.5253105   0.3504610  18.2453938
  48.3611603  -0.4556461  19.2162342  37.3612556   2.0085032  72.0621338
  36.8244553   2.3903978  71.3677063  36.9554825   1.1598483  72.2392426
  13.2922363  30.4707527   0.2530035  12.8421698  30.0477467   0.9842619
  13.8448505  29.7829838  -0.1182429  77.0013275  64.3432922  19.5240364
  76.7551651  65.0629578  20.1051674  77.2504425  63.6327209  20.1150188
  82.2972412  24.3366222  78.7363892  83.0775833  24.8164368  79.0140152
  82.6240158  23.6882935  78.1125946  52.1537285  51.9952431  43.4133263
  51.9290466  51.1719398  43.8468246  53.1098595  52.0287971  43.4437523
   4.8877554  49.9726639  12.6232815   5.0032978  49.3150940  11.9373655
   5.3275781  50.7522888  12.2842016  10.5608921  53.0984688  61.0952759
  11.4540644  53.1178436  60.7516174  10.6405287  53.4337807  61.9882812
  69.1579437  63.8145790  38.9826889  68.9066696  64.6798248  39.3058701
  70.1096802  63.7890663  39.0815849  23.4703674  45.4746552  72.5507660
  22.8810558  44.7294197  72.4342804  24.3121281  45.0808144  72.7800293
  50.0892448  69.4037170  52.6899376  50.8204041  69.1489258  53.2527161
  50.2876053  69.0031662  51.8435097  29.6972599  68.9679642  20.8458309
  30.2751369  68.4292831  21.3863068  28.8143139  68.7310715  21.1295853
  71.7961197  25.4798489  86.0987625  71.1449432  24.8423576  85.8058319
  72.6378708  25.0808468  85.8785477  33.7887077  70.2292938  17.3072033
  32.9424400  70.1593323  17.7489853  34.4002342  70.4804230  17.9994469
  31.9551258  45.9983253  78.5276718  32.5220680  46.6831818  78.8823318
  32.0058670  46.1129837  77.5787201  76.8255844  61.0167770  75.5708466
  76.8399353  60.0788460  75.3803024  75.8956223  61.2423477  75.5936661
  35.7770844  11.5244112  72.1501617  36.3360710  12.2931328  72.0368729
  35.2371483  11.5023603  71.3600845   0.0478239  51.4065094   9.5161142
   0.6769207  52.0438843   9.1781464  -0.4664142  51.8951492  10.1587830
  76.6007462  25.4165096  77.7245941  76.8532562  25.5165386  78.6424484
  75.7998810  24.8929749  77.7521973  42.4107246  51.5377464  11.4330883
  42.0577126  52.2165527  12.0082760  41.6425209  51.0448647  11.1447067
  24.8557148  56.2683945  40.7105179  25.7458439  56.1331139  41.0354767
  24.6836987  57.1975784  40.8630142   0.0241306  39.5316505   2.6666763
   0.3148614  40.0506210   3.4165945  -0.3375614  40.1743164   2.0564368
  76.8439178  46.9233513  66.6520233  77.4282761  47.5512505  66.2271652
  76.9911423  46.1028671  66.1815338   4.5219717  40.7671509  64.1174545
   4.1897736  39.9883385  64.5639191   3.7630515  41.1181450  63.6515427
  85.6814117  61.3653870  15.0541372  85.5025482  61.9091454  15.8213167
  84.8980942  61.4524803  14.5109472  52.8251343  30.9258251  31.7423973
  52.1111374  30.2887707  31.7668266  53.5498772  30.4575367  31.3280430
  74.4516830  11.4963074  49.4591141  75.0397186  10.8064051  49.7664871
  74.1713257  11.2033482  48.5920486  80.5366364   3.2419815  15.8038044
  81.2571259   2.6706023  16.0696011  80.1617661   2.8127563  15.0347347
  10.3035879  49.6581268  55.2237015  10.7910919  48.9299126  55.6087646
  10.6381083  49.7239456  54.3292770  53.6659584  60.3195724  75.4579391
  54.6180687  60.2629738  75.3772202  53.3325996  59.7432785  74.7701950
   9.1173325  16.2361603  87.1077805   8.3136272  16.1187191  87.6142349
   8.8210135  16.5774593  86.2640152  66.8892670  65.6340942  40.2332420
  66.2457962  66.1430435  40.7263412  66.8142700  64.7473221  40.5857201
  65.1387558  32.3925629  79.2954102  65.1249542  31.7537212  80.0080948
  64.2264709  32.4556236  79.0125885   1.7363477  28.9322376  84.6109085
   1.2968891  29.1529598  85.4321213   1.3089968  28.1268196  84.3195267
  26.1349449  21.3828125   0.1131964  25.5433674  20.7709751   0.5512840
  26.0301285  22.2035160   0.5945390   5.5689850  66.3727188  67.1524734
   6.5144534  66.2237778  67.1642685   5.1881700  65.4945297  67.1518707
  15.8424149  64.4400101  31.2831039  16.5303612  64.7896118  30.7167645
  15.4341469  65.2144852  31.6700630   0.8723450  25.5527630  61.4602013
   1.0443945  26.2366428  60.8129463   0.0471200  25.8126869  61.8696823
  81.6666260  47.8288994  16.2728024  82.5461273  47.6087227  16.5797729
  81.0808868  47.3721466  16.8765526  12.3084717  65.1033478  56.1936951
  12.1809750  65.4309235  57.0840187  11.8569708  64.2593994  56.1820488
  16.3254642  33.2459641  84.8356171  16.9031296  32.6016312  85.2447281
  15.4419746  32.9380760  85.0378189  20.1361427  20.2039776  79.9269791
  20.6391621  19.8458862  79.1955566  20.0870686  19.4860439  80.5581589
  61.9669189  68.9401093  84.7817535  61.5175858  68.2771454  84.2575226
  61.9622536  69.7237320  84.2320786  18.9144726  56.3229218  36.3950500
  18.6938343  57.2170486  36.6559830  18.4257355  56.1825752  35.5840797
  64.0086746  46.0620842  70.4606476  64.6606445  45.3832474  70.6348572
  64.2044678  46.3598709  69.5722656  36.5185394  17.0641041  87.5452042
  36.7422867  17.3453960  88.4323578  37.1831284  17.4717770  86.9899063
  33.5198326  21.7904797   6.9861121  33.6830521  22.6833935   6.6823120
  34.3897514  21.4395466   7.1766820  69.9981384  29.0383778  76.9238358
  69.4052505  29.4028988  76.2666855  69.9062195  29.6201649  77.6783600
  76.9358063  51.7409286  79.7259064  77.1081390  51.6620216  80.6641541
  77.7579956  51.4833870  79.3088837  86.4997864   8.1882153  37.1040955
  87.1264725   8.5148497  36.4584846  85.9392090   8.9401188  37.2954674
  21.5283241   8.5896187  58.5398026  22.2969723   8.4235239  57.9940681
  21.8548641   9.1385193  59.2527618  70.4521942  44.6697617  31.8285656
  70.1688843  44.1666985  32.5920410  70.0672607  44.2099762  31.0824738
  50.9349747  49.2813072  60.5843582  50.7521629  49.0029259  61.4817505
  51.6305733  49.9328957  60.6727180  72.1426315  32.7238388  81.9164810
  72.0196609  32.2570915  81.0898895  72.9842224  32.4090309  82.2463989
  81.4420853  15.4137640  79.1074066  81.6224136  16.2974701  79.4279938
  82.2874146  14.9666595  79.1492310  82.3612366  50.3451729  51.0541954
  82.9262695  49.7900696  50.5167694  81.4837723  49.9824371  50.9329071
  10.0771389  70.5804443  64.9668350   9.8742657  70.7308044  65.8901291
   9.9450274  71.4323044  64.5507736  53.7178917  68.9492722  85.9567490
  53.4175224  68.8454437  85.0538483  52.9404716  68.7796326  86.4887924
  80.4534302  64.6456070  27.4547863  81.3833084  64.4586258  27.3259907
  80.3578262  64.7437439  28.4021320  59.7718468  51.6422310  25.9640617
  59.4235420  51.7777061  25.0828342  58.9961586  51.5841370  26.5218811
  86.6674271  34.2394180  17.3232841  86.6401062  35.1758728  17.1269894
  86.1304703  34.1438217  18.1099072  35.6581917  10.7890358  74.7638092
  36.3376923  11.1665974  75.3223419  35.8307610  11.1546965  73.8962021
  37.3533401  70.7863388  67.0519562  37.8307877  69.9681396  67.1891479
  37.4435844  71.2580414  67.8799591  35.7847328  12.7139330  82.2679672
  36.7115784  12.5575361  82.0870667  35.6522293  12.3719339  83.1521149
  69.7183533  44.3671646   0.3012567  68.8347549  44.5994530   0.5867732
  70.0575867  45.1662521  -0.1019906  18.6470909  38.7401352  26.2339382
  18.0452824  39.1998062  25.6484776  18.1446323  38.6073570  27.0377636
  52.6935234  14.2863483  16.0304890  52.8632774  13.5803976  16.6542282
  52.0669975  13.9128151  15.4106770   2.7676959  66.9083557  15.9268456
   2.4277925  67.3685303  15.1594248   3.3602140  66.2481613  15.5672703
   8.5343924  67.0257568  59.2985764   7.9685369  66.6260910  59.9591141
   7.9350128  67.5112991  58.7318077  57.1513710  55.4122124  29.4088383
  57.4498672  54.7846565  28.7505779  56.4356499  55.8839302  28.9828529
   7.2814469  53.1480560  30.7261105   7.6155701  52.4663849  31.3091354
   6.3542247  52.9367790  30.6172390   8.6806517  34.2932510  47.4940414
   9.0049047  34.6523590  48.3199539   9.3189611  33.6199226  47.2586212
  14.3132057  33.3402214  32.9875908  15.2315292  33.2442284  33.2399826
  14.0528116  32.4669762  32.6945534  27.6728058  57.6429214  32.8907433
  26.7831573  57.9957123  32.8735657  28.2355156  58.4055595  32.7566795
   7.1861863  59.5708084   0.6039437   7.1978569  59.5180283   1.5596160
   7.7795129  60.2927780   0.3966787  33.7491264   5.6161618  17.8169327
  32.9056854   5.8896618  18.1775398  33.5882301   5.5192561  16.8783398
  64.8239136  57.1161957  87.3711548  64.8229752  57.0499001  86.4162521
  63.9411774  56.8520432  87.6304474  68.4698639   1.6811416  81.8010101
  67.5725327   1.9086943  81.5575943  68.9484787   2.5086460  81.7520599
  51.7321587  44.5643158   2.3189042  52.1592636  43.7162285   2.1982572
  50.7968254  44.3737068   2.2478337   7.9618673  14.7065496  49.2206573
   8.2097578  14.0014906  48.6226006   7.1466489  15.0529079  48.8577728
  31.0191364  18.5685272   2.7862809  31.2960777  19.3677654   2.3382235
  31.8161621  18.0425949   2.8524442  23.9784775  51.5444450  24.4624233
  24.0138245  51.6749420  23.5148201  23.0496807  51.6222038  24.6804237
   9.1554022  70.1168060  48.3507042   9.0385046  70.8380203  47.7323036
   9.1807575  69.3327408  47.8022232  41.7210083  49.7928581  87.5533066
  41.3110695  50.0448151  86.7258453  41.6955109  48.8360023  87.5516510
  82.8658752  71.3646393  57.3798141  82.0389252  71.3720016  57.8618164
  82.8542480  70.5382919  56.8968582  83.2518845  50.3600121  87.9820557
  82.6248398  50.9034805  88.4592209  83.3813553  49.5951729  88.5428467
  72.5096207  63.9292831  69.2998962  73.3247375  64.3930359  69.4915695
  72.3080215  63.4556999  70.1069336  56.2863998   4.0741167  66.9536133
  56.4374809   4.9150238  67.3852158  57.0161934   3.5241423  67.2385025
  52.7592049  39.2513275  59.7548218  53.3105774  39.9587746  59.4205513
  51.9131317  39.6661606  59.9230499  82.3416977  20.5175476  12.2820826
  82.2913971  20.0378914  13.1089029  81.8327713  21.3135700  12.4356318
  54.5810890  63.9300270  23.4111061  54.8971176  63.3275375  24.0844269
  53.6924934  64.1537247  23.6878471  80.4201126  20.3197708  85.0649261
  80.7325363  20.8933640  84.3652039  81.1304398  20.3158493  85.7065201
  11.8643122  23.2201443  74.1706848  11.5748940  23.6451969  73.3633423
  11.1520395  22.6211987  74.3946609   0.0832881  41.5065727  15.8490191
   0.8526621  41.6769447  16.3924065  -0.5585682  41.1331253  16.4529953
  35.0612297  10.4380579   2.3915231  35.6459656  11.0101509   1.8945074
  34.1817017  10.7446737   2.1709676  85.8426285  29.1889114  47.0840645
  85.5546112  28.5342216  46.4479370  85.0813980  29.3261108  47.6479225
  45.2577972  71.4207611  82.5022049  46.1775360  71.2522888  82.2974472
  44.8906364  71.7661209  81.6884766  72.5418243  17.2685585  38.7957993
  72.2097168  16.3822441  38.9385567  73.1949005  17.3934193  39.4843712
   4.0532074  30.6699409   1.7882360   4.4111686  31.0584717   0.9900257
   3.1067767  30.7892723   1.7091079  22.7655563  25.1931534  78.6755676
  22.9415550  24.9253254  79.5775223  21.8518867  25.4783974  78.6843719
  48.0991287  36.9207497  35.2853851  48.5922470  36.1356583  35.5235023
  47.5354309  36.6400566  34.5644875  31.0823078  46.8216743  36.8735008
  30.4080963  46.1677132  37.0579109  31.2961788  47.1931000  37.7293816
  80.0406952  27.4852810  17.4067993  80.3763885  27.5625324  16.5137272
  80.1279831  26.5552807  17.6158752  10.0430155  68.8327179  43.7978477
  10.5721836  68.5801773  43.0412521  10.5990229  69.4388580  44.2874184
  39.0290413  53.1473656  83.7441788  38.8953781  54.0930061  83.6798859
  38.9507980  52.8326340  82.8435974   5.0385737  42.0318336  85.7747040
   4.4209032  42.7622032  85.8103714   4.9198627  41.5768280  86.6084366
  59.3438148   7.2435293  17.0339851  59.5174370   7.7122130  17.8503323
  60.1870193   6.8588820  16.7946491  38.4213486  47.1569557  67.6776657
  37.5301323  47.2026558  67.3314362  38.7726250  48.0384560  67.5519867
  21.6098747  25.6905022  86.4530334  22.3084927  25.2028217  86.0167618
  22.0606079  26.4080868  86.8981705  62.1791382  34.3365631  15.9455214
  61.6594315  34.0909805  15.1801291  61.7466087  35.1189003  16.2877274
  74.8693314  33.1681404  57.9950066  74.7594604  32.2202988  57.9191589
  74.2162247  33.4339218  58.6423416  41.8187752  11.5946770  67.5139771
  42.5134850  11.8253765  66.8972168  42.0777855  10.7396593  67.8576202
  41.4022713  51.3610954  52.5975609  41.7162209  52.1125565  52.0945969
  40.7607193  51.7302628  53.2044868  54.9862747  23.4205894  58.4699860
  55.4499741  22.5844231  58.4247818  54.5304222  23.4873352  57.6309547
  21.0512962  36.9509430  76.6377029  20.8091793  37.1458015  75.7323608
  21.0229378  37.7988281  77.0810089  76.4472809  58.4098167  12.1220312
  76.4108505  59.3329277  12.3725681  76.1480865  57.9386063  12.8996401
  26.7921886  63.2105331  59.7066727  26.3016415  62.6147957  59.1403732
  26.8595772  62.7465858  60.5412064   9.2638826  25.2698689   6.1569209
   8.7621841  25.2360725   5.3424349  10.0193958  25.8200493   5.9501982
   9.8680840  46.0439644  15.3003235   9.1215611  46.1893234  14.7191124
   9.7206707  46.6413803  16.0335312  77.9831085  46.7692146  34.2475739
  77.2470398  47.3811188  34.2507935  78.3856888  46.8742790  35.1096191
  65.5779266  13.3752871  26.4887390  65.4176788  13.3510761  25.5453587
  65.8069687  14.2869415  26.6694565  43.0965767  36.5922356  33.0092850
  43.2180748  36.8257599  32.0889931  43.3626442  35.6741905  33.0605736
  43.3985786  38.9809875  72.6983185  43.1191139  38.0663490  72.6587601
  43.9440117  39.0986252  71.9205627  77.8726044  16.9104252  14.7724638
  77.0038910  16.9225674  14.3706827  77.7179108  16.6114273  15.6685114
   9.0179090  56.3813477  81.3072662   8.6643867  57.0921974  80.7725296
   8.2466173  55.8978043  81.6031189  61.8032913   6.6362925  88.6616516
  62.6448898   6.5689611  88.2106400  61.1654053   6.3060851  88.0289612
  65.1618347  67.2847595  84.9120483  65.8485184  67.4194336  84.2589340
  64.8313446  68.1638794  85.0968781  67.2092209  58.9257851  30.9353580
  66.4754333  58.8601379  31.5464878  67.2012787  58.0942268  30.4613571
  46.3884315  51.2642403  58.4549255  47.1941414  50.8703232  58.7894249
  45.7617722  50.5412064  58.4275093   4.1993179  69.9292526  76.9082413
   3.8838322  69.0614014  77.1603012   5.1451983  69.8907013  77.0498581
   5.7927113  40.9262657  68.0193481   5.6844482  40.6026192  67.1250534
   5.8588071  41.8763924  67.9238510  64.2850571  49.6824951  22.6154041
  64.2780609  50.2139778  23.4114647  65.0006790  50.0438919  22.0924168
  54.7783585  16.9114475  20.5095329  54.4535713  16.0325031  20.3140793
  55.0304794  17.2684879  19.6579533  79.4993286   7.9257092  61.3902435
  79.6371384   7.4168997  62.1892166  78.8164291   8.5551529  61.6219368
   4.6472802   9.8352995   3.1793814   4.2489133  10.6627464   2.9094415
   5.4970632   9.8236723   2.7389660  17.3053875  37.1661186  64.5135040
  17.4396477  36.6678581  65.3196945  17.2276039  36.5000801  63.8304405
  36.9913979  55.4590454  80.9798660  36.5085335  55.4239883  80.1541290
  36.3520470  55.7758064  81.6179276  63.0402794  70.2670898  53.5752525
  63.8675652  69.9438477  53.2183990  63.1452217  70.1973877  54.5241241
  68.5318985  40.0435486  68.3979645  67.6038895  40.1136894  68.6218262
  68.9340210  39.6400986  69.1672211  72.1049118  16.6329403  79.2762527
  72.5328445  16.0764885  79.9270020  72.3712006  16.2645817  78.4338531
  73.2268906  66.5173340  84.3477859  73.3092880  65.5948181  84.1061325
  74.1170502  66.7857285  84.5754089  73.5458984   3.3848658  56.5003777
  73.9681931   3.3756299  57.3593369  72.6255493   3.5693052  56.6879311
  40.8958321  62.1098480  32.4693642  40.9474640  62.9181938  32.9794083
  41.7538300  62.0349770  32.0516739   1.8885887  56.0806351   3.9830434
   1.3474487  55.4541588   3.5024943   1.2667813  56.5717926   4.5200267
   0.1413991   1.1028879  62.6275215  -0.6396080   0.8041509  62.1616707
   0.6815099   1.5123171  61.9515915  17.8130169  34.5517616   4.3411574
  16.8759327  34.7245331   4.2503009  17.9988747  34.7187805   5.2651668
  62.8548698  47.4612350  85.5130310  63.0886269  48.0896492  84.8298874
  61.9816856  47.1549683  85.2681122   4.9262376  61.1217766  79.8473053
   5.4385571  60.4980049  79.3328476   5.2204623  60.9878960  80.7482681
  84.3844986  11.1230812  60.7232018  83.9274216  10.5094500  61.2983246
  85.1821899  10.6609945  60.4655113  55.8764610  49.8118362  53.6125145
  55.2838287  49.1157379  53.3288460  55.6143951  50.5744591  53.0968056
  67.9041061  24.9399929  84.4563141  67.2537689  25.5319519  84.8343048
  68.2917252  24.4966869  85.2109375  41.7483864   7.3175635  17.0657520
  41.5826035   7.1159511  17.9866753  40.9138908   7.6553054  16.7405205
  62.6651039  68.7731552  45.5160255  63.4491005  68.2296448  45.5946808
  62.0173569  68.3411942  46.0728607  85.4673691  71.1423340   6.4981022
  85.9002380  71.7720490   7.0745735  85.9800110  71.1655731   5.6900845
  71.0079041  55.8598824  36.1848526  70.6874466  56.4046898  36.9036865
  70.2168732  55.4859238  35.7966995  10.1363029  66.7393799  87.0814972
   9.6087246  67.5376816  87.1062927   9.6695271  66.1624908  86.4768906
  29.8541565  65.1295242   8.9811354  29.2218056  65.3676300   9.6591253
  29.4494152  65.4195480   8.1636372  81.9898529  38.0253334  49.8706474
  81.2061386  37.8255882  50.3826218  81.7618103  38.8164482  49.3824196
  22.4099808  27.0594273  69.6343155  22.8317337  26.4322414  69.0469513
  22.8814220  27.8794460  69.4875336  68.3232880  67.5502167  79.2434540
  67.5896912  68.1595078  79.3261108  68.1013031  67.0094910  78.4854507
  72.9253845  43.1857033   9.1092901  73.1373520  43.4881973   8.2262278
  72.5857849  42.2996063   8.9838591  -0.1544913  16.8274384  17.3277111
  -0.2925835  16.2256603  18.0591660   0.7928556  16.9623852  17.3041534
  12.1751394  26.8307400  84.5936584  11.5410509  26.1146908  84.6315460
  12.0364103  27.2282848  83.7340393  57.1381798  60.7779961  86.3956680
  56.7663269  59.9312668  86.6426697  56.7346916  61.4019737  86.9990540
  54.4519386   1.5743139  17.6645279  55.3182182   1.9533117  17.8133602
  53.9422493   2.2862744  17.2777977  57.6093369   0.2882218  27.5040665
  57.0918579   0.9584537  27.9504280  57.0034065  -0.4434009  27.3865433
  68.7616119  63.9171791  19.0683517  68.5188980  62.9987755  18.9506264
  68.7983398  64.2710114  18.1797104  85.8351669  13.0384483  11.7470322
  86.1643982  13.7596769  12.2833757  84.9254684  13.2726469  11.5630722
   7.9563708  50.4473991  77.9505234   8.0473804  51.4002571  77.9534836
   8.1488371  50.1856117  78.8508911  30.7758064  56.4448204  21.3927155
  30.6974258  55.6604347  20.8497372  29.8812656  56.6274490  21.6802502
  72.0060654  45.2784500  85.5067139  72.8692474  44.9153099  85.3085251
  71.7136841  45.6652260  84.6813965  12.7999020   8.6833372  13.0184565
  13.3119307   9.4293718  12.7062206  12.1266098   9.0718880  13.5769711
   4.9282517  29.7380810   9.7533407   5.4631376  30.2946777   9.1873655
   5.0944324  28.8487206   9.4408407  84.3551941  69.0619431  16.2637463
  84.6647186  69.9354706  16.0242043  84.5332184  68.5247192  15.4917803
  10.1057606  18.7249489  63.5193138  10.1626606  17.9280930  64.0465851
   9.2101469  18.7251854  63.1815147  54.2637863  71.5144806  87.1664581
  54.1976242  71.2072601  86.2623138  53.5257912  71.1011124  87.6144867
  59.5004387  58.7606468  69.2014160  60.3312340  58.5548859  68.7728424
  59.7129898  59.4701729  69.8077393  76.6826172  13.0571756   1.7538929
  76.6514969  13.2398491   2.6929848  75.7642593  13.0198879   1.4865832
   1.4321917  51.1404762  58.6304398   2.0504565  50.4169884  58.5277596
   1.8169777  51.6891823  59.3138809  82.7403641  18.1474266  34.8326263
  81.7919388  18.2012920  34.7151070  83.1008072  18.3589153  33.9714699
  85.8538742  17.1617012  53.3136368  86.3831024  17.6504173  53.9439583
  86.4927750  16.7610378  52.7241402  36.7056198  58.6547241  76.7977829
  36.0777283  57.9603806  76.9974518  37.3163261  58.2546349  76.1787567
  71.9405975  21.3581123  66.9601822  72.4372864  21.8401508  66.2989960
  71.1418839  21.0857773  66.5083771  65.2258606  41.8603020   2.7488172
  66.0705414  41.8084717   2.3015392  65.4190063  41.6173363   3.6542974
  49.0020714  10.4274778  80.2662506  48.0988007  10.7397184  80.2129440
  49.4435730  11.0660362  80.8262024  15.1561108  57.8827896  82.8323441
  16.0517540  58.2197990  82.8542175  14.7404699  58.2566872  83.6093063
  30.6996517  25.5741844   2.0693905  31.2407265  25.5218372   2.8572545
  29.8777142  25.1493301   2.3146460  76.7017441  57.9169846  38.6581154
  76.0133438  58.3097000  38.1213570  76.2325287  57.3613510  39.2804832
  18.8295212  59.9802055   4.6638074  19.1975117  59.1426659   4.3821321
  19.4460430  60.3039436   5.3205609  24.5533390  43.7866135   1.9050049
  24.6227932  43.8465729   2.8577971  24.2308025  42.8999481   1.7436929
  79.6742630   4.2668548   9.6388283  78.7287292   4.3084211   9.4957705
  79.8308258   3.3743446   9.9472847  79.4906387  47.4907532  79.5849838
  80.2494965  46.9604225  79.3418427  79.8648529  48.3104515  79.9079285
  74.5100708  29.1500435  29.8295116  75.0395813  28.3575115  29.9174862
  74.3579712  29.4376297  30.7297287  70.6880264  -0.0783942  23.3730774
  70.8813400   0.5450836  24.0731773  69.7414780  -0.2109806  23.4250450
  57.1264725  42.1846809  15.9366751  56.9983406  42.9765625  16.4589138
  56.3082695  41.6977882  16.0352192  62.7682953  14.7054768  81.6642380
  63.0193787  14.3763142  80.8012009  61.8931961  15.0714273  81.5357208
  62.1199532  21.8571720  81.1424866  62.0419044  21.1950836  81.8293457
  63.0467186  21.8460388  80.9032822  38.4617004   7.2061296  70.2567596
  37.9173470   6.4594259  70.5064468  38.6377029   7.6603746  71.0807190
  21.3029594  53.9087524  17.9978313  20.8250656  53.6814079  17.2002316
  20.6765594  53.7536507  18.7047958  56.1852570   7.7510171  57.6874161
  56.6511955   7.6210208  56.8614426  56.6740608   7.2282057  58.3230019
  15.0218945  18.6974964  74.4867554  15.1028061  19.6504784  74.4478760
  14.2825565  18.5436935  75.0749359  39.5028992  70.5518951  59.4804535
  38.6076469  70.8466263  59.3134499  40.0547867  71.2204132  59.0745697
  30.4833813  18.9791908  78.8175659  30.2496166  18.4863186  78.0310135
  31.2001762  18.4798851  79.2088852  80.2935791  36.2449265  64.3177261
  79.3994293  36.1549759  64.6473236  80.8234863  35.7180252  64.9158936
  32.1281319  24.9233894  76.2677765  31.8567390  25.8412991  76.2719345
  31.4561462  24.4772778  75.7523575  22.2481613  49.0662994  18.2579002
  22.1022263  49.4502831  17.3933239  21.7174511  49.5997086  18.8495522
  68.5291824  55.0338821  88.6923447  69.2968216  55.0453415  88.1206512
  68.7807007  54.4647293  89.4196930  46.0797844  53.6289864  10.4918852
  46.8976173  53.8634567  10.9305201  45.6171112  53.0802650  11.1251869
  55.7515297  55.7810097   4.5591674  55.7091408  54.8987350   4.9279876
  54.9277916  56.1908302   4.8232422  73.8493576  45.1314430  66.2811813
  74.5498657  45.2043190  65.6329422  73.4037018  44.3133583  66.0612869
  63.0331726  46.6902390  24.2632580  63.1595612  45.8201866  23.8847504
  62.6617050  47.2099075  23.5503864  22.6247215  65.5954437  62.3942719
  23.2606983  65.7511520  61.6960449  22.3454609  66.4705505  62.6634064
  15.1716318   8.2913876  14.8397646  14.2840462   7.9796667  14.6629753
  15.1571360   9.2135105  14.5834246  36.4185143  30.7915039  12.4231882
  36.4601974  29.9436131  12.8654289  37.2998161  31.1534328  12.5156307
  33.1571884  20.5865574  11.7400723  33.3891373  21.1485424  12.4793987
  33.3629494  21.1113911  10.9664812  19.5334282  40.9956245  47.7035942
  19.1803360  40.4138603  47.0304604  18.9487762  40.8782005  48.4523430
  57.2299652  67.5121155  26.1110229  56.6445427  66.9384155  26.6053696
  58.0908165  67.1010437  26.1896420  38.2824135  31.3407459  55.1561699
  38.0240097  30.8050976  55.9061966  38.5106812  32.1895027  55.5352974
  86.1671982  62.1562157  34.6875534  85.5636215  62.8944244  34.6040382
  85.6516800  61.4725571  35.1154289  10.6843596  55.8415489  38.4905014
  10.6190739  55.1569672  37.8246803  11.5623741  55.7363434  38.8569069
  86.7218246  59.5340576  18.0711555  86.9452591  60.4631348  18.1270657
  85.8476562  59.4743385  18.4565067  15.9257154  58.6489792  52.8348198
  16.4342842  59.4062462  52.5447540  15.7771988  58.8033257  53.7677460
  62.8790245   6.5155163  38.3801613  62.3797607   6.6457043  39.1863976
  63.7929764   6.6193414  38.6450005  85.1240311  44.3978271   9.2265196
  86.0711746  44.2689819   9.2770596  84.9648819  45.2014465   9.7215967
  59.2358131  47.9766617  29.6884136  60.1753769  48.1205635  29.8012905
  58.8287468  48.7721100  30.0316257  39.4892616  69.2346344  62.9133835
  40.3130646  69.0498276  63.3644066  39.1942177  68.3817062  62.5944824
   8.1323509  14.5365114  55.6709938   8.1415205  15.0409737  54.8575668
   7.4861312  14.9799318  56.2205505  68.3417892   0.4218683  59.1567421
  67.4671021   0.0687586  58.9940453  68.2181778   1.0490505  59.8692017
  31.4497890  51.4762459  47.4051819  31.8921261  51.2381172  48.2199593
  30.7891083  52.1164246  47.6695824  55.3416367  23.2202797  36.0668678
  56.1076012  23.7934818  36.0979843  55.0378647  23.2754269  35.1608276
  62.4131279  62.5496712  80.7525635  62.0207329  62.1552925  81.5314941
  62.7965393  63.3687706  81.0661011  73.9433365  51.9681892  55.0048599
  74.0062408  52.5326729  54.2343826  74.8445129  51.6941376  55.1752052
   1.4622242  12.9126081  16.4690933   2.1301451  12.2301311  16.4032230
   1.7021106  13.4076986  17.2524014  84.4510574  18.6642971  17.0029984
  85.1052933  19.3226166  16.7688675  84.9171066  17.8305740  16.9402752
  40.0602989  43.4417725   7.8158822  40.6681519  44.0550346   7.4027820
  40.5611191  42.6308060   7.9038763  42.1207962  60.2052307  41.9570923
  41.8655510  60.0048256  41.0565834  41.7841454  61.0880203  42.1106453
  18.5604649  54.5128365   4.2724648  19.0225201  53.7099190   4.0315027
  17.9257584  54.6444855   3.5681577  21.8081474   0.0084743  63.1675034
  21.0608902   0.5959285  63.2803688  22.4331036   0.2843564  63.8379898
  55.6292191  18.0362587  14.3024025  55.7352715  18.5191364  13.4827604
  55.6651192  17.1152515  14.0441618  48.3800316   0.8391559  75.4811020
  47.6559792   1.4641845  75.5174103  47.9885559   0.0392403  75.1302261
  52.0976830  43.2861443  73.4316788  53.0391617  43.2349014  73.2666779
  51.7273293  43.6053734  72.6087799  45.9757004   0.9162754  20.8242035
  45.4399223   1.7054447  20.9041252  46.7765770   1.2132432  20.3921890
  85.1097412   5.6192861   8.7812738  85.6225815   6.4035225   8.5858250
  84.4882965   5.5526524   8.0562906  59.7003479  61.7449608  73.4230652
  58.8786240  62.2285194  73.5077591  60.3716316  62.3597260  73.7191544
  34.2696381  66.4720612  21.4774971  34.1160889  66.1300583  22.3582268
  34.2974205  67.4221115  21.5909557  78.6945801  38.8021812  87.5521317
  78.1914825  39.4699974  88.0181198  78.0702286  38.4180107  86.9366379
  72.2749634  32.7969856  73.6007843  71.8498230  33.1210785  74.3947906
  73.1650314  32.5791817  73.8775177  63.7314262  13.5172472   0.9240527
  64.5429382  13.1032543   0.6302959  63.7596703  14.3955975   0.5446653
  25.4982338  71.2716141   1.9532931  25.0237904  70.6450577   2.4997015
  26.3701630  71.3191833   2.3453517  41.4582634  46.6508179  42.6207008
  41.4378738  47.5990448  42.7498627  42.0553627  46.5222664  41.8836975
  15.2407284  41.4379845  80.7751465  14.6325436  40.8861198  80.2834244
  15.5709343  42.0638428  80.1305542   7.5822163  69.4843597   9.1442966
   7.3399434  69.8903656   9.9765768   7.0086236  69.8987579   8.4997082
  39.8797340  37.2221069   7.8370728  39.3818474  38.0138359   7.6333475
  39.3599205  36.5098228   7.4646769  63.9962769  56.0046272  78.2543945
  63.9688911  56.5948524  77.5013199  64.9293518  55.8602066  78.4117050
  34.0755501   1.8600594  61.7773018  34.2463608   0.9725828  61.4619560
  33.6002541   1.7350454  62.5987015  31.6409988   3.5928268  28.0690613
  32.0348053   4.3576741  27.6493511  31.0780849   3.9576273  28.7519073
  58.1378975  41.1913338  84.1137314  58.9103661  40.6492577  84.2739639
  57.9256248  41.0395508  83.1927872   1.5732323  27.4603901  59.7834740
   1.9956009  28.3061047  59.6331215   1.2908890  27.1757870  58.9142685
  54.7019424   3.0568547  70.8826141  55.4172592   2.5031683  71.1956406
  54.6886902   2.9183822  69.9355698   8.1862555  41.9608002  54.1021271
   8.3258839  41.7209892  53.1860352   8.3150206  42.9090538  54.1237793
  54.7853928  30.9703083  80.4136581  55.2905617  31.3281441  79.6836014
  54.0006180  30.6046429  80.0054321  67.5567322  24.0424557  36.5579910
  68.2790222  24.6531639  36.4111519  66.8468094  24.5880680  36.8964462
  76.0317078  28.5294609  55.1937943  76.5986252  28.1671410  54.5129395
  76.5522079  29.2266064  55.5929184  28.1734982  38.6665726  87.6112671
  28.9453335  38.7733078  88.1672440  28.0304432  39.5333176  87.2311096
   3.6823015  59.0917244  83.3171234   2.8731482  59.1640244  82.8108902
   3.4577138  58.5139046  84.0464478   8.2041845  45.8659058  56.5411987
   7.3477082  45.4965019  56.3262024   8.4781685  45.3936882  57.3274422
  44.7205429  28.2740326  14.3341494  45.2813683  28.2309589  15.1086493
  44.5628853  29.2091885  14.2043076  41.4220772  51.1327972  48.7311478
  42.0673790  50.4284172  48.7917099  40.6240692  50.7593651  49.1052666
  84.1191177  26.2302475  40.4229126  84.7125320  25.8086662  41.0444946
  84.4414062  25.9599609  39.5630798  14.3113308  67.3113327  68.1476593
  13.7235031  68.0594177  68.0424805  15.1744261  67.7022018  68.2837448
  55.6907539  39.5894814  85.5561447  55.2685547  40.2463379  86.1097794
  56.6263237  39.6976662  85.7271500  48.0969734  53.4831200  51.4954033
  47.2612724  53.2712440  51.9112701  48.4553795  52.6353989  51.2324486
  83.7278061  30.7516479  87.6258316  83.5466690  31.5184917  88.1693115
  84.4343948  30.2955990  88.0829697  52.7082939  42.3984528   0.7593871
  53.5242805  42.8461952   0.5359493  52.8932533  41.4721260   0.6046607
  61.5127296   6.6951289  44.6130829  61.1230087   5.8265133  44.5137939
  60.7721024   7.2689519  44.8091278  75.4121857   4.2822003  28.3222733
  76.2531891   4.7290516  28.2260094  75.5865097   3.5747745  28.9430695
  76.9934464  15.9776154  69.5769348  76.3085022  16.5400391  69.9385452
  77.6074524  16.5840149  69.1627960  72.6271286  10.1135035  41.6117935
  72.1121674   9.3255138  41.7853470  72.8749008  10.4335728  42.4792023
  41.4240761  20.0717831  62.9342651  40.9318733  19.2999306  63.2139244
  41.7608109  20.4486179  63.7471848  82.4386902  17.5709610  88.8150330
  83.1918488  17.0292587  89.0507126  81.6783829  17.0450916  89.0632782
  37.1979027  20.3312721   3.4206049  36.5621223  19.7687817   2.9783118
  36.8143806  21.2071609   3.3763263   5.2123384  57.8595085  13.3939400
   5.0281420  58.7882996  13.2537489   6.1183519  57.7488327  13.1056309
  76.6236877   2.6370668  30.3120003  76.3718185   1.9591274  30.9390507
  77.2508163   3.1819746  30.7874126  26.9872875  31.1136627  72.9551086
  26.9214935  32.0246353  73.2415237  27.7746887  31.0898228  72.4113617
  79.2639465  69.9591370  66.2471542  79.6692963  70.2276688  65.4226456
  79.7823181  70.3966064  66.9225388  15.8445120  64.4189682  73.4153900
  16.3757648  64.1533890  74.1660385  15.1265821  63.7862282  73.3942108
  44.6004105  55.7809792  87.7015533  44.6655159  55.5771408  86.7685852
  43.7156219  55.5087509  87.9450226  35.9113007  58.7103958  89.0135574
  36.5755463  59.2988091  88.6547012  35.0805359  59.1535835  88.8413696
  24.7735519  52.3329353   5.9107008  24.4322338  53.0801353   6.4020495
  24.0381851  51.7221031   5.8621788  61.3229828  13.3820114  21.2774601
  60.9625282  12.7548857  21.9043732  61.5664978  14.1395206  21.8095436
  17.3176270  56.6206474  77.0936356  17.6252098  56.9736366  77.9285202
  17.0142231  57.3869362  76.6068268  28.5035381  52.4980850  45.7633171
  28.7037468  52.1419716  44.8976784  27.5553169  52.6286240  45.7551498
  70.4793320  62.8534966  73.2953415  70.7419281  63.4637756  73.9844284
  70.5773926  63.3517838  72.4839706  38.8998909  66.0438690  68.1656570
  38.0890350  65.6542130  68.4926300  39.5055962  65.9922256  68.9050446
  60.2380905  23.4224491  80.0021133  60.8181000  24.1795673  79.9209213
  60.8172264  22.7029190  80.2533264  64.2971268  66.4446640  50.4840317
  64.5393677  67.3378983  50.2397232  63.4407234  66.3093262  50.0784569
  86.4978790  67.4598007  22.9337196  85.6728897  67.9017029  22.7328682
  87.0711441  68.1565247  23.2533646  63.0310440  43.8339081  46.9643860
  63.3481674  44.3573608  47.7003632  63.4709969  42.9896355  47.0637894
  53.6085510  44.2604942  24.3622551  54.4017677  44.1651917  23.8350372
  53.3520966  45.1753273  24.2458897  49.8521042  11.9646978  12.2645035
  50.3190651  12.2915545  11.4955139  50.0712166  11.0335875  12.2999239
  81.9636154  10.5604086  11.1993446  81.0092926  10.5384417  11.2701302
  82.1776352   9.8298016  10.6191349  59.7806549  66.0932007  81.7091751
  59.0883636  65.5512772  82.0876923  60.5191002  65.9924469  82.3098221
  11.4588318  62.9174614  20.2343311  12.4025259  63.0647469  20.2974262
  11.3208017  62.0668144  20.6509628  57.8155975  15.2165508  50.6934280
  57.8539810  15.5589390  49.8003807  58.6471977  15.4805479  51.0871010
  24.5153656  50.0776749  33.8676491  24.1606026  49.7510262  33.0408020
  25.4010048  49.7167244  33.9075241   8.2969570  45.8632164  29.7997284
   9.1222267  45.4696999  29.5163422   7.7037787  45.7348633  29.0595264
  79.2636185  43.4285583  43.4389915  78.8427124  42.9007187  44.1175613
  80.1818390  43.1590729  43.4610596  13.0369301  53.5368233  52.7075272
  12.3673782  53.5977173  53.3888664  12.6960926  54.0689240  51.9885445
  79.5176239  39.9954300  17.2483234  80.4166336  40.0234604  16.9208660
  79.0997009  40.7676315  16.8671684  83.5023499  56.9882774  38.9231796
  82.7176514  57.3099709  38.4793396  83.8052063  57.7323723  39.4435921
  16.8209763  52.6740036  58.6700096  16.9201241  53.0678635  57.8032494
  17.5962563  52.1220093  58.7723694  42.4067154  27.7353191  82.1149979
  41.5976410  27.2249832  82.0805817  42.1344147  28.5945244  82.4372559
  79.3436966  10.7290964  57.6523552  78.5735931  10.6391916  58.2136803
  79.1733170  10.1416407  56.9160843  75.5062103  57.2074471  59.4070358
  74.9746780  56.4120331  59.3750648  74.9712296  57.8707047  58.9710159
  57.8456383  66.3464661  30.8318157  57.1950264  66.4981384  30.1462994
  58.6747131  66.6212082  30.4401760  34.2177620   2.1156876  27.1641560
  33.3640175   2.4193866  27.4725666  34.0191956   1.3501054  26.6250019
  28.8715878  69.9036179  13.2577143  28.7189598  70.0090485  12.3186607
  28.0428791  69.5672455  13.5987835   5.5504637  57.7948532  88.3248444
   6.2612295  58.2671089  88.7584534   5.4145851  57.0170631  88.8659592
  64.8448410  33.7737503   0.4374067  64.8759842  32.8602562   0.7216429
  65.7277069  34.1056099   0.6006360  22.6946621  62.6911583   8.0695267
  22.7398624  63.6240807   8.2789221  22.2105236  62.3050423   8.7994289
  82.9189682  29.6427155   4.3723650  83.8479843  29.8601284   4.4490800
  82.5193481  30.0191364   5.1564851   0.4261404  33.4886436  68.3504333
   0.4464652  33.7230835  67.4226074   0.0947720  32.5907249  68.3633881
  55.2353134  19.0919857  89.2124329  55.8633003  18.5790234  88.7037811
  54.3795929  18.7572289  88.9442673  44.7773438  26.2618713  18.2143478
  44.9818687  25.5652599  18.8381519  44.5416031  25.8008518  17.4092903
  70.9514465   0.3673296  31.4586678  71.5387192   1.1001916  31.2735710
  71.5182877  -0.4038118  31.4425144  26.2235470  71.1316910  66.5955734
  25.6779938  70.5543213  67.1296616  27.1194172  70.8424454  66.7687378
  72.8257294   0.9518645  58.5962868  73.1519852   1.7971216  58.9050407
  73.2465897   0.8289960  57.7453995  79.5532761  59.2942085  57.3718452
  79.8554382  58.4145966  57.5981522  78.6143417  59.1922493  57.2161522
  23.5839863  12.3744221  15.5818291  24.4589691  12.4850760  15.2098131
  23.2547817  13.2667894  15.6892338  75.8941574  18.9255733  69.7444992
  76.5478821  19.1782722  69.0925674  75.1309814  19.4660645  69.5403900
  58.4631500  53.0138359  50.0699806  57.6891022  53.1577263  49.5255699
  59.2001343  53.2431335  49.5038490  12.5083361  48.3999481  38.1223412
  13.3451328  48.7260170  38.4535255  12.0255108  49.1882401  37.8739281
  81.5023422   0.0433762  75.8285446  80.8297119  -0.6282021  75.9416199
  81.0350189   0.7895743  75.4530029  40.9587479  37.4498978  17.4531860
  40.9807777  38.3422699  17.7987556  40.8716927  36.8949928  18.2282562
  42.2004967  25.7955894  72.5014648  42.4455185  24.9423943  72.1433334
  41.5788956  26.1521530  71.8668747  83.6526489  17.9271069  84.4235382
  83.2518311  17.2946377  85.0198212  82.9401932  18.1930542  83.8422318
  17.4943714  36.9144287   0.5556558  16.7227650  36.8756142  -0.0094534
  18.1038609  37.4869270   0.0898223  58.9026909  70.5938492  17.4004478
  58.2521515  69.9319000  17.1662216  58.4536552  71.1590576  18.0290470
  77.2363892  34.8648682   5.8290277  77.6816864  35.6966133   5.9907174
  76.9736938  34.9086075   4.9096217  62.0994530  22.7938061  58.9884109
  61.6085014  23.5842628  59.2128563  62.2417870  22.3541527  59.8266716
  66.8026581   1.4684594  13.5723295  67.4923019   0.8139836  13.6831465
  66.6735916   1.5224212  12.6254072  21.4453983  36.9725876  56.1503944
  22.3497276  36.7460632  56.3674355  21.4433956  37.9284630  56.1000748
  51.7693672  42.8558159  22.9278831  52.3345566  42.0864029  22.9971619
  52.2594986  43.5530548  23.3636074   2.6685369  52.1459885  61.0960426
   3.4469440  52.4431801  61.5671997   2.2048354  51.5926590  61.7245636
   5.7301087  16.0133038  53.9927635   6.6153941  16.2131348  53.6885109
   5.7110786  15.0589552  54.0641022   5.4570813  43.7887573  73.4465256
   5.9772272  44.4363251  73.9222717   4.8721633  43.4187698  74.1077423
  48.5489044  64.0645981  39.3456383  49.4001503  63.8042412  38.9937477
  48.2716789  63.3190536  39.8781319  75.2604980  28.3088036  65.4752960
  74.6560364  29.0254879  65.2823944  75.9188004  28.3575535  64.7821198
  42.3451996  55.9292030  19.8084583  41.7960243  55.9688148  19.0254726
  42.7409859  55.0581398  19.7796001  83.9444504  30.8125458   1.4875416
  83.6220169  30.4341240   2.3055065  83.2406845  31.3934593   1.1985992
  27.0462837  20.5317135   7.1229935  26.1720467  20.8862820   7.2849312
  26.8957806  19.7692165   6.5642648  71.7003708  37.7207108  79.5420685
  72.3679733  37.0391235  79.6193619  72.0227280  38.4351311  80.0915375
   3.9401398  57.3001404  30.5429058   4.6715584  56.7055206  30.7092915
   3.1873887  56.7233658  30.4127998  67.5397415  25.1517925  32.7181587
  68.2608185  25.6348381  32.3144875  66.7627106  25.6768227  32.5263481
  79.7855072  25.9349518  86.7164917  79.9261627  24.9927750  86.6229401
  79.1542816  26.0130253  87.4318161  82.3688812  69.3101883  62.8886719
  82.0258331  69.7101822  63.6877670  82.1422958  68.3836136  62.9683075
  19.7139664  59.0366936  60.0092545  19.6123180  58.1446991  60.3412819
  20.0593910  58.9246826  59.1236076  72.9568481  15.6861610  55.3181953
  72.9803085  15.5401964  54.3724785  72.8915482  16.6364822  55.4123192
   9.3992519  67.3236847   9.3148108   9.1922340  68.2549973   9.3924570
   9.4484510  67.0130768  10.2188768   7.6233425   9.4304161  18.7369862
   8.1288261   8.6896935  18.4022503   6.8206549   9.4278049  18.2155285
  66.4458008  35.3301964  74.3496628  65.7695999  35.7439003  73.8131638
  67.1346970  35.9911957  74.4184189  83.4965820   1.7766362  43.4329414
  83.6280136   1.7471831  42.4852638  82.5748520   1.5486827  43.5541153
  43.5690613  36.3829155  30.1613350  43.9291153  35.5387878  29.8892307
  42.7307434  36.4445381  29.7034512  30.9957752  67.4919052  37.3566895
  30.5919304  68.1887436  37.8739510  30.2594452  66.9591904  37.0562439
  69.4662704  43.2847404  33.7058220  68.6121902  43.3116417  34.1371689
  69.7634048  42.3818893  33.8189583  70.9320831  14.1183987  59.3492889
  71.8071976  13.7306566  59.3418159  70.8579712  14.5587120  58.5026093
   9.1841068  26.2151051  77.7221832   9.8913498  25.9928360  77.1166840
   9.6287937  26.4227657  78.5439911  81.2338257  18.4740753  49.9603729
  80.8694687  18.1021252  49.1571732  81.2903595  17.7328663  50.5634041
  53.0731239  46.4700279   9.0240192  52.8012047  47.3218079   9.3657227
  53.2536278  46.6300926   8.0977211  34.3088608  66.7176132  32.1455078
  33.8306503  65.9379501  31.8632450  34.1267357  67.3686905  31.4678936
  79.8760834  20.7049580  16.0081921  79.0677032  21.2107792  16.0912952
  79.7229385  19.9204483  16.5348072  50.9695168  38.0835114  57.9182549
  50.3756866  37.6785583  58.5504036  51.4917259  38.6948013  58.4377289
   8.1977339   2.5550394  17.9302940   7.8151479   2.2497537  18.7528877
   8.8071060   3.2455389  18.1912689  19.3379536  50.9686813  54.1116333
  18.8413315  51.7784500  53.9938507  20.0720959  51.0471992  53.5024529
  55.2755013  13.3305197   3.1203308  55.2849960  14.1430788   3.6261849
  55.9606285  12.7929926   3.5176897   9.6536770  13.9792624  51.1860733
   9.0021467  14.3755789  50.6075630  10.3164396  14.6600437  51.3023262
  50.3417702  32.9941177  32.4906273  49.9125595  32.4298477  31.8475037
  51.2011375  33.1787071  32.1116219  43.0118866  52.0511360  55.1052856
  42.6236076  51.4320412  55.7235031  42.6241798  51.8213501  54.2608261
  22.6067715  47.6361580  45.7469139  22.0540924  48.3560791  46.0510406
  22.7019005  47.0678482  46.5112457  54.4328880  58.1013336  80.7925110
  55.3879051  58.1653099  80.8015976  54.1356544  58.9853745  80.5771942
  80.0831451  49.2450676  30.5574799  79.5437393  50.0267677  30.6767082
  79.6723404  48.7794113  29.8290329  54.1804352  67.1175919   7.8664699
  53.2764511  67.4322357   7.8602958  54.1040535  66.1720276   7.9941516
  64.7721634  64.6843567  66.5420456  65.6147614  64.7657166  66.9888535
  64.9568481  64.9308472  65.6357574  85.7274780  31.8793659  45.8171539
  85.2429733  31.1150417  46.1290779  86.3369827  31.5280571  45.1680641
  59.7181549  33.3018188  41.1708374  60.0673714  34.1360283  41.4844894
  59.0630112  33.5469246  40.5174294  58.4277344  51.1569214  54.7971306
  59.2489471  51.6348801  54.6813965  57.9018669  51.3959618  54.0338783
  85.2408371  16.0604038  21.1706009  84.6405716  16.8055840  21.1953888
  85.5510483  15.9726515  22.0718784  66.5583344   8.2302141  78.6815796
  66.7211151   7.2905531  78.5992966  67.4141998   8.6041069  78.8911896
  19.7068386  59.9240875  78.0103455  19.5081272  60.3256683  77.1644897
  20.5587349  60.2866364  78.2533798  71.6873093  29.9062557  18.9547520
  71.3492355  29.2827911  19.5975857  72.5298691  29.5400391  18.6860371
  83.9387894  14.9271908  14.9388361  84.4965439  15.2229567  14.2193499
  83.0700302  15.2664576  14.7234669   2.5485384  57.0796432  23.3170013
   1.7037307  57.2520866  23.7326870   2.6026444  57.7216606  22.6091022
  54.0428619  69.9667282  42.1349068  53.6333084  70.7985611  42.3726959
  53.3834038  69.3059692  42.3464279  70.9083633  59.7050896  84.3173981
  70.3667679  58.9643745  84.0449066  70.3087540  60.2765312  84.7971497
  14.4840221  71.0349274  54.1028557  15.1937895  70.8444290  54.7161827
  13.7309418  71.2291412  54.6608696  34.6019096  65.3690720  56.3447571
  33.8423805  64.7882919  56.2995415  35.2370491  64.8916473  56.8785095
   7.5174246  46.6293221  40.2652512   7.5798573  46.0490952  41.0239830
   8.3565378  46.5274048  39.8161049  39.5020714  10.8526239  60.3353119
  40.3252106  10.4093952  60.5408020  39.7433624  11.7740555  60.2405701
  45.2714767  14.9510136  70.1863708  45.4857025  14.8921900  69.2553101
  44.8826065  15.8197088  70.2882462  26.0229168  -0.2637341  28.5790596
  25.7223186   0.0008553  27.7096558  25.8142929   0.4819253  29.1418209
  18.1458912   0.5379735  16.6878700  17.4130821   0.8212721  16.1410923
  18.0617161   1.0559912  17.4883728  42.7879906   8.7932196  11.8249512
  43.6243515   9.2472239  11.9279642  43.0146637   7.9679351  11.3962822
  54.9525833  13.7805176  66.7099762  55.2622833  14.2861376  67.4614182
  54.0146828  13.6698151  66.8659210  70.7178116  24.6520805  81.7563248
  69.8708191  24.5736198  81.3173752  70.6678391  24.0340099  82.4855194
  69.0753326   7.8333259  52.0469856  69.9581223   7.4793949  51.9390488
  68.9944687   7.9926057  52.9873695  48.1036186  60.7668419  72.5770264
  48.7777176  60.5765877  73.2294235  47.5461349  59.9887466  72.5747299
  13.9355459  46.7957191  36.0191307  13.4488935  47.2940559  36.6756859
  13.5454350  47.0546379  35.1842613  38.9745941  67.0331192  28.8252544
  39.1688232  66.1107864  28.9920025  38.4246521  67.2991028  29.5621738
  83.4245453  36.0584030  40.7376556  83.4180908  35.7825089  39.8211021
  84.3204575  35.8929749  41.0312691  10.6096611   2.9996641  76.9597092
  10.3270721   2.8150353  77.8554153  11.4221773   3.4951823  77.0622330
  63.3845825  18.2856369  68.0332260  62.5078964  18.0384216  68.3273849
  63.2320366  18.9109993  67.3247833  64.2478027  38.5225029  41.8612175
  64.3856659  39.4218597  42.1585121  63.6654778  38.1398964  42.5175323
  76.5828094  26.1380424  50.6990356  76.1047821  26.2138481  51.5248528
  76.7041931  25.1962986  50.5781288  69.9597626  40.6707115   0.8865781
  70.6997681  40.9281960   1.4364100  70.1247864  41.0993462   0.0467760
  47.6996460  37.2803040  28.0978222  46.9923592  37.4537544  27.4766178
  47.9839554  38.1478844  28.3854103  40.7682533  36.8230019  76.9120789
  40.9293976  36.1326599  76.2688904  41.5410767  37.3852501  76.8586731
  33.9297905  12.7278061   5.4396963  34.6790581  12.3134756   5.0117297
  33.7703171  12.1909399   6.2159534  22.0812988  37.6470757   8.4397793
  22.7423801  38.0749893   8.9839220  22.1063690  38.1259880   7.6113787
   0.7569378   1.4352797   9.5600281   0.0874251   2.0762122   9.7991734
   1.5787675   1.8245693   9.8588276  54.8145256  38.9095726  42.1482239
  54.8695793  38.4784889  43.0010834  53.9412155  38.6890373  41.8243103
  72.4605865  15.3087807  30.8907127  72.5009003  15.6697426  31.7763271
  72.2295303  16.0553837  30.3380547   1.7975734  12.1952219  11.9172106
   0.9072492  12.4030294  11.6337128   1.7254134  11.3286505  12.3173084
  28.3036327  62.1577110  19.9001884  28.7272358  62.6866150  20.5762463
  28.4496841  61.2531891  20.1772022  69.2602921  12.0605431  39.9826088
  68.6743011  11.7271814  39.3031158  70.1382446  11.8420553  39.6700516
  85.1655579   7.5088458  61.1787720  85.4655609   8.1402025  60.5248451
  85.1685257   7.9970684  62.0020981  30.5236797  45.4226723  13.3096399
  30.4517937  45.9758873  12.5318136  31.2938633  44.8783455  13.1460609
  38.3674965  59.1954460  63.1036339  38.6099091  58.6627197  62.3462219
  38.3581314  58.5796852  63.8364220   1.1351762  65.7032928  62.7026100
   1.5366138  66.0646667  61.9123611   0.6058586  66.4203415  63.0517349
  45.2983284  41.2716370  58.2753334  45.7446899  41.7899704  57.6057625
  44.8050690  41.9136810  58.7859268  57.4392014  33.6277771  23.4069920
  57.6068077  33.9778290  24.2819786  57.5006180  32.6784477  23.5130043
  49.0061188  40.4594765  49.0441055  48.2289047  40.0310478  48.6854668
  49.2294617  39.9418640  49.8176842  79.9514618  34.4131012   3.7978387
  80.3579788  33.6831970   3.3307018  79.0185165  34.1993790   3.8106823
  82.5189819  16.5768795  66.4470825  83.1752777  16.5340023  67.1425476
  81.9529343  17.3073177  66.6966324  65.4488754   2.3134718  35.2234077
  65.2920685   2.8796611  34.4677162  65.0476990   2.7778876  35.9579887
  65.9480057  29.2203636   6.7684708  65.7728043  30.1530037   6.6430845
  65.9011688  29.0931377   7.7160215  57.2850113   0.5230638  30.8871193
  56.8536186  -0.0986518  31.4732952  58.0025101   0.8845533  31.4074535
  14.3063421   4.0139627   7.1531262  14.9303961   4.1966515   7.8555598
  14.7872934   3.4519436   6.5456300  55.3218727  31.4663639  33.3240891
  55.6254272  30.7333374  33.8595886  54.4203415  31.2393227  33.0962257
  69.2052841   0.9461501  33.4665718  69.6804962   0.8606743  32.6400719
  68.2885666   0.8021771  33.2317657  57.0084381  45.9419174  85.3509521
  56.7356033  45.0245552  85.3665085  57.6542244  45.9878082  84.6459045
  35.1239243  69.0386353  34.4872017  35.3612213  68.6406708  35.3247833
  34.4874649  68.4335861  34.1063232   6.5910592  50.2827454  27.0322075
   6.3805237  51.1927376  27.2415390   7.0470872  50.3296089  26.1919270
   6.5193181  30.6735420  35.2427330   6.2775512  31.0036449  36.1080704
   6.3733821  29.7291069  35.2972946  45.8712006  13.1317863  34.4883766
  45.9342880  13.9646044  34.0207596  45.7192268  12.4824610  33.8017082
   1.6440222  11.7037077   3.1468396   1.2697241  10.9594440   2.6754534
   1.1081147  11.7813416   3.9361482   4.9239340  52.1949577  71.5580673
   4.8425980  51.4416847  72.1430359   4.0942173  52.6626892  71.6530838
  61.5405731  62.1471939  14.6057825  62.3845978  62.1140518  15.0560637
  61.7165565  62.6376877  13.8028641  58.2486000  56.1622276  49.4903450
  58.4318771  56.8960304  50.0770111  59.0634804  55.6603432  49.4727364
  81.8844299  53.9371300  48.4722023  81.4804611  54.1670227  47.6354256
  82.5102158  54.6422539  48.6377983  86.2695847  31.1540165  83.8045731
  85.5853958  30.7466640  84.3357773  86.6698227  31.8014488  84.3849792
  13.1126566  26.1580219  17.3258896  13.6853113  26.7768478  16.8727283
  12.2753067  26.6159801  17.3990307   0.6051462  66.2118759  20.4850864
  -0.0024456  66.6073151  19.8600330   0.4457327  66.6813736  21.3038597
  13.3550959  37.0778923  56.9665833  12.7069597  36.4678040  57.3186340
  12.8445644  37.8427696  56.7009621   2.3093355  41.0999985   6.0997672
   2.5758486  40.3990021   5.5049510   1.8119895  41.7049599   5.5494041
  65.2822189   4.1948009  33.4093399  64.3821487   4.1711564  33.0844536
  65.6844940   4.9300966  32.9470139  65.6722946   0.8790813  22.9083519
  65.2007980   1.2034425  23.6756287  65.4896240   1.5237427  22.2247772
   6.2580409  69.3626404  78.4429474   6.3417912  69.1767426  79.3781738
   7.1577687  69.3579178  78.1162949  71.1394196   1.6542801  77.2526855
  71.8383179   2.3077288  77.2247620  71.2090225   1.1932783  76.4167023
   0.6226904  24.1122761  38.1500549   0.5706714  24.4590797  37.2594070
   1.5603952  24.0771523  38.3390198  82.4822159  13.4371243  25.3146076
  82.6016846  12.5824327  25.7286854  82.7225189  13.2953482  24.3989735
  13.4001732   3.9925961  77.7297668  13.6346703   4.7932839  78.1989594
  13.4101095   4.2444663  76.8063507  51.0952225  27.7540512  55.8683777
  50.6100655  28.4355679  55.4032021  51.2947083  27.1014862  55.1971169
   2.2407033  18.1742420  61.8016777   2.6960125  17.3424282  61.9320984
   1.3144456  17.9363842  61.7604218  41.2521553  58.1482620  21.1870384
  41.8217735  57.4654541  20.8327236  40.6218224  58.3210678  20.4877148
  71.4248886  69.5432816  13.5514250  71.3955612  70.0408478  14.3686132
  72.0880356  69.9882584  13.0237312   1.3472536  45.4202614  68.6148758
   0.7392810  44.8176994  69.0432663   2.2063947  45.1810913  68.9625931
  12.6323814  52.8190498   0.2574150  11.8999605  52.7484169   0.8696260
  12.2208891  52.8441734  -0.6064569  10.9416924  65.5300598  58.7970772
  10.6997185  64.6434326  59.0646133  10.1664848  66.0579453  58.9884415
  31.1058674  57.5701752  75.1893463  31.0746098  57.1199303  76.0334625
  30.9085293  56.8885956  74.5468903   3.1456399  67.3061295  85.7671738
   2.5496740  66.5746231  85.9282761   3.9323621  67.0887146  86.2672043
  21.6856422  42.7569466   4.4008617  22.6322956  42.6635513   4.5074339
  21.4391422  43.4331894   5.0318666  71.3401337  23.9975395  32.9134941
  71.7444077  23.7058716  32.0963478  70.7759705  23.2697296  33.1747208
   9.7115479  36.0787392  19.0539188   9.7480993  35.2768478  19.5753288
  10.6080236  36.2028122  18.7421989  81.5575638  38.5061760  32.5198441
  82.2879562  38.9290466  32.9714355  81.1171417  37.9975929  33.2007294
  63.6371956  40.0684204  32.1912880  64.1405487  39.2685051  32.0396004
  62.9966354  39.8251991  32.8596878  82.8965454   8.3231087   9.7853041
  82.3169250   7.6662097   9.3996134  83.7380295   8.1848831   9.3505411
  83.2923889  12.2391195  40.0958824  83.0355148  12.4814186  40.9855690
  82.7141876  11.5106049  39.8696594  12.2203999  14.7922268  80.0925293
  11.6959238  14.3091545  79.4539413  13.0954638  14.8274584  79.7061920
   2.2218568   3.8378167  51.3441925   2.8625059   3.9206479  52.0505486
   2.3363795   4.6322083  50.8225975  45.1517906  14.7449570  30.9718990
  46.0361061  14.3943615  30.8656101  45.2036209  15.2919950  31.7556686
  56.7738953   7.6265259  28.1166325  56.7399254   6.7447844  28.4875889
  57.3080139   8.1258526  28.7343884   0.4422024  35.4535103  73.2324600
  -0.0270618  36.1358032  72.7523575  -0.2139295  34.7734261  73.3848114
   8.7367010  42.8178596  78.7205429   8.9997520  43.7124863  78.5044785
   9.2961636  42.2652817  78.1747437  67.6728058  17.7467346  72.9753876
  67.0219040  17.8356113  73.6715698  67.2020111  17.3181362  72.2606277
  47.1811180  13.6787014  19.1950474  47.9919853  13.2286558  19.4320831
  46.5603714  12.9733849  19.0122032  61.0122910  33.4980774  13.8462896
  60.0960808  33.7750854  13.8538942  61.3839455  33.9209557  13.0721607
  78.2241058   9.9442806  68.3449173  77.7618713   9.6588802  69.1330338
  78.4855576   9.1311216  67.9128876  85.0370483   6.3443666  16.4325294
  85.3450012   7.1055980  15.9406729  85.5670547   6.3437958  17.2296009
  51.8135071  59.2662849  58.0029907  52.0623207  59.5246658  57.1155434
  51.0012360  59.7434692  58.1725197   4.0143342  12.5714989  28.7067852
   4.8004913  12.4908838  28.1667023   3.7781334  11.6692419  28.9221325
  74.5438538  40.6368179  26.1720219  75.1175613  39.9340668  25.8666821
  75.1012192  41.4149704  26.1791553  50.3617821  22.5171299  37.4936066
  49.9021759  23.3419685  37.6505737  51.2751160  22.7073402  37.7077904
  51.2989693   0.6099273  74.7757034  50.4750786   0.8498110  75.1998444
  51.7045097   1.4469541  74.5495300  61.7122536  25.8557758   7.3851776
  62.6676292  25.7977238   7.3960881  61.5169067  26.6754417   7.8392925
  56.1486702   1.1762414  80.2404327  55.7258377   1.1328272  79.3827820
  56.9643135   0.6875320  80.1303635  85.6608810  28.8123264  17.0674686
  85.8768082  28.7931061  17.9997997  86.0713806  29.6138554  16.7430191
  73.1057739  55.7977066  70.3435822  74.0606613  55.8629875  70.3561172
  72.8025742  56.6785088  70.5637741  58.8338470  35.5186844  87.6366730
  58.9601860  35.7878075  86.7268143  59.0652199  34.5899124  87.6460571
  83.9433289  23.3156319  52.2544060  83.9851837  23.7633591  53.0994034
  83.4477539  22.5160408  52.4313087  76.1325226  34.3983650   0.5243301
  75.7131195  34.4610863  -0.3338060  76.9689026  34.8510551   0.4158073
  28.6900654  55.2320251  80.7865982  29.2155952  55.5266724  81.5303955
  28.0910568  54.5844307  81.1581345  26.3336296  62.8946114  63.9350357
  25.6999588  63.5638161  63.6764679  25.7979107  62.1449928  64.1944809
  84.6590195  58.4725571  15.1950178  85.2096024  59.2208710  15.4254799
  83.8571014  58.6001129  15.7018661  29.7308483   0.4745976  64.1418228
  29.5358238   1.2397513  63.6007690  28.9671535  -0.0930585  64.0380554
  37.6902885  50.5903282   0.8684447  38.5471611  50.8704414   0.5466636
  37.7595100  50.6543655   1.8209885  23.5656757  66.2148209  55.1169701
  24.0605164  65.7801208  55.8115234  22.6577644  66.1917343  55.4192848
  43.0201569  58.9605484  81.5464020  42.5822945  58.3013802  82.0849152
  42.3061676  59.4749565  81.1697922  62.7188568  53.5213966  38.1982117
  63.6223755  53.7337608  38.4322701  62.1896973  53.9561043  38.8669815
  33.9823456  71.1577454   9.4762430  33.7268105  70.3264999   9.8761997
  34.9391060  71.1325378   9.4619398  29.9469624  64.0197144   5.2801719
  29.1219673  64.4945602   5.3808422  30.3039532  63.9691544   6.1668692
  58.8566895  21.1933994  12.1476812  58.6628799  22.1297417  12.1037302
  59.1182137  20.9608650  11.2567463  39.2202644  60.8033676   1.0029647
  38.8166580  61.3159561   0.3025461  38.4937859  60.5782509   1.5841588
  21.1832542  31.6886768  58.9995422  20.8939152  31.2468338  59.7978439
  22.1329765  31.7594299  59.0957336  46.8241348  17.9828606  35.6589394
  45.9917336  17.8068275  35.2203560  46.5783806  18.4312286  36.4681358
   0.7276387  59.3046837  65.6552429   1.5653965  58.9633675  65.3423615
   0.8491327  60.2538719  65.6778412  22.5807686  31.0870152   6.8374262
  21.9812374  31.0353947   7.5818248  22.8486366  30.1812344   6.6823735
   7.9721055  70.8363342  26.1589203   7.0668297  70.5254898  26.1496201
   8.1850805  70.9812164  25.2370300  26.5627422  27.2576733  85.1244888
  27.1560707  26.6094799  84.7449646  26.6140938  28.0063095  84.5302353
  61.8716545  67.9180374  52.0083923  61.8093681  68.5929489  52.6842995
  62.5553818  68.2333603  51.4173584  54.5948410  71.0779266   9.1864614
  53.7939682  71.4976501   9.5005751  54.6501160  71.3275070   8.2640285
  49.3726311  31.6216602  18.3635540  49.9376640  30.8493004  18.3842697
  48.5150681  31.2841892  18.1048450  66.0164871  31.9607964  61.1981773
  65.4885101  31.9134464  60.4011650  65.3788147  32.0874023  61.9007301
  50.7698059  66.3909988  69.9738693  50.6284866  65.5224228  70.3504868
  51.7206306  66.5012741  69.9762268  23.3054733  20.6278763  71.9409027
  23.5540009  20.7836056  71.0297394  23.7999268  21.2790108  72.4386673
  25.8401527  70.4547195  56.7955589  26.4921665  70.1748123  57.4380226
  25.1870651  69.7549286  56.7966232  84.0880051  61.2520866  72.1995850
  84.6367264  61.8539658  71.6967163  84.0937500  60.4411201  71.6911240
  57.3492203  33.6843529   6.7795515  58.1616631  34.1206017   6.5229225
  57.5801239  33.1923103   7.5674663  74.2613831  59.2646217  58.2385368
  74.4496307  60.0511780  58.7505188  73.3085861  59.2607994  58.1469460
  50.3565636  11.9254332  31.6564426  49.8873634  12.4172354  32.3303947
  49.7342644  11.2563686  31.3712635   0.0279247  25.7085075   5.9117026
   0.7918648  26.2543926   6.0978117   0.3948988  24.8813686   5.5996089
  42.0311394  53.2367859  50.8647919  41.6518631  52.9639816  50.0293503
  42.9664612  53.3302727  50.6840630  27.2675934  27.4775162  78.3087234
  26.4123001  27.0594349  78.2091522  27.1602764  28.3406200  77.9090195
  76.2778168  43.6152573  76.7254486  75.5695877  42.9744568  76.6620255
  75.8319092  44.4546509  76.8386536  67.5744705  29.3413734  18.7392788
  68.2473068  28.9347763  18.1932030  67.0050659  28.6164894  18.9972649
   7.8704410  63.0368690  52.3219261   7.3504362  62.5160484  51.7098999
   7.2941251  63.7592430  52.5714569  43.9815331  51.0223122  30.5716095
  44.4579582  51.2151947  31.3791046  44.6263161  51.1523552  29.8762112
  82.7781830  71.4646149  53.4250336  83.6436386  71.1127853  53.6334534
  82.2652435  70.6997910  53.1639252  67.1240082  37.9897575  30.1962414
  67.2346191  37.1946983  30.7176552  67.9578857  38.4515228  30.2837658
  59.7966499  22.3970222  50.5149193  59.2191200  22.9272480  51.0640564
  59.4689941  21.5033188  50.6157532  47.1499100  19.1842213  60.9945908
  46.6418419  19.8988361  61.3785477  47.7567291  18.9227314  61.6871414
  38.4775047  62.4666824   8.8567791  39.3597565  62.1007118   8.9194794
  38.6030884  63.4113197   8.9468603  84.3231506  36.8497963  19.2792416
  84.2719803  35.9128113  19.4681091  85.1255722  36.9473076  18.7665539
  85.5417480  54.9765015  22.7345142  84.9281845  54.2809792  22.4978447
  85.4442291  55.6283493  22.0403862  86.0504227  66.0413361  74.1254349
  85.8140182  65.2736435  73.6048660  85.3970337  66.0671692  74.8244705
  54.3383484  44.9699516  65.9278107  54.8653412  45.7476692  66.1112900
  53.4781532  45.1710930  66.2963715  73.4918900  71.3950577  11.8787279
  73.6886368  71.6956558  12.7659502  74.3421326  71.1466446  11.5159435
  59.9479179  30.9791355  12.0559864  59.1585693  30.9412022  12.5961018
  59.8834076  31.8160954  11.5960226  10.2373867  43.7296219  32.7936516
  10.4576693  43.4888611  33.6935081   9.4812365  44.3102493  32.8793297
  30.9938755  53.1675491  79.9925613  30.6495018  52.8633118  80.8322525
  31.2331696  54.0811119  80.1486816  11.5389881   6.1379361  72.7390747
  11.8943014   6.7003999  72.0508728  10.7237816   6.5657930  73.0010071
  42.8102646  12.6377010  79.2103882  42.0131950  13.1666746  79.1772461
  43.3458023  12.9660063  78.4881363  44.1904144  39.0376587  44.1205978
  45.0179825  38.6098404  44.3404541  44.3903694  39.9733963  44.1460152
  62.0778656  10.1699657  50.5101128  62.0635262  10.6831408  51.3179970
  62.2372971   9.2716808  50.7997589  65.4613876  48.9141006  29.2497063
  65.0670013  49.2577515  30.0513248  64.7156830  48.6857719  28.6947117
  81.8208618  23.3204536   4.8010817  81.2235031  22.9115486   5.4273324
  81.7904282  22.7496738   4.0332832  35.6863060  57.5161285  67.1184998
  36.1503792  57.5087738  67.9556503  36.3772888  57.4366035  66.4608917
  34.8378868  39.6020584  74.9647064  35.5467186  40.0408211  74.4943085
  35.2830505  39.0044098  75.5654373   8.3915710  70.7755661  56.1010513
   8.1557961  71.6157455  55.7076950   8.2444248  70.9003448  57.0386047
  36.1093597  54.2539673  66.5512772  36.3388062  54.0957184  67.4669952
  36.9270706  54.5424728  66.1458817  33.2156029  45.9690132  49.5407257
  33.5705338  45.5319672  50.3148384  33.4742126  45.4082222  48.8093834
  43.4007454  23.9005108  64.8483582  43.1352501  24.0906334  63.9485855
  43.7920227  24.7165546  65.1601334   3.2734671   7.0687375  73.9231567
   4.0995827   6.6481051  73.6847610   3.2315881   6.9913206  74.8763046
   3.5270672  54.8280258  72.8867264   3.0900357  54.2132187  72.2974548
   3.6743050  54.3272362  73.6890793  86.3155212  17.2046852  61.3585548
  85.7109680  16.4887848  61.5541077  86.3169250  17.2627563  60.4031181
  68.2506332  33.6575966  42.6034088  67.9939270  34.5305786  42.3063660
  67.4220734  33.2026520  42.7542191  52.1108780  24.7068958  12.9220524
  52.7583351  25.2924709  13.3146486  52.1815643  24.8680363  11.9811659
  85.1797409  44.2426300  57.8351936  86.0658112  44.0463333  57.5309334
  84.9407425  43.4910202  58.3775902  31.4249039  53.8820724  84.2179413
  31.5063477  53.0764122  84.7283478  30.5197334  53.8779411  83.9066849
  47.8171768  41.2741280  31.7021866  47.1306839  41.9349632  31.6113091
  47.4104042  40.4628067  31.3980026  48.7327118  57.5755157  37.6910400
  48.2918167  57.1191406  38.4076729  48.8373032  56.9096298  37.0114174
  64.8221893  40.7772026  35.2446136  63.9982567  41.1614647  34.9450951
  64.5665588  40.1813316  35.9487648  30.9289303  60.0682220  22.8958530
  30.0487270  60.2417259  22.5621281  30.8222866  59.3095436  23.4696693
  76.1543732  38.8028641  18.2121048  76.1539764  38.1542511  17.5081635
  75.9584732  38.2990875  19.0020790  30.5293179  42.2777023  44.4032021
  30.3804607  43.1446877  44.0258293  29.6710434  41.8546982  44.3774490
  36.0887756  39.0347214  84.3715057  36.8634491  38.5405464  84.1033478
  36.3992348  39.6026535  85.0767059  33.0970917  59.9166794  88.2429657
  33.0910568  60.7729874  88.6706696  32.2569199  59.8709641  87.7866211
  59.1320915  58.3005943  51.3319244  59.2154121  59.0963631  51.8573189
  59.2138023  57.5865402  51.9641304   2.8382666  28.7919025  53.6469383
   2.6007924  28.7452259  54.5730362   2.3632157  28.0667896  53.2410202
  57.7990799  53.5059700  68.6432343  57.7695999  52.6678810  69.1047211
  58.2910156  53.3216209  67.8430786   3.6385427  42.2066498   8.2761097
   3.4628415  41.7372360   7.4606266   4.0498672  41.5548935   8.8437891
   7.3224282  22.8870735  76.3094254   8.1924725  22.8106155  76.7010956
   6.9926414  23.7298565  76.6211777  21.4215374  67.7492447  85.2037735
  21.2826633  66.8461914  85.4891510  22.3404884  67.9255371  85.4054718
  37.7664642  30.6054935   0.6775759  38.3373108  31.1750774   1.1932679
  38.3387642  30.2404060   0.0027333  64.2049408  19.1981411  16.2554493
  64.5207138  18.3078842  16.1006603  64.2589874  19.6236210  15.3997183
  62.7505302  51.5291710  81.1505890  62.1571312  50.8570290  80.8154221
  62.9133873  52.1006660  80.4001846  75.1457214  18.3191357  66.7983170
  75.2767258  17.3932667  66.5937805  74.3236160  18.3422394  67.2880478
   6.0571117  36.9696960  42.0533257   5.2087097  37.2473640  42.3987923
   6.6942258  37.5116310  42.5187569  14.2123108  50.4109383  39.0070305
  14.4266825  51.1607895  38.4520493  13.6567678  50.7743835  39.6966019
  47.8632507  34.7358780  73.2513809  47.1191330  34.1440201  73.1408157
  47.5115852  35.6030235  73.0498352   1.1686407  11.9709158  80.0963974
   1.4211639  11.2695169  80.6968155   0.4226997  12.3935738  80.5220261
  26.1364994  54.7587929  69.9109421  26.9900761  54.3445740  70.0376740
  25.5241165  54.0270653  69.8348465  18.9424706  62.3042526  49.7621841
  19.8956890  62.2449760  49.6982193  18.6982937  62.9552689  49.1043167
  59.3272972  60.6664848   5.0773387  59.2512932  61.2417221   5.8386245
  58.7847328  61.0826836   4.4075365  44.5627670  62.7898369  87.4104233
  44.0780144  62.7744598  86.5851898  44.4642448  63.6869316  87.7294006
  53.5340996  13.7487106  30.9512310  53.3179436  12.8316622  30.7823181
  54.2747116  13.9306879  30.3727779  74.7694702  39.4730759  68.1250000
  74.6304398  40.2876015  68.6081619  75.6374283  39.1770439  68.3993149
  67.4146042  51.8784523  73.9696045  66.5034561  51.6278725  73.8170853
  67.5197601  52.7014961  73.4923477  58.7311440  40.9957809  56.1506004
  59.5178299  41.1179848  55.6191635  58.1165886  40.5478783  55.5692787
  43.1819038  30.1438465  16.4099712  43.2271118  30.6088257  17.2454243
  43.9868927  30.3906345  15.9546432  70.3836288   6.7851405  19.4157734
  70.3308945   6.3977437  20.2894859  69.6170959   7.3557258  19.3601036
  46.9461441  45.4595222   7.7286325  47.5061073  45.0270882   8.3733606
  46.0549889  45.2356110   7.9968529  81.3991623  37.7796097  67.0934753
  81.4781494  36.8542633  67.3252716  81.7016525  38.2480698  67.8714676
  18.7547703  51.6064491   5.2307296  18.0964775  51.4141769   4.5629635
  19.5876255  51.3748398   4.8197026  21.7609138  32.0648689  30.7642956
  21.5620632  33.0003700  30.7251854  20.9230385  31.6345768  30.5938759
  55.6194000  68.5853424  82.8053360  54.7773743  68.5294571  83.2571106
  56.2708282  68.5010605  83.5015945  37.4074593   8.4248438   6.7942929
  38.0326157   8.3054571   6.0793405  37.8977013   8.9016829   7.4640055
  73.2443008  33.0316010  16.9103317  72.5634613  32.5753555  16.4158363
  72.8772812  33.8994980  17.0785141  27.8364162  29.7756138  13.8916388
  27.8536110  29.2424717  14.6864309  27.3034725  30.5358162  14.1246557
  58.0656967   9.9659967   7.2294569  58.6450958   9.3259020   7.6427441
  58.5807877  10.3233938   6.5061440  14.1122856  60.3715820  79.3128662
  13.5505648  60.1484489  80.0550995  15.0012121  60.2061691  79.6269913
  44.3882103  38.7738419  28.3821144  44.5856857  38.2661858  27.5950184
  44.0837326  38.1243477  29.0159016  19.8412647  60.7238045  82.2662277
  20.4900322  60.1524849  81.8552246  20.2882786  61.0804977  83.0338135
   6.1357231  67.0872345  40.3480072   6.2554016  66.1377029  40.3309631
   5.2533464  67.2111893  40.6976891  72.3217621  59.5980835  32.8073425
  72.5906677  59.7397995  31.8996868  72.2468033  58.6473465  32.8892746
  28.8259182  61.8296547  13.5135937  28.2647591  61.2341232  14.0102568
  28.3418560  62.6552238  13.4949818  52.7316589  59.8237305  27.1615810
  52.5878067  60.7597351  27.3009815  51.8702965  59.4270401  27.2916756
  43.3223228  58.1999931  18.2437916  43.1279678  57.7118874  19.0439243
  43.5041580  57.5251503  17.5897598  63.4163170  46.7451057  42.2884789
  63.7536583  46.1926651  41.5833244  63.2082443  46.1325493  42.9939613
  21.0014782  33.6322212   9.3072605  21.9035568  33.5637360   8.9945354
  20.7137890  32.7249870   9.4091816  85.2659683  25.9773159   9.7397614
  84.6382370  26.2636414   9.0762835  85.5579224  26.7870312  10.1585169
  33.4118462  52.4499931  11.8008728  33.0300751  51.5723076  11.7887030
  32.7409248  53.0084839  11.4082088  68.0751572  17.3155556  50.2658806
  68.1959610  17.0315742  51.1719666  68.6807480  16.7720718  49.7617798
  77.0606842  55.6152840  27.5377388  76.2065811  55.2442741  27.3161774
  77.0067291  56.5275269  27.2529030  54.2363892  57.2119141  34.1599655
  53.6397171  56.6148529  34.6113281  53.7417107  58.0271149  34.0764389
  71.9666290  50.1934853  60.2123795  71.0458069  50.1322479  59.9582748
  72.4428406  49.7917366  59.4857101  14.4148264  48.2940865  64.8480530
  14.3866482  48.2810593  65.8047562  15.1714268  47.7525291  64.6233292
  72.8514404  19.8546848  73.5979691  73.7319107  20.1125565  73.3250122
  72.4289474  19.5558167  72.7927322  62.7992439  66.0839539  14.1559448
  63.6360855  66.4701004  14.4144325  62.5032997  66.6227417  13.4222193
  69.7983627  70.6721573  81.2785797  69.2371063  71.3444290  81.6649323
  70.2498550  71.1194229  80.5627975  30.1891174  15.7127123  26.2412281
  30.5459404  14.8317623  26.1279316  29.9371929  15.7522602  27.1638355
  77.3237076   9.8466110  61.5928192  76.7009888  10.0248051  62.2975922
  77.1529083  10.5293150  60.9439926  37.7799606  36.9267921  62.2711983
  38.1338463  36.0736732  62.5225639  36.8385506  36.8508682  62.4268188
  31.9510746  39.9377594  82.2522125  31.5691490  40.1460915  83.1048355
  31.9994831  40.7796402  81.7993011  58.5111771  70.2295990  38.6464920
  57.9819145  69.4357147  38.5698814  58.8346405  70.3883133  37.7596931
  54.6426125   7.9914327  44.6542168  53.7197380   7.8133974  44.4730034
  54.8130608   7.5491471  45.4858208  29.3587418  21.1884460  82.9457474
  28.4187927  21.1998806  82.7651978  29.6937714  21.9783154  82.5213776
  21.7924404  26.3721828  66.1113281  22.1008186  27.2644978  65.9534988
  20.9075203  26.3565960  65.7467728  65.5365295  48.5050659  24.8562145
  65.5700531  47.7714539  25.4701500  64.8951569  48.2374344  24.1980000
  49.4431000  30.4161415  81.6029968  49.5431252  30.4139004  82.5549545
  50.1468773  29.8495731  81.2868805  55.8132629  65.8859711  33.5575409
  56.7048264  65.6311111  33.3200684  55.3222084  65.0643387  33.5611420
  51.4523354  17.4173870   3.3766513  51.7575302  18.2537422   3.0250816
  50.6844559  17.2011127   2.8476715  24.1579971  52.5438690  51.9455109
  25.0008259  52.9894218  51.8597641  23.6921978  53.0399933  52.6186562
   4.3868017  53.6047020  41.9488411   4.1527071  52.8681602  42.5135880
   3.5566525  54.0502853  41.7799110  61.6812553  39.1850166  11.6100130
  61.0960579  38.5920410  12.0813456  61.4386406  40.0575142  11.9200516
  22.0869694  36.1632271  21.5006409  21.5524807  36.3220940  20.7226219
  22.6258488  36.9497414  21.5857124  49.5395317  67.3700409  67.5441818
  50.0006218  66.7630310  68.1231155  49.5810699  66.9567871  66.6817856
  18.7868996  61.3190880   9.1051769  18.6843262  61.8576813   8.3205576
  19.6763229  61.5030403   9.4073687  49.2316513  31.3955917  55.6981926
  48.9449234  31.8907738  54.9308510  50.0947914  31.0591412  55.4573212
  18.1291409  37.5830612  61.0923996  17.1976814  37.5646591  60.8726807
  18.5632954  37.2067184  60.3268242  68.8596497  12.7493601  56.5069618
  69.2296295  12.0387650  55.9831276  69.5880737  13.3570652  56.6347313
  14.4332056   3.5700033  24.9902420  13.6543903   3.0924752  25.2759800
  14.0967979   4.4066629  24.6692085  17.7851963  62.7985115  16.4752941
  17.1555748  63.2115860  15.8843813  17.7485962  61.8684196  16.2520943
  50.8610420  48.3943748   0.0655246  51.1462860  47.7119942  -0.5421140
  51.1268425  48.0739403   0.9274439   2.3242621  64.0665359   1.7352920
   2.5969796  63.1695328   1.9282595   2.3834674  64.5209122   2.5756910
  46.6591721  48.8198662  81.6666565  46.4965630  49.7173576  81.9570084
  47.5347366  48.8478699  81.2808609   2.7795813  62.0147057  25.5093880
   2.6867425  61.3774490  26.2175655   2.6843009  61.4986954  24.7088318
  56.3433266  28.6197510  53.5544281  55.3994904  28.5018120  53.6616402
  56.5562973  28.1345882  52.7572479   8.5678978  60.8584518  50.0010910
   7.7281418  60.4658699  50.2396774   8.7975254  60.4453735  49.1687050
  48.5021591  56.3281212  60.8175049  48.2501869  55.4049873  60.8412666
  48.9456177  56.4769249  61.6526299  20.1999950  14.8815775  75.1697388
  21.0020752  15.3814402  75.0179596  20.4864941  14.1130533  75.6632156
  77.7739410  50.3358040   8.2673731  78.0378113  51.2184906   8.0076246
  77.6025696  49.8841324   7.4410219  14.4242134  68.5691223  55.8922615
  14.2228642  68.1927338  56.7490158  13.6850948  68.3153839  55.3394928
  77.3290405   3.3233030  76.1101608  77.6293945   4.1677723  75.7741699
  77.5301132   3.3524680  77.0455475  79.3272552  66.0483398  10.4682817
  78.4852982  65.6661453  10.2207565  79.2101593  66.3157578  11.3798780
  44.2710686  57.8398819  42.9392509  43.8202782  57.1550331  43.4332199
  45.1626282  57.8390541  43.2876053  27.4408951  44.4883041   2.2144556
  26.9411831  44.2596893   1.4307107  27.4202232  43.6960564   2.7512498
  80.1150131  31.9790745  10.6177826  80.3852921  32.8492737  10.9109259
  79.4834366  32.1473579   9.9184818  38.6644402  14.5860920  66.4901733
  39.3736343  15.2214518  66.3922119  38.2777443  14.5222492  65.6168900
  37.7395401  54.3703423  69.1865921  38.5620193  54.8577080  69.2339096
  38.0078163  53.4562416  69.0934067   2.4444356  34.2595177  28.9009094
   2.3911643  33.3069534  28.9784889   1.5332094  34.5461884  28.8399353
  47.1345024  45.3891716   4.9622836  46.9208145  45.2184181   5.8795695
  47.9682045  44.9399872   4.8229513  71.2766495  30.2941189   8.9224100
  71.3846054  30.1121178   9.8559256  70.4596634  29.8551006   8.6857100
  37.1826782  26.4027042   0.6313329  36.6799927  26.4793167  -0.1796356
  36.6051369  25.9252605   1.2269218  35.4803581  14.1240873  87.4577408
  35.7318993  15.0445709  87.5330276  36.1885948  13.7226601  86.9542618
  75.8040314  41.5899811  36.6930580  75.7741776  42.0159874  37.5497131
  75.6920547  40.6588440  36.8845749  43.9347382  30.3533897  65.6302872
  44.1308289  31.2613983  65.8611603  44.1528816  29.8537464  66.4170532
  81.3850250  60.1710815   0.6125404  80.5893631  59.8256493   0.2077790
  82.0947876  59.8550301   0.0534548  78.2548141  16.1080208  49.2470436
  78.9278183  16.4235401  48.6439323  77.6445923  16.8408489  49.3296089
  20.8116417  50.4345398  15.6640635  20.9918079  51.3315735  15.3828115
  20.5955982  49.9690208  14.8560724  66.1631165  62.9915810  69.2697906
  66.8826065  63.1156044  69.8888168  65.3735580  63.1649857  69.7823944
   6.3350654   4.0243473  57.7849350   5.4412050   3.7333546  57.9654045
   6.3807573   4.9040785  58.1593895  32.4204445  36.1474838   3.4607649
  32.5249062  35.8690567   2.5509319  31.5203094  35.9090042   3.6823792
  84.8343201  51.7948799  56.7957687  84.3540421  51.8099861  57.6236191
  84.1539230  51.7346382  56.1251984  10.4293594  26.8803806  79.9949570
   9.7207870  27.2259388  80.5378647  11.2282867  27.1081161  80.4704361
  76.5718231  68.0079498  65.7787476  75.6382217  68.0952225  65.5863800
  76.6941071  68.4908295  66.5961227  25.1594391  70.1233597  83.7448654
  25.7196598  69.5695953  83.2010498  25.3348160  71.0137482  83.4404297
   7.7617860  47.6065941   0.3997508   8.0877333  46.7447853   0.6591177
   6.8092418  47.5280571   0.4519291  22.3201694  33.2983475  55.5422325
  23.0868397  33.5325394  56.0653038  21.5741272  33.5011978  56.1065941
  55.6029434  26.6196232   4.9073291  55.6952324  25.6844807   4.7250571
  54.6818161  26.7277203   5.1441240  23.0413837  20.1911583  11.8294182
  22.5950851  20.8889751  12.3091087  23.8626537  20.0617943  12.3037729
  41.1569939  68.0748444  82.0592117  40.4491577  67.5360718  81.7057724
  40.7226944  68.6702194  82.6700668  83.7711487  13.2842102  54.0935707
  83.6448212  14.1124744  54.5564423  82.9801865  13.1826439  53.5641403
   5.0607667  36.2747269  35.7094040   4.7630591  35.7202911  34.9881516
   4.3105483  36.8359184  35.9055367  53.2167397   1.4818455  25.4927444
  52.6054001   1.1159527  24.8535137  52.7390404   2.2088475  25.8921223
  83.9240189  31.2756481  10.4304380  82.9825974  31.4273834  10.5136795
  84.3079605  32.1524162  10.4202356  16.4452915  66.5438995  16.4429283
  16.2321320  66.0722733  15.6377192  17.3860512  66.4093704  16.5574017
  60.1285248  46.9128571  45.4592361  60.0070381  46.4986916  44.6048737
  60.8593712  47.5174561  45.3305664  16.6998959  64.2712250  70.6788483
  17.0034866  63.3723984  70.8060379  16.4258270  64.5570374  71.5503082
  83.2768402  65.7370148  85.8525391  84.2218628  65.8208084  85.9795609
  82.9861908  66.6207123  85.6270676  39.5168266  68.8317490   5.3126402
  40.2584915  68.8635635   4.7083659  39.8765297  69.1270752   6.1490769
  15.4106388  37.5369225  25.7928982  15.1524286  38.2306786  26.3997402
  15.0415440  36.7386246  26.1706905  84.1695175  46.9478874   2.9459863
  84.6977615  47.2265091   3.6940241  83.3094482  46.7544022   3.3189240
  14.0392103   4.7770882  87.9396896  14.8005829   4.3578515  88.3406677
  13.6607256   4.1000781  87.3787689  42.7654953  66.0290833  67.8009949
  42.7248116  66.8224564  68.3349762  43.5527306  66.1393738  67.2677689
  69.6437225  47.5698929  37.8512306  69.6012497  46.7918777  37.2952423
  70.5695190  47.6499443  38.0808372  19.4948387  54.7290497  24.7238388
  19.7805061  54.0659294  25.3522491  18.6524315  54.4074783  24.4026318
  19.9273777  22.9000416  80.7159576  19.9680519  21.9493065  80.6126022
  19.0048180  23.1164188  80.5806885  73.8101730  29.9970570  35.2469292
  73.7878647  30.9017544  34.9350662  73.4758606  30.0441570  36.1426125
  83.9988480  61.4363861  85.4203262  83.5777130  62.2101974  85.7946167
  83.2945023  60.9788589  84.9612045  32.7227135  29.9525890  57.1328201
  31.9682770  30.3384838  57.5779533  32.6134644  30.2030888  56.2154617
  67.3219452  40.5870667  52.3613892  67.6522446  41.4663582  52.1770439
  67.7181244  40.0359993  51.6864128  10.8410196  32.3386803  76.5714264
  11.2272730  33.1067963  76.1506729  11.2741957  32.2891693  77.4235687
  85.3019028  11.7424097  55.8413925  85.6625214  12.4074745  56.4278030
  84.7721329  12.2365656  55.2157822  74.0299377  23.7158146  57.9587708
  74.6719666  23.0416012  58.1811867  73.1905060  23.2558441  57.9567871
  59.2044182  67.6883850  51.4826813  60.0737839  67.4082718  51.7689781
  58.9927902  68.4297867  52.0499268  19.8830242  18.9411774   8.4257154
  20.7148552  19.3467007   8.6703358  20.0236435  18.6259365   7.5329223
  78.7213364  62.0500755   5.8161592  79.0732422  61.9618340   6.7019420
  78.6708832  62.9949341   5.6715069  81.3758774  15.1037817  45.5033417
  82.0487061  14.4965334  45.8112030  80.9035568  14.6159525  44.8286781
  63.3859978   5.5165668  13.7961531  63.7957878   4.6889215  14.0477638
  62.7517319   5.2743974  13.1213989  82.5216599  65.6635590  45.8454514
  82.6476669  66.2283325  45.0829697  82.8097305  64.7987823  45.5531921
   1.3070331  12.9813223  40.0324059   1.6089668  12.1846056  39.5961609
   0.3846599  13.0538673  39.7870560  69.0876389  53.5862122  79.5636368
  69.9753571  53.6375160  79.2092896  68.6842880  52.8558922  79.0944138
  44.5720139  42.3629837  33.5331993  43.6633949  42.2518997  33.8130226
  44.5297127  42.3640022  32.5769348   3.2075713   9.0922718  82.5689926
   3.5005801   9.9374590  82.9096298   3.0166488   9.2592039  81.6459961
  13.3627281  51.8652306  28.4198055  12.8762283  52.6019554  28.7896500
  13.1960125  51.9164276  27.4786282  78.4131775  16.6347523  44.7236786
  77.9353943  17.1360569  45.3844719  79.2514725  16.4302406  45.1380043
  60.7250748  49.2026558  11.9986792  60.9876900  49.9975967  12.4627228
  60.6485138  49.4735909  11.0838223  23.2931747  14.8181696  77.8447037
  24.0215721  15.4241743  77.9804459  23.1097660  14.4652805  78.7153702
  83.5541229  23.2388382  16.9479771  83.7023849  23.1865749  17.8921795
  84.1977463  23.8766117  16.6394024  62.1712151  26.2286873  57.1971283
  62.4849777  25.9761200  56.3288002  61.8214912  25.4195023  57.5701485
  28.3322010  70.0005112  41.3172112  28.2861443  70.9564133  41.2982635
  28.4552288  69.7849274  42.2416649  39.0440140   0.8505694  82.3962097
  39.9069824   1.0157243  82.7760010  39.0295944   1.3765481  81.5966034
  55.7858200  34.8332787  64.5311508  54.8999367  35.0579033  64.2465744
  55.8438034  35.1727638  65.4242401  49.5480766  61.3191414  18.8542862
  49.3588371  61.0595512  17.9526043  50.4473000  61.6459732  18.8257275
   0.3386865  57.2522011  88.7937546   0.8877319  56.4711952  88.7243881
   0.1251201  57.4760666  87.8879395  84.6715393  29.8977375  71.0454788
  85.5226212  30.3100357  71.1934891  84.8600464  29.1614418  70.4636154
  69.6491394  65.0603790  50.7031898  69.2266846  65.9152374  50.7868271
  69.4740219  64.6240768  51.5369759  53.9304276  47.5216026  29.4422493
  54.7691498  47.9779778  29.3751812  53.9272308  46.9161720  28.7008495
   5.7885966  35.3945389   8.1664610   5.2643876  35.0808525   8.9033709
   6.6398873  35.6046638   8.5503683  14.1284771  49.0800209  19.1440601
  13.1848612  48.9939117  19.2797318  14.2093039  49.6381416  18.3706264
  52.1073837   1.2106409  10.1362572  52.5237846   1.2335955  10.9978352
  51.4367981   1.8925203  10.1760893  10.9886189  58.2669678  47.3537025
  11.0378094  58.7313271  46.5181274  10.1138105  58.4661484  47.6872711
  54.4569664  64.3761826  19.9263420  55.3438835  64.1376801  19.6566677
  54.5167618  65.3044357  20.1521931  79.2502289  69.7785034  29.5522671
  78.8617020  69.1944275  28.9010162  79.6554413  70.4760208  29.0369854
  20.0560207  63.5795135  56.7948761  20.6217098  63.8628578  57.5131645
  19.1791420  63.8618088  57.0549278  39.5092697  48.2883110   4.0502310
  38.9065590  47.5810051   4.2797823  38.9434814  49.0453835   3.8986964
  16.9427109  38.8057632  24.0669041  16.6177521  39.7028160  23.9898872
  16.3680229  38.3976097  24.7144966  59.9699669  52.5512085  71.7140121
  59.2674904  52.1473465  71.2044525  59.7085686  53.4682350  71.7974777
  25.6695499  11.2473440   9.7083778  24.7555828  11.4171124   9.9365749
  26.1736164  11.7341681  10.3604145  62.4763069   1.0655845  47.8085861
  61.9506111   0.8067153  47.0517082  62.0493622   1.8566531  48.1374626
  50.4310226  44.4733353  65.6271286  49.4793625  44.4352226  65.7226410
  50.5721626  44.6210251  64.6919861  62.8395462  43.7587738  16.9266777
  61.9275856  43.6981392  16.6422825  63.3322411  43.9114647  16.1203480
  55.3143730  16.3205910  76.3866653  54.6314774  16.7556019  76.8972015
  55.9545555  16.0340672  77.0380478  58.7666969  70.7860641   8.9064207
  58.9530296  69.9584045   8.4631519  58.4443970  71.3618698   8.2130184
  68.5883102  52.4725075   6.4779272  68.0859299  52.2005920   5.7098732
  68.4422684  51.7763176   7.1184182  68.6162186  54.7027359  63.5760040
  69.4439545  54.4405212  63.1731033  68.8456497  54.9090729  64.4821014
  23.7230453  28.4641705   2.7867548  24.3589706  28.1314640   3.4201081
  23.3345947  29.2267895   3.2154152   3.0113854  55.2924004   9.0209064
   3.2764521  55.3057442   8.1012363   3.2397625  56.1622696   9.3486347
  68.8024139   9.7694244  37.2010269  69.5838547   9.8154993  36.6501579
  68.4447098  10.6571140  37.1840286  70.5733948  61.0788841  35.6666870
  69.6436310  60.9276695  35.4966927  70.7290192  60.6771965  36.5214767
  83.9740524  68.4599304  22.4375324  83.3882980  68.1688461  21.7386856
  83.6074600  69.2962952  22.7244873  43.5390663  15.6169806  73.9944992
  43.1231079  15.7966299  73.1513290  43.8769150  14.7254038  73.9097748
  74.1799622  30.4640961   2.6350536  74.9531937  30.9882851   2.4263027
  73.5912552  31.0728264   3.0812671  32.5741043  62.1233635   1.3658887
  32.2894440  62.9685555   1.7135255  32.2457199  61.4822388   1.9962491
   1.1773560  14.4702606  45.2917824   0.5615156  13.7377205  45.3106956
   0.6472842  15.2346802  45.5174332   5.2003884   3.5902152  10.5083647
   4.8684740   4.1860342  11.1799774   6.1526752   3.6585772  10.5769844
  20.9677048  41.9778824  38.9187241  20.0395031  42.1636658  38.7767487
  21.1647263  42.3761215  39.7665558  34.2307472  16.0862484   4.8935151
  33.5510445  15.5412626   4.4969993  34.9348297  15.4737844   5.1065607
  22.8901730   5.7672353  81.4312210  22.4507790   5.7209620  80.5820923
  22.6318607   6.6168208  81.7885895  18.5810738  14.5650263   8.7546577
  19.0254555  14.3280144   9.5686493  19.1078930  14.1580038   8.0668888
   7.7422605   6.0471649  35.5137558   7.0693336   6.6535325  35.2043686
   7.4966927   5.8586993  36.4195213   8.5187044  60.5095711  86.9312973
   9.1539259  60.0760841  86.3613739   8.7856379  60.2647209  87.8173141
  68.1411896   2.1231735  53.0012245  67.8979874   2.2259243  52.0811539
  69.0982895   2.1100461  52.9959488  24.2135506   9.5092154  44.9966202
  24.2951469   9.5638342  44.0444717  24.2273808   8.5707884  45.1847572
  12.2602520   5.0807657  24.5720482  12.2855053   5.9367380  24.1443729
  11.7572384   4.5286593  23.9733925  40.7667236  12.1001139   0.4542713
  40.0473557  12.7280445   0.5209364  41.4462280  12.4524384   1.0290542
  14.0902119  58.3308983  45.2047424  13.3774939  58.9359779  44.9994621
  14.0248404  58.1957283  46.1500931  35.7258530  51.4889107  60.7176399
  35.9702530  50.8046761  61.3407974  34.7756882  51.4085808  60.6341858
  74.6910248  19.6454105  58.9337616  74.0720215  20.1696720  58.4256172
  74.1413574  19.1376057  59.5306129  47.7367859  64.6821671   1.4403831
  48.0759621  65.4791489   1.8478241  48.5102730  64.1350250   1.3040549
  11.0871630  56.1634140   1.9342520  11.5382557  55.5743065   2.5389814
  10.5775232  55.5825119   1.3694046  58.0421791  60.7837105  20.0778923
  57.7989082  60.9953156  19.1766281  58.9939728  60.8831406  20.0987034
  75.6073074  41.0187378  44.1015549  74.9509048  41.0972595  44.7937965
  75.4368973  40.1640358  43.7057304  38.9626350   9.9079418  63.9500008
  39.5868149   9.3195038  64.3747025  38.3715591   9.3258886  63.4724312
  65.8610229   3.9792352  58.5150452  66.4373169   3.2159233  58.5533295
  65.5791397   4.1121631  59.4200897  44.5539665  57.8501587  57.6183090
  45.2654037  57.4257278  57.1387787  44.4127045  57.2906723  58.3820190
  79.5549011  66.6333618  80.5592194  80.0466995  66.3457489  81.3283997
  80.1225815  66.4203568  79.8185425  27.9567757  69.2856216  35.7021561
  28.2794456  69.6958313  36.5045547  28.6184216  69.4955139  35.0430641
  51.0989418  52.9927826  13.3736439  51.9730759  53.3700294  13.4726820
  50.9101372  53.0681152  12.4382792  43.2712364  62.2493935  84.9720688
  43.5822945  61.9809113  84.1075439  42.3316154  62.3899574  84.8555222
  17.7776241  30.8195305  79.8807831  17.2666721  31.2056751  80.5921555
  18.2038441  31.5659103  79.4594955   1.9966851  27.3996983  76.5205841
   1.5731864  28.2301064  76.7380829   2.6221726  27.2565746  77.2308731
  50.3339195  58.2559052  47.7812386  50.1369820  59.1096268  48.1667366
  51.2900734  58.2200584  47.7543831  79.8001328  45.5368500  84.3915634
  80.4367523  44.8222427  84.3745575  78.9618759  45.1068687  84.5609055
  26.0642109   7.3940706  64.4440308  26.8990898   7.6263828  64.0375366
  25.4758930   8.1119375  64.2099762  67.4543991  29.6225929  29.1769257
  67.7490387  29.8225899  30.0654182  68.1565704  29.9469509  28.6130257
  38.9293823  30.6230850   8.7380571  38.8883781  29.8758221   9.3348408
  38.4966393  31.3327446   9.2127657  72.3883133  35.7706108  33.0250702
  72.7165375  35.5965195  32.1429138  73.0596771  36.3228302  33.4257698
  13.0904436   9.4241476  20.9001045  13.8753815   9.6574097  21.3957787
  12.4091444   9.3218174  21.5646286  64.8551102   1.8238034  53.0479507
  64.8824615   2.4485335  53.7726555  64.1643372   2.1536934  52.4732895
  84.0087509  48.4275169  12.7609520  83.9904633  47.7174911  12.1192665
  84.5973663  48.1144943  13.4478168   8.2713127  16.1044521  28.7472248
   7.7389998  15.3147440  28.8433304   8.7141895  15.9938450  27.9058819
  40.8218193  66.4367142  19.0743523  40.9858589  66.2312698  19.9947395
  40.2802048  67.2255936  19.0978889   1.1899720  26.4381275  87.0831070
   0.7031013  26.2436447  87.8839569   2.0215094  25.9762745  87.1902008
   6.6282072  19.5649548  49.2260132   5.8146682  19.9167728  49.5874100
   6.5810218  19.7646141  48.2910576  68.3971329  58.8806000  53.1185646
  67.6891403  59.2667694  53.6341782  68.7377319  59.6075058  52.5971870
  52.3022079   1.2688280  35.9855461  52.5677605   2.1882741  36.0037956
  52.3877029   0.9767780  36.8930893  24.7773647  54.4731064  78.0648956
  23.9613075  54.7792816  78.4605408  25.3862419  55.2032394  78.1762772
  46.6472015  69.3611679  33.1167831  47.1125565  68.8788605  32.4333649
  45.9551353  69.8298187  32.6502647  53.8179359  44.9641838  50.1171608
  53.2399712  45.6533813  49.7897530  54.4433327  45.4226036  50.6783791
  24.1450348  34.9262543  81.7935104  24.0729446  34.7502022  82.7316132
  25.0555878  34.7217064  81.5807037  44.6807327  58.6948357  61.8933144
  44.2325211  59.0699234  61.1352539  45.3415070  58.1132698  61.5172997
  56.7927818  70.6477966  59.3791122  56.5887642  70.0755310  58.6394348
  56.1177406  71.3258362  59.3506737  45.2461510  37.4715958  68.2981339
  44.5306320  37.1643715  67.7414703  45.8576431  36.7358704  68.3300323
  53.2573051  17.2861824  77.9625320  52.3840065  16.8943748  77.9542542
  53.4498749  17.4224930  78.8901978  52.7583199  37.7255821   3.7480488
  52.9035034  38.2544098   4.5325856  53.3865280  37.0073471   3.8237059
  41.8788376  19.1766453  78.6115341  42.4451485  19.1391182  77.8407440
  41.1309013  19.7054501  78.3337097  75.3799744  39.2968559  72.1521454
  75.9798737  39.6970863  71.5227356  75.2732086  39.9586296  72.8354416
  34.7915611  68.7596817  81.8108902  34.2464981  68.1545868  81.3078995
  34.5200195  69.6287231  81.5154800  60.4737511  37.8722610  27.7615833
  59.8265648  38.3863487  28.2443848  60.6199646  38.3673706  26.9555302
  34.6171722  16.5640793  63.5243835  35.3258095  16.1461792  63.0350761
  34.9571228  16.6458244  64.4154434  37.0955048  47.9706917   0.9824603
  37.2909966  48.9026489   1.0797867  36.4427605  47.7909546   1.6591067
   8.1908436  60.5722504   9.3333454   7.9572554  61.0520477  10.1279917
   7.7620239  61.0554466   8.6270390  59.7867508  32.6640816  88.1303558
  60.0795174  32.2216644  88.9270935  60.4900436  33.2805634  87.9264984
  40.4011993   8.9567175  36.3688774  40.5181427   8.1495523  35.8678398
  39.6191101   9.3607798  35.9929771  23.8752174  33.1356812  15.2675686
  24.0077801  33.3375092  14.3413258  24.4082260  33.7810097  15.7319860
  53.6420937  13.9562368  12.0089855  54.2550468  13.9273748  12.7436199
  53.0398750  14.6674967  12.2273254   2.1685772  46.2347794  79.8824921
   1.2827940  46.2896042  79.5238647   2.4222541  47.1451683  80.0343781
  16.5389919   6.2707229   2.2656329  15.9852285   5.6992903   1.7336165
  16.7531357   5.7461381   3.0371156  72.3659515  22.5523472  74.7570648
  72.5707855  21.6256771  74.6323318  71.8496170  22.5771770  75.5626755
  82.9138641  66.3985596  50.9360771  82.6191177  67.2114563  50.5255165
  82.1504669  65.8221588  50.9012871  59.3480988  26.0886593  55.1837502
  58.9525414  26.8800220  54.8183556  60.1600952  25.9765930  54.6894455
  48.4400749  62.3341637  31.7237167  47.4896889  62.4002953  31.8165970
  48.6516228  61.4573936  32.0442657  85.8758850  15.7002878  12.9975662
  86.6553345  15.3300352  13.4118214  85.8470459  16.6054821  13.3074417
  33.4016037  23.5939941  61.3926582  34.2010193  23.4153900  61.8879013
  33.6781387  24.1934452  60.6995354  -0.0704364  49.5951271  48.8652420
  -0.1137841  50.5186844  48.6174698   0.8243716  49.3313599  48.6508141
  27.1549931  11.2075558   4.6616936  27.8574505  11.0649595   4.0273032
  27.5703907  11.6941252   5.3736811  71.5363464  52.0023804   8.2931929
  72.1418381  52.1935387   7.5769033  71.1173553  52.8417931   8.4830961
  50.4636002  59.1849823  29.5784912  51.1615982  59.6267548  30.0620899
  50.8823700  58.4066238  29.2110386  68.6014404  35.5271835   9.7878246
  69.1841888  34.9963989  10.3308744  68.7150040  36.4192696  10.1157246
  14.2466030  59.8655281  22.8800774  15.0047607  59.5703468  22.3757992
  14.5754852  59.9596634  23.7740612  59.8799858  49.8749046   5.0582476
  59.4762573  49.0976562   4.6720867  60.3602829  50.2793388   4.3357649
   2.8667817  47.3418045   8.4324112   2.5184762  48.2136116   8.2456779
   3.7343309  47.3388062   8.0279589  20.0438156  34.3621216  21.9057484
  20.7356796  35.0235138  21.9164333  19.4591560  34.6155434  22.6200180
  40.8729057  66.7165146   9.1782513  40.9936218  66.4844666   8.2574816
  40.7069244  65.8815536   9.6158934  24.0277710  27.4344921  15.9442139
  24.8158512  27.4135895  16.4870987  23.8240891  28.3653545  15.8534288
  55.3106194  12.3300734  39.7974205  55.0513191  12.9317799  40.4952354
  54.7319984  12.5473518  39.0665169  74.1278915  16.1959534  75.3796921
  74.1521378  16.2707462  74.4257278  73.4700851  15.5218801  75.5504532
  42.5616379  39.2686272  31.7792015  42.4062996  38.5030975  32.3324318
  43.4524002  39.5439682  31.9959126  68.2061005  49.1842766   4.0733743
  68.8546677  49.4221725   4.7359400  67.5956268  49.9214211   4.0602584
  59.3058434  19.0545235  63.8751488  58.9048157  19.1783676  64.7354279
  59.2507095  18.1118126  63.7186623  53.1817322  40.7760086  21.8775101
  53.7330933  41.5551796  21.9490910  53.6575623  40.2000313  21.2791214
   3.4618309  61.4281960   9.8933287   4.0135751  62.1920319   9.7249136
   2.6969721  61.5568504   9.3323736  56.6644897  70.5785751  73.6094284
  57.4731026  70.4733582  73.1081238  56.4702988  69.7006836  73.9377899
  66.3622971  33.7350807  54.3545074  66.7443771  34.3227615  55.0063362
  66.8616638  33.9060020  53.5559769  63.8750229   4.7381425  56.5051346
  64.2813034   5.1588626  55.7473984  64.6120987   4.4172421  57.0247231
  18.6411152  63.4207916  59.6646385  19.0546074  62.9149475  60.3641968
  18.1920567  62.7665863  59.1292953   8.8628798  13.4022903  39.8986320
   7.9593692  13.0862322  39.8957329   9.0510416  13.5981827  38.9807777
  42.8925591  43.5311928  41.8674164  42.8118858  44.1875839  42.5594254
  43.7988548  43.2292519  41.9281731  68.6606369  21.3060017  38.1231918
  68.6850739  21.7596207  38.9657249  69.5800247  21.2182674  37.8716545
  79.9740372  29.6154842  40.2091217  80.8947601  29.8008709  40.0243568
  79.5996246  30.4662304  40.4377632  10.0649529  67.4340210  32.9296646
  10.0112591  66.6710739  32.3541145   9.1611900  67.5924072  33.2023506
  39.1470261  24.6254749  64.9972305  39.3954659  24.5802517  64.0739365
  38.7903633  25.5070114  65.1063843  21.5730915  41.0437317  43.3442001
  21.3473301  40.2026062  43.7414093  20.8882236  41.1922073  42.6921692
  35.8762169  66.3134842  80.2444611  35.7018700  66.8793716  79.4923935
  35.9783554  66.9174042  80.9800415  82.1600494  68.6059113  18.1464996
  82.7237473  68.4672699  17.3854103  82.0572433  69.5561523  18.1984844
  61.6483574  69.5891113  66.3755951  60.8713074  69.6170349  65.8173370
  61.5030327  68.8380814  66.9509811  83.7305298  37.9069214  77.5201492
  83.3987885  37.6316147  78.3747711  83.3126297  37.3116188  76.8978958
  14.1995668  20.1950359  15.4934454  13.9140749  20.8649673  16.1146679
  15.1423750  20.1186142  15.6400919  78.4599075  20.8651638  29.3342609
  78.0872574  20.8627796  30.2159386  78.9998169  20.0754967  29.3003006
  33.1865425  20.9799995   0.9902376  33.6254425  20.2905483   0.4919825
  32.3096237  21.0293026   0.6096881  64.4855118   6.0139813  25.9616261
  65.4097214   6.0504923  25.7151852  64.3940887   5.1818385  26.4257488
  65.1465073  41.4177322  22.5341663  65.1028595  40.4615631  22.5260143
  64.4598160  41.6836319  23.1457081  49.8132782  57.7235947  20.6019402
  49.3118324  57.5725632  21.4031734  49.1495132  57.8701134  19.9280109
  26.5538502  38.4964180  20.7915630  26.5287495  39.4501114  20.7136707
  25.7181644  38.2672424  21.1981812  66.3135757  18.6093349  34.3871841
  67.0071335  18.7047119  35.0399590  66.2833710  17.6700592  34.2053032
   0.3644485  37.2219925  69.7527695  -0.1090055  38.0532379  69.7859879
   1.2674069  37.4517212  69.9721375  23.6647434   4.3127537  41.8512039
  24.6016331   4.4629974  41.7251244  23.5591545   3.3660848  41.7568588
  49.4039879  38.0453262  71.3482666  49.8599205  37.9601135  70.5109482
  48.6759949  38.6392517  71.1652145  26.1165466  46.3230057  58.4932556
  26.9786873  46.4005051  58.9018364  25.9141521  47.2084770  58.1912537
  63.8728752  40.8631668  58.8811951  64.1294098  40.9124260  57.9603271
  64.6195297  41.2261925  59.3575821  66.9302292  27.9175835  12.8651075
  66.8831863  28.8695488  12.7768850  66.4473953  27.7274342  13.6694374
  84.9245834  38.9053612  57.5411377  84.9158249  39.0205498  56.5909348
  85.2560959  38.0169373  57.6716576  11.6448965  26.2392502  67.2881546
  11.5664797  27.1431789  67.5931091  10.8125887  25.8322678  67.5287018
  58.0787659  11.8798981  46.7599983  58.2280083  11.8559875  47.7051888
  57.5465469  12.6633120  46.6212997  55.7847099   5.5125184  32.7350006
  55.8556976   4.7348008  33.2884903  55.6897163   6.2379203  33.3522530
  67.6544189   8.0129843  63.2012138  67.6520233   8.9469795  63.4106865
  67.0567169   7.9326997  62.4578781  69.9513779  25.7205219  56.3393669
  69.5160446  25.3451977  55.5739594  69.4133453  25.4432106  57.0808868
  25.5993671  55.7104836   0.5886411  24.9745102  56.3992500   0.3619640
  25.2532024  55.3291092   1.3954604   3.4466124  28.4912548  24.2957172
   4.3467493  28.7770004  24.4517117   2.9063346  29.1981697  24.6487083
  51.9196739  61.5552330   4.2741227  52.1854782  61.3417282   5.1685472
  51.2554932  60.9004288   4.0588775  53.7992783  21.9612617  19.3260384
  53.3795090  21.1346741  19.5643196  54.3485565  22.1769352  20.0797024
  14.7359009  46.6824341  52.5875740  14.9686432  45.8703651  52.1374588
  14.9078417  46.5017967  53.5117149  85.9430618   3.1341980  55.2002258
  85.7056656   4.0157795  54.9126663  85.1179810   2.7476537  55.4935837
  65.1359558  21.8970833  83.7625122  64.4393616  21.4234142  83.3079529
  65.8328781  21.9807205  83.1117172  13.2828026  55.4470406  23.7256737
  14.0004520  55.3365669  24.3493786  12.6034479  55.9047623  24.2208519
  57.6315994  47.2359810  16.1246567  58.3810883  47.4018097  15.5528202
  57.3811836  48.1013031  16.4483032  74.5605469  39.9830208   9.0876026
  75.4723587  39.8409958   9.3418846  74.6032104  40.2065125   8.1578379
  58.6315804  66.0030594  85.9674072  58.0753670  65.4800339  86.5447311
  59.3902206  65.4451752  85.7957764  62.4024658  29.4954357  64.6803818
  61.8843727  28.7756882  64.3201447  62.0036812  29.6748447  65.5318604
   5.8676133  19.5156403  67.0090027   5.2103934  20.0327644  66.5433044
   6.7039003  19.9047222  66.7531281  84.7301407  21.0052071  79.7998505
  85.1415176  21.6585827  80.3656311  85.3569031  20.2822094  79.7738571
  41.0837517  55.5042572  17.5070820  40.6971016  56.3083954  17.1605282
  40.4770813  54.8130722  17.2416687   7.2073231  65.4262848  23.4999504
   6.8566546  65.2321243  22.6307163   8.0914364  65.0596085  23.4889336
   4.2064071  25.8271446  16.4202137   3.6589606  25.6959667  15.6460524
   3.9455962  25.1276493  17.0193119   1.6138644  54.4847565  82.7562103
   1.7582502  54.5932274  83.6962204   0.9502306  55.1393700  82.5387192
  12.4731407  37.5967369  38.0253143  13.1648922  37.8987198  37.4366570
  12.1455555  36.7946739  37.6183586  54.6454315  71.2785034  39.3275337
  54.3580360  70.5196762  39.8353004  54.6366196  70.9762497  38.4193497
  63.5776100  33.6708794  54.4223480  64.4295349  34.1043243  54.4730873
  63.0237427  34.1592751  55.0313950  80.0892334  -0.0216469  79.1762009
  80.8126755   0.4769976  79.5559540  79.4301071   0.6384068  78.9614487
  10.0487328  48.7026176  25.2550831   9.2955360  48.9460144  24.7168598
  10.5637655  49.5065117  25.3238373  24.4718227   1.9004281  39.9363403
  24.0829792   1.8711022  39.0621681  25.3441982   1.5230775  39.8232117
  85.6216583  12.1577072  34.8625374  85.7348022  12.7478275  35.6076469
  84.8766556  12.5187321  34.3820496  58.2167358   0.9933063  24.8481865
  57.4331398   1.2381414  24.3559761  57.8903732   0.7590325  25.7169991
  32.6608391  63.4020844  37.1786156  32.1034470  63.7553139  37.8719978
  33.2131805  62.7571983  37.6205139  75.2746201  50.1033516  64.8537674
  74.7109375  50.3321342  64.1147537  75.1620636  49.1584511  64.9573288
  42.9498634  67.4942551  37.9546890  43.1945992  66.6333008  37.6154327
  42.0125389  67.5652618  37.7740974   5.4905152  15.8434286   1.8736652
   4.6424313  15.5318050   1.5576333   5.5466399  15.5159845   2.7713635
  43.3532181  32.7338638  68.0560684  44.2581825  32.8461304  67.7650909
  42.9069290  33.5281029  67.7624054  37.0264511  16.4517765   7.8200064
  37.1234207  15.6699505   7.2763381  36.1872063  16.8266773   7.5528803
  26.7205448  64.4057693  79.0867920  26.1635590  64.2571411  78.3226547
  26.8322697  63.5376434  79.4742355  15.6816053  56.7662849  24.2577801
  16.5836506  56.4558754  24.3364525  15.7442093  57.5475044  23.7082253
  44.1434021  48.9339447  63.0887184  43.7488365  48.3163376  63.7044411
  43.4582443  49.0964890  62.4403610  76.5702972  52.4564934  66.1955948
  75.9324799  53.1349144  66.4173203  76.0989304  51.8681908  65.6057281
  74.0174255  37.0709877  70.9529343  74.2141953  36.3044624  71.4914093
  74.3490601  37.8117256  71.4604340  17.1567707  62.9449501  10.7057209
  17.0030289  63.6098213  10.0344973  17.5395374  62.2080154  10.2296457
  55.1340294  15.4049091  54.6736145  55.6065712  14.6047287  54.4441681
  55.0582962  15.3732367  55.6272888   5.1490269  35.2905884  68.4688263
   5.0669713  36.2368622  68.3502426   4.3066359  34.9391403  68.1805725
  48.6478081   6.2806654  56.6649513  49.5225143   6.5164814  56.9740028
  48.4541130   6.9224191  55.9816742   6.6224442  28.9787540   6.2028875
   7.0560246  29.4865665   5.5170550   5.8770456  28.5698128   5.7631378
  37.2942810  41.6450157   3.2171135  37.1740532  40.7130203   3.0350084
  37.8750687  41.9521065   2.5209725  20.8439026  70.9422531  56.1107712
  20.9146519  71.8611221  55.8521080  20.5328846  70.9713974  57.0155640
  35.0505791  29.5299759  87.7367249  34.9227600  28.9349022  88.4754944
  34.6011658  29.1049156  87.0062561   8.8506565   8.3572674  82.5161972
   9.7841988   8.2642088  82.3262787   8.5518494   9.0427828  81.9186935
  73.4873734  22.3569622  64.6224594  73.9037933  21.5618839  64.2897720
  73.9648666  23.0716553  64.2012177  14.9426689  35.8964081  88.3452301
  14.9103146  34.9455681  88.4505234  14.4534588  36.0649986  87.5399475
  52.3676529  20.3675823  34.3220558  52.5854301  19.5239468  33.9257202
  52.9435310  20.9939728  33.8836174  85.2600555  37.9876251  36.9544449
  85.4211655  37.9748840  37.8979034  85.8916168  37.3644943  36.5951805
  69.9355240  15.9550447  71.0724258  69.3210373  16.4875622  70.5673904
  69.3977966  15.2549095  71.4424133  72.1623917  23.4300232   7.5927281
  71.5112686  24.0344830   7.2364874  71.7045593  22.5913754   7.6500936
  47.7999649  18.5738926   6.0376406  48.6123123  18.0682049   6.0130315
  47.1083298  17.9138851   6.0852475  85.3713074  50.2833633  75.2344437
  86.0915985  50.3406105  75.8622513  85.1770477  51.1931686  75.0091782
  56.1620255  49.0682106  71.6308746  56.8997650  48.6111946  72.0347366
  55.7526817  48.4113541  71.0676575  86.8350372  57.4253540  24.4458790
  86.0923767  56.8627625  24.2263927  87.1260071  57.1143303  25.3031025
  81.4021149  55.2632408  16.4119415  81.9021149  55.8674850  16.9606857
  80.4962082  55.5622787  16.4903011  59.7353706  30.3413620  15.5660820
  59.1941032  30.1929073  14.7906971  59.1498108  30.7736759  16.1877403
  77.7485199  46.3182869  38.1579475  76.8096008  46.4283524  38.3080940
  77.8044662  45.6692085  37.4566650  30.2081032  71.2953262  88.7937012
  29.2868958  71.3696671  89.0428619  30.3290539  71.9653015  88.1208420
  29.8127995  65.5419998  28.5245132  29.9903774  64.7029572  28.9496117
  30.5849571  65.7040710  27.9825401   9.2918625  64.3947220  20.2884083
   9.4941387  64.9879074  21.0119057  10.0681629  63.8403931  20.2089767
  66.4080276  43.2225761  25.0422993  65.5395966  42.9529572  25.3412399
  66.3237152  44.1617012  24.8774796  80.9601822  69.8033218  34.2129707
  81.1434784  68.9215775  34.5372505  81.6745071  69.9875031  33.6030121
  83.5760422  70.2382965  81.3771667  83.0233917  71.0117340  81.4894485
  83.3278122  69.8887482  80.5213470  44.0003891  20.3404465  10.6720238
  43.6958008  21.0262241  11.2663031  43.2786674  20.2204456  10.0548143
   1.1213996  65.5483932  43.5070152   1.0796305  64.7285080  43.9992294
   1.4277996  65.2904816  42.6376305  49.5259705  15.8271770  38.1660843
  49.6931229  15.4989538  39.0495758  50.0542412  16.6228447  38.1022377
  86.7261496  71.5576941  89.0852469  90.0000000  90.0000000  90.0000000
